 Gaussian 16, Revision A.03,
 Gaussian 16:  ES64L-G16RevA.03 25-Dec-2016

 ---------------------------------
 #p PBE1PBE/Def2SVP td=(nstates=5)
 ---------------------------------

 -----------------------------------------------------
 step_1401_chromophore_2 TDDFT with PBE1PBE functional
 -----------------------------------------------------
 Symbolic Z-matrix:
 Charge =  0 Multiplicity = 1

                         Standard orientation:
 ---------------------------------------------------------------------
 Center     Atomic      Atomic             Coordinates (Angstroms)
 Number     Number       Type             X           Y           Z
 ---------------------------------------------------------------------
      1         12           0        3.866084    1.206696   -0.739756
      2          6           0        4.785499   -2.139832   -0.344311
      3          6           0        1.358044    0.151121   -2.821780
      4          6           0        2.477477    4.252470   -0.590353
      5          6           0        5.751933    1.926768    2.166932
      6          7           0        3.104357   -0.743147   -1.412849
      7          6           0        3.684303   -1.985313   -1.168569
      8          6           0        3.067839   -3.148127   -1.981196
      9          6           0        2.206096   -2.289472   -2.971957
     10          6           0        2.174979   -0.879969   -2.350641
     11          6           0        2.758141   -2.272112   -4.440669
     12          6           0        2.064084   -4.221158   -1.283376
     13          6           0        1.258417   -3.701389   -0.093204
     14          6           0       -0.328577   -3.699867   -0.276727
     15          8           0       -0.931906   -3.716185   -1.397930
     16          8           0       -1.007397   -3.844915    0.923109
     17          7           0        2.345006    2.161467   -1.803095
     18          6           0        1.331106    1.561501   -2.585232
     19          6           0        0.379388    2.496777   -3.014354
     20          6           0        0.789524    3.780843   -2.473613
     21          6           0        1.973087    3.457288   -1.585769
     22          6           0       -0.773245    2.252674   -3.992318
     23          6           0        0.116471    5.151634   -2.771752
     24          8           0       -0.827210    5.214187   -3.595185
     25          6           0        0.441045    6.498248   -2.071676
     26          7           0        4.115972    2.886515    0.575627
     27          6           0        3.318920    3.977952    0.440067
     28          6           0        3.704400    4.933721    1.564463
     29          6           0        4.929348    4.332144    2.373474
     30          6           0        4.936014    2.933717    1.677322
     31          6           0        3.895019    6.395696    1.020340
     32          6           0        4.743345    4.331296    3.897594
     33          6           0        5.760926    5.269291    4.610610
     34          7           0        5.117434    0.203398    0.630411
     35          6           0        5.860052    0.611452    1.715045
     36          6           0        6.626717   -0.526099    2.219697
     37          6           0        6.229509   -1.612993    1.449574
     38          6           0        5.296214   -1.118809    0.482963
     39          6           0        7.680351   -0.432368    3.361140
     40          6           0        6.554723   -3.007287    1.142094
     41          8           0        7.308220   -3.788373    1.723413
     42          6           0        5.636602   -3.389139   -0.072256
     43          6           0        6.524967   -3.882728   -1.221714
     44          8           0        7.008949   -4.987020   -1.287169
     45          8           0        6.761749   -2.977439   -2.264409
     46          6           0        7.586002   -3.463212   -3.379695
     47          6           0       -2.428628   -3.900478    0.825755
     48          6           0       -2.999983   -3.681301    2.218944
     49          6           0       -4.207856   -3.195698    2.595445
     50          6           0       -5.152976   -2.629446    1.655806
     51          6           0       -4.896242   -3.337751    3.974916
     52          6           0       -5.061634   -1.971867    4.707303
     53          6           0       -6.509120   -1.611507    4.975524
     54          6           0       -6.942234   -0.173202    4.440197
     55          6           0       -7.543101    0.587139    5.607653
     56          6           0       -7.905828   -0.376872    3.246541
     57          6           0       -8.029294    0.987102    2.478908
     58          6           0       -7.184516    0.991611    1.136764
     59          6           0       -8.017437    0.439623   -0.091721
     60          6           0       -7.460828   -0.840507   -0.814503
     61          6           0       -8.330894    1.549652   -1.128026
     62          6           0       -9.880329    1.742075   -1.336747
     63          6           0      -10.257083    1.468657   -2.795944
     64          6           0      -10.698150    0.040648   -3.022212
     65          6           0       -9.969871   -0.661857   -4.240924
     66          6           0      -12.204872   -0.128110   -3.085685
     67          1           0        0.688020   -0.203751   -3.608107
     68          1           0        2.018200    5.234616   -0.456201
     69          1           0        6.391069    2.252177    2.990339
     70          1           0        3.847949   -3.795062   -2.384227
     71          1           0        1.185860   -2.670994   -3.007773
     72          1           0        3.768367   -2.673047   -4.524266
     73          1           0        2.864422   -1.244993   -4.788410
     74          1           0        2.036042   -2.880824   -4.985526
     75          1           0        2.680089   -5.033255   -0.898374
     76          1           0        1.420337   -4.563444   -2.093370
     77          1           0        1.533618   -2.676389    0.153397
     78          1           0        1.568210   -4.168608    0.842292
     79          1           0       -1.712697    2.659772   -3.618089
     80          1           0       -0.890919    1.172234   -4.079556
     81          1           0       -0.424394    2.691124   -4.927598
     82          1           0        1.530663    6.493290   -2.059104
     83          1           0        0.086190    6.548563   -1.042220
     84          1           0        0.102811    7.285110   -2.745972
     85          1           0        2.894363    4.995019    2.290852
     86          1           0        5.821744    4.853795    2.025011
     87          1           0        4.315977    6.175910    0.038715
     88          1           0        4.492260    6.998991    1.703194
     89          1           0        3.019943    6.995423    0.770612
     90          1           0        4.848387    3.338324    4.334690
     91          1           0        3.804038    4.817362    4.160769
     92          1           0        6.735994    5.139735    4.138439
     93          1           0        5.911105    5.291957    5.689918
     94          1           0        5.593030    6.300271    4.299040
     95          1           0        8.539048   -0.999126    3.001383
     96          1           0        7.212637   -0.816966    4.267409
     97          1           0        8.012723    0.599895    3.465503
     98          1           0        5.067570   -4.267722    0.229671
     99          1           0        7.368944   -2.734145   -4.160735
    100          1           0        7.390820   -4.479200   -3.723814
    101          1           0        8.628604   -3.528572   -3.068249
    102          1           0       -2.601169   -4.905223    0.441387
    103          1           0       -2.745301   -3.096533    0.160906
    104          1           0       -2.364813   -3.897035    3.078348
    105          1           0       -6.176225   -2.761302    2.006532
    106          1           0       -4.990886   -3.151258    0.712522
    107          1           0       -4.931126   -1.569980    1.528500
    108          1           0       -4.432651   -4.023918    4.682861
    109          1           0       -5.850983   -3.801301    3.725618
    110          1           0       -4.505837   -1.224064    4.142187
    111          1           0       -4.605784   -2.114558    5.686594
    112          1           0       -6.746409   -1.829357    6.017071
    113          1           0       -7.200102   -2.385369    4.640923
    114          1           0       -6.033593    0.378868    4.197696
    115          1           0       -8.567595    0.865687    5.360730
    116          1           0       -7.048342    1.556186    5.667413
    117          1           0       -7.653037    0.087722    6.570255
    118          1           0       -8.906705   -0.521407    3.652969
    119          1           0       -7.658759   -1.195907    2.571615
    120          1           0       -7.679254    1.868593    3.016271
    121          1           0       -9.076688    1.177503    2.247400
    122          1           0       -6.279447    0.402428    1.279076
    123          1           0       -6.698398    1.947058    0.939063
    124          1           0       -8.909640    0.034289    0.384899
    125          1           0       -6.855778   -0.548133   -1.672261
    126          1           0       -8.392281   -1.364741   -1.027329
    127          1           0       -6.843268   -1.330773   -0.062045
    128          1           0       -7.800491    1.258587   -2.034829
    129          1           0       -7.859339    2.468195   -0.779394
    130          1           0      -10.272922    2.745606   -1.176254
    131          1           0      -10.476413    1.173963   -0.621335
    132          1           0       -9.464830    1.707355   -3.505031
    133          1           0      -11.082988    2.141452   -3.026670
    134          1           0      -10.503660   -0.642751   -2.195717
    135          1           0      -10.559363   -0.314728   -5.089804
    136          1           0      -10.044638   -1.726910   -4.022155
    137          1           0       -8.940707   -0.326892   -4.370884
    138          1           0      -12.577908   -0.612423   -3.988049
    139          1           0      -12.700303    0.807150   -2.824567
    140          1           0      -12.692093   -0.679357   -2.281292
 ---------------------------------------------------------------------

 SCF Done:  E(RPBE1PBE) =  -3005.32946188     A.U. after   15 cycles

 Excitation energies and oscillator strengths:

 Excited State   1:      Singlet-A      1.8558 eV  668.09 nm  f=0.3633  <S**2>=0.000
     245 -> 248       -0.16572
     246 -> 247        0.69396
     246 <- 247       -0.10814
 This state for optimization and/or second-order correction.
 Total Energy, E(TD-HF/TD-DFT) =  -3005.26126294
 Copying the excited state density for this state as the 1-particle RhoCI density.

 Excited State   2:      Singlet-A      2.2893 eV  541.57 nm  f=0.1023  <S**2>=0.000
     245 -> 247        0.64303
     246 -> 248        0.27185

 Excited State   3:      Singlet-A      2.8430 eV  436.11 nm  f=0.0015  <S**2>=0.000
     242 -> 247        0.22313
     243 -> 247        0.63217

 Excited State   4:      Singlet-A      2.9908 eV  414.55 nm  f=0.0072  <S**2>=0.000
     241 -> 247       -0.15933
     242 -> 247        0.62930
     243 -> 247       -0.24115

 Excited State   5:      Singlet-A      3.0557 eV  405.75 nm  f=0.0001  <S**2>=0.000
     240 -> 247        0.20589
     241 -> 247        0.61099
     241 -> 249       -0.14941
     242 -> 247        0.14024

 The electronic state is 1-A.
 Alpha  occ. eigenvalues --  -46.92809 -19.26189 -19.25314 -19.20977 -19.20081
 Alpha  occ. eigenvalues --  -19.19735 -19.18920 -14.42313 -14.41712 -14.39690
 Alpha  occ. eigenvalues --  -14.39388 -10.38042 -10.36727 -10.32948 -10.32873
 Alpha  occ. eigenvalues --  -10.29559 -10.29213 -10.29006 -10.28926 -10.28802
 Alpha  occ. eigenvalues --  -10.28738 -10.28724 -10.28142 -10.27607 -10.27410
 Alpha  occ. eigenvalues --  -10.26910 -10.26535 -10.26415 -10.26196 -10.26150
 Alpha  occ. eigenvalues --  -10.26127 -10.26085 -10.25972 -10.25931 -10.25625
 Alpha  occ. eigenvalues --  -10.25373 -10.24984 -10.24850 -10.24560 -10.24305
 Alpha  occ. eigenvalues --  -10.24235 -10.24107 -10.24075 -10.23997 -10.23748
 Alpha  occ. eigenvalues --  -10.23666 -10.23394 -10.23318 -10.23304 -10.23274
 Alpha  occ. eigenvalues --  -10.23031 -10.22987 -10.22788 -10.22730 -10.22702
 Alpha  occ. eigenvalues --  -10.22480 -10.22473 -10.22199 -10.22182 -10.22080
 Alpha  occ. eigenvalues --  -10.22073 -10.21723 -10.21653 -10.21587 -10.21482
 Alpha  occ. eigenvalues --  -10.21227  -3.14874  -1.87707  -1.87244  -1.87095
 Alpha  occ. eigenvalues --   -1.11101  -1.10773  -1.04404  -1.02934  -1.02171
 Alpha  occ. eigenvalues --   -1.01472  -0.99432  -0.98602  -0.98091  -0.96797
 Alpha  occ. eigenvalues --   -0.87395  -0.84916  -0.84121  -0.83526  -0.83359
 Alpha  occ. eigenvalues --   -0.83148  -0.82889  -0.81877  -0.81101  -0.80955
 Alpha  occ. eigenvalues --   -0.80000  -0.79634  -0.78644  -0.78196  -0.77861
 Alpha  occ. eigenvalues --   -0.76446  -0.76006  -0.75380  -0.75032  -0.74894
 Alpha  occ. eigenvalues --   -0.74038  -0.72423  -0.71948  -0.71394  -0.70912
 Alpha  occ. eigenvalues --   -0.69773  -0.69585  -0.69376  -0.68773  -0.68192
 Alpha  occ. eigenvalues --   -0.67959  -0.67383  -0.66600  -0.64949  -0.64123
 Alpha  occ. eigenvalues --   -0.63356  -0.62504  -0.61961  -0.61054  -0.60253
 Alpha  occ. eigenvalues --   -0.60050  -0.59846  -0.59576  -0.59273  -0.58366
 Alpha  occ. eigenvalues --   -0.58015  -0.57792  -0.57276  -0.56433  -0.54666
 Alpha  occ. eigenvalues --   -0.54405  -0.54022  -0.53729  -0.52910  -0.52560
 Alpha  occ. eigenvalues --   -0.51812  -0.51638  -0.50953  -0.50716  -0.50236
 Alpha  occ. eigenvalues --   -0.49843  -0.49339  -0.48893  -0.48832  -0.48550
 Alpha  occ. eigenvalues --   -0.48336  -0.47975  -0.47710  -0.47400  -0.47197
 Alpha  occ. eigenvalues --   -0.47140  -0.46734  -0.46468  -0.46416  -0.46057
 Alpha  occ. eigenvalues --   -0.45987  -0.45796  -0.45656  -0.45449  -0.45167
 Alpha  occ. eigenvalues --   -0.45067  -0.44719  -0.44603  -0.44473  -0.44339
 Alpha  occ. eigenvalues --   -0.44126  -0.43976  -0.43834  -0.43648  -0.43471
 Alpha  occ. eigenvalues --   -0.43424  -0.42931  -0.42802  -0.42703  -0.42399
 Alpha  occ. eigenvalues --   -0.42187  -0.42107  -0.41866  -0.41657  -0.41413
 Alpha  occ. eigenvalues --   -0.41249  -0.41194  -0.41080  -0.40788  -0.40429
 Alpha  occ. eigenvalues --   -0.40325  -0.40240  -0.40083  -0.39956  -0.39477
 Alpha  occ. eigenvalues --   -0.39379  -0.39229  -0.38848  -0.38649  -0.38583
 Alpha  occ. eigenvalues --   -0.38505  -0.38411  -0.38133  -0.38051  -0.37675
 Alpha  occ. eigenvalues --   -0.37520  -0.37361  -0.37310  -0.37209  -0.37168
 Alpha  occ. eigenvalues --   -0.36870  -0.36782  -0.36564  -0.36405  -0.36356
 Alpha  occ. eigenvalues --   -0.36161  -0.35937  -0.35374  -0.35068  -0.34960
 Alpha  occ. eigenvalues --   -0.34876  -0.34852  -0.34469  -0.33813  -0.33720
 Alpha  occ. eigenvalues --   -0.33402  -0.33313  -0.33100  -0.32567  -0.32058
 Alpha  occ. eigenvalues --   -0.32024  -0.31825  -0.31579  -0.31348  -0.30852
 Alpha  occ. eigenvalues --   -0.30314  -0.30179  -0.29781  -0.29510  -0.29419
 Alpha  occ. eigenvalues --   -0.29366  -0.28904  -0.28463  -0.27369  -0.26292
 Alpha  occ. eigenvalues --   -0.25996  -0.25620  -0.25229  -0.24585  -0.21640
 Alpha  occ. eigenvalues --   -0.19197
 Alpha virt. eigenvalues --   -0.11590  -0.05701  -0.04283  -0.02591  -0.01266
 Alpha virt. eigenvalues --   -0.00827   0.00577   0.00713   0.01048   0.02969
 Alpha virt. eigenvalues --    0.03670   0.04184   0.05034   0.05609   0.05645

 Mulliken charges:
               1
     1  Mg   0.975458
     2  C   -0.010817
     3  C   -0.068227
     4  C   -0.084050
     5  C   -0.077451
     6  N   -0.375493
     7  C    0.044823
     8  C   -0.099986
     9  C   -0.141899
    10  C    0.050928
    11  C    0.019942
    12  C    0.005500
    13  C   -0.043455
    14  C    0.260546
    15  O   -0.313440
    16  O   -0.359779
    17  N   -0.510109
    18  C    0.176047
    19  C   -0.189500
    20  C   -0.085226
    21  C    0.217158
    22  C    0.094352
    23  C    0.040723
    24  O   -0.270841
    25  C   -0.016286
    26  N   -0.414389
    27  C    0.091374
    28  C   -0.113980
    29  C   -0.100134
    30  C    0.060243
    31  C   -0.027208
    32  C    0.006923
    33  C   -0.099717
    34  N   -0.455544
    35  C    0.144620
    36  C   -0.207289
    37  C   -0.054978
    38  C    0.160488
    39  C    0.079378
    40  C    0.157587
    41  O   -0.207255
    42  C   -0.132374
    43  C    0.282043
    44  O   -0.232683
    45  O   -0.388949
    46  C    0.126127
    47  C    0.263379
    48  C   -0.127951
    49  C   -0.224222
    50  C   -0.046474
    51  C    0.006506
    52  C   -0.035372
    53  C   -0.000057
    54  C   -0.222671
    55  C    0.009348
    56  C    0.021098
    57  C   -0.066822
    58  C   -0.001829
    59  C   -0.256011
    60  C   -0.008548
    61  C    0.053070
    62  C   -0.037564
    63  C    0.000260
    64  C   -0.247110
    65  C   -0.030585
    66  C   -0.015468
    67  H    0.010092
    68  H   -0.014097
    69  H    0.005090
    70  H    0.051124
    71  H    0.063441
    72  H    0.041458
    73  H    0.046980
    74  H    0.057001
    75  H    0.045606
    76  H    0.068958
    77  H    0.081919
    78  H    0.060818
    79  H    0.067377
    80  H    0.029586
    81  H    0.073823
    82  H    0.047788
    83  H    0.081790
    84  H    0.065828
    85  H    0.047467
    86  H    0.054638
    87  H    0.047630
    88  H    0.050985
    89  H    0.045084
    90  H    0.058154
    91  H    0.049906
    92  H    0.026298
    93  H    0.054266
    94  H    0.027143
    95  H    0.067179
    96  H    0.072044
    97  H    0.036213
    98  H    0.082715
    99  H    0.061609
   100  H    0.057645
   101  H    0.058355
   102  H    0.060936
   103  H    0.058905
   104  H    0.026362
   105  H    0.050071
   106  H    0.059456
   107  H    0.078883
   108  H    0.020359
   109  H    0.044622
   110  H    0.047576
   111  H    0.038869
   112  H    0.009271
   113  H    0.004864
   114  H    0.039163
   115  H    0.014055
   116  H    0.031097
   117  H    0.043809
   118  H    0.026960
   119  H    0.033765
   120  H    0.028429
   121  H    0.030088
   122  H   -0.005292
   123  H    0.016515
   124  H    0.029747
   125  H    0.039115
   126  H    0.046418
   127  H    0.031330
   128  H    0.024173
   129  H    0.029059
   130  H    0.018488
   131  H    0.024599
   132  H    0.024225
   133  H    0.018568
   134  H    0.038004
   135  H    0.039136
   136  H    0.042245
   137  H    0.040085
   138  H    0.035413
   139  H    0.016243
   140  H    0.016301
 Sum of Mulliken charges =  -0.00000

 Dipole moment (field-independent basis, Debye):
    X=             -0.8299    Y=              4.1107    Z=              1.9680  Tot=              4.6324
 Quadrupole moment (field-independent basis, Debye-Ang):
   XX=           -407.6817   YY=           -412.6184   ZZ=           -395.2205
   XY=             50.1962   XZ=            -27.8178   YZ=             26.5688

 Normal termination of Gaussian 16 at Wed May  4 05:27:53 2022.
