 Gaussian 16, Revision A.03,
 Gaussian 16:  ES64L-G16RevA.03 25-Dec-2016

 --------------------------------
 #p wB97XD/Def2SVP td=(nstates=5)
 --------------------------------

 ----------------------------------------------------
 step_1401_chromophore_2 TDDFT with wB97XD functional
 ----------------------------------------------------
 Symbolic Z-matrix:
 Charge =  0 Multiplicity = 1

                         Standard orientation:
 ---------------------------------------------------------------------
 Center     Atomic      Atomic             Coordinates (Angstroms)
 Number     Number       Type             X           Y           Z
 ---------------------------------------------------------------------
      1         12           0        3.866084    1.206696   -0.739756
      2          6           0        4.785499   -2.139832   -0.344311
      3          6           0        1.358044    0.151121   -2.821780
      4          6           0        2.477477    4.252470   -0.590353
      5          6           0        5.751933    1.926768    2.166932
      6          7           0        3.104357   -0.743147   -1.412849
      7          6           0        3.684303   -1.985313   -1.168569
      8          6           0        3.067839   -3.148127   -1.981196
      9          6           0        2.206096   -2.289472   -2.971957
     10          6           0        2.174979   -0.879969   -2.350641
     11          6           0        2.758141   -2.272112   -4.440669
     12          6           0        2.064084   -4.221158   -1.283376
     13          6           0        1.258417   -3.701389   -0.093204
     14          6           0       -0.328577   -3.699867   -0.276727
     15          8           0       -0.931906   -3.716185   -1.397930
     16          8           0       -1.007397   -3.844915    0.923109
     17          7           0        2.345006    2.161467   -1.803095
     18          6           0        1.331106    1.561501   -2.585232
     19          6           0        0.379388    2.496777   -3.014354
     20          6           0        0.789524    3.780843   -2.473613
     21          6           0        1.973087    3.457288   -1.585769
     22          6           0       -0.773245    2.252674   -3.992318
     23          6           0        0.116471    5.151634   -2.771752
     24          8           0       -0.827210    5.214187   -3.595185
     25          6           0        0.441045    6.498248   -2.071676
     26          7           0        4.115972    2.886515    0.575627
     27          6           0        3.318920    3.977952    0.440067
     28          6           0        3.704400    4.933721    1.564463
     29          6           0        4.929348    4.332144    2.373474
     30          6           0        4.936014    2.933717    1.677322
     31          6           0        3.895019    6.395696    1.020340
     32          6           0        4.743345    4.331296    3.897594
     33          6           0        5.760926    5.269291    4.610610
     34          7           0        5.117434    0.203398    0.630411
     35          6           0        5.860052    0.611452    1.715045
     36          6           0        6.626717   -0.526099    2.219697
     37          6           0        6.229509   -1.612993    1.449574
     38          6           0        5.296214   -1.118809    0.482963
     39          6           0        7.680351   -0.432368    3.361140
     40          6           0        6.554723   -3.007287    1.142094
     41          8           0        7.308220   -3.788373    1.723413
     42          6           0        5.636602   -3.389139   -0.072256
     43          6           0        6.524967   -3.882728   -1.221714
     44          8           0        7.008949   -4.987020   -1.287169
     45          8           0        6.761749   -2.977439   -2.264409
     46          6           0        7.586002   -3.463212   -3.379695
     47          6           0       -2.428628   -3.900478    0.825755
     48          6           0       -2.999983   -3.681301    2.218944
     49          6           0       -4.207856   -3.195698    2.595445
     50          6           0       -5.152976   -2.629446    1.655806
     51          6           0       -4.896242   -3.337751    3.974916
     52          6           0       -5.061634   -1.971867    4.707303
     53          6           0       -6.509120   -1.611507    4.975524
     54          6           0       -6.942234   -0.173202    4.440197
     55          6           0       -7.543101    0.587139    5.607653
     56          6           0       -7.905828   -0.376872    3.246541
     57          6           0       -8.029294    0.987102    2.478908
     58          6           0       -7.184516    0.991611    1.136764
     59          6           0       -8.017437    0.439623   -0.091721
     60          6           0       -7.460828   -0.840507   -0.814503
     61          6           0       -8.330894    1.549652   -1.128026
     62          6           0       -9.880329    1.742075   -1.336747
     63          6           0      -10.257083    1.468657   -2.795944
     64          6           0      -10.698150    0.040648   -3.022212
     65          6           0       -9.969871   -0.661857   -4.240924
     66          6           0      -12.204872   -0.128110   -3.085685
     67          1           0        0.688020   -0.203751   -3.608107
     68          1           0        2.018200    5.234616   -0.456201
     69          1           0        6.391069    2.252177    2.990339
     70          1           0        3.847949   -3.795062   -2.384227
     71          1           0        1.185860   -2.670994   -3.007773
     72          1           0        3.768367   -2.673047   -4.524266
     73          1           0        2.864422   -1.244993   -4.788410
     74          1           0        2.036042   -2.880824   -4.985526
     75          1           0        2.680089   -5.033255   -0.898374
     76          1           0        1.420337   -4.563444   -2.093370
     77          1           0        1.533618   -2.676389    0.153397
     78          1           0        1.568210   -4.168608    0.842292
     79          1           0       -1.712697    2.659772   -3.618089
     80          1           0       -0.890919    1.172234   -4.079556
     81          1           0       -0.424394    2.691124   -4.927598
     82          1           0        1.530663    6.493290   -2.059104
     83          1           0        0.086190    6.548563   -1.042220
     84          1           0        0.102811    7.285110   -2.745972
     85          1           0        2.894363    4.995019    2.290852
     86          1           0        5.821744    4.853795    2.025011
     87          1           0        4.315977    6.175910    0.038715
     88          1           0        4.492260    6.998991    1.703194
     89          1           0        3.019943    6.995423    0.770612
     90          1           0        4.848387    3.338324    4.334690
     91          1           0        3.804038    4.817362    4.160769
     92          1           0        6.735994    5.139735    4.138439
     93          1           0        5.911105    5.291957    5.689918
     94          1           0        5.593030    6.300271    4.299040
     95          1           0        8.539048   -0.999126    3.001383
     96          1           0        7.212637   -0.816966    4.267409
     97          1           0        8.012723    0.599895    3.465503
     98          1           0        5.067570   -4.267722    0.229671
     99          1           0        7.368944   -2.734145   -4.160735
    100          1           0        7.390820   -4.479200   -3.723814
    101          1           0        8.628604   -3.528572   -3.068249
    102          1           0       -2.601169   -4.905223    0.441387
    103          1           0       -2.745301   -3.096533    0.160906
    104          1           0       -2.364813   -3.897035    3.078348
    105          1           0       -6.176225   -2.761302    2.006532
    106          1           0       -4.990886   -3.151258    0.712522
    107          1           0       -4.931126   -1.569980    1.528500
    108          1           0       -4.432651   -4.023918    4.682861
    109          1           0       -5.850983   -3.801301    3.725618
    110          1           0       -4.505837   -1.224064    4.142187
    111          1           0       -4.605784   -2.114558    5.686594
    112          1           0       -6.746409   -1.829357    6.017071
    113          1           0       -7.200102   -2.385369    4.640923
    114          1           0       -6.033593    0.378868    4.197696
    115          1           0       -8.567595    0.865687    5.360730
    116          1           0       -7.048342    1.556186    5.667413
    117          1           0       -7.653037    0.087722    6.570255
    118          1           0       -8.906705   -0.521407    3.652969
    119          1           0       -7.658759   -1.195907    2.571615
    120          1           0       -7.679254    1.868593    3.016271
    121          1           0       -9.076688    1.177503    2.247400
    122          1           0       -6.279447    0.402428    1.279076
    123          1           0       -6.698398    1.947058    0.939063
    124          1           0       -8.909640    0.034289    0.384899
    125          1           0       -6.855778   -0.548133   -1.672261
    126          1           0       -8.392281   -1.364741   -1.027329
    127          1           0       -6.843268   -1.330773   -0.062045
    128          1           0       -7.800491    1.258587   -2.034829
    129          1           0       -7.859339    2.468195   -0.779394
    130          1           0      -10.272922    2.745606   -1.176254
    131          1           0      -10.476413    1.173963   -0.621335
    132          1           0       -9.464830    1.707355   -3.505031
    133          1           0      -11.082988    2.141452   -3.026670
    134          1           0      -10.503660   -0.642751   -2.195717
    135          1           0      -10.559363   -0.314728   -5.089804
    136          1           0      -10.044638   -1.726910   -4.022155
    137          1           0       -8.940707   -0.326892   -4.370884
    138          1           0      -12.577908   -0.612423   -3.988049
    139          1           0      -12.700303    0.807150   -2.824567
    140          1           0      -12.692093   -0.679357   -2.281292
 ---------------------------------------------------------------------

 SCF Done:  E(RwB97XD) =  -3007.84330056     A.U. after   20 cycles

 Excitation energies and oscillator strengths:

 Excited State   1:      Singlet-A      1.6523 eV  750.36 nm  f=0.3773  <S**2>=0.000
     245 -> 248       -0.17796
     246 -> 247        0.68474
     245 <- 248       -0.11404
 This state for optimization and/or second-order correction.
 Total Energy, E(TD-HF/TD-DFT) =  -3007.78257853
 Copying the excited state density for this state as the 1-particle RhoCI density.

 Excited State   2:      Singlet-A      2.2328 eV  555.28 nm  f=0.0970  <S**2>=0.000
     245 -> 247        0.62814
     246 -> 248        0.30516

 Excited State   3:      Singlet-A      3.2790 eV  378.12 nm  f=0.0028  <S**2>=0.000
     241 -> 250        0.11794
     243 -> 247        0.64924
     243 -> 249        0.11018
     246 -> 248       -0.12069

 Excited State   4:      Singlet-A      3.4060 eV  364.02 nm  f=0.0022  <S**2>=0.000
     241 -> 247        0.50461
     241 -> 248        0.15759
     241 -> 249        0.25081
     241 -> 250        0.23900
     242 -> 247       -0.16949
     243 -> 247       -0.16514

 Excited State   5:      Singlet-A      3.5360 eV  350.63 nm  f=0.3191  <S**2>=0.000
     240 -> 247        0.16994
     240 -> 249       -0.15781
     241 -> 247        0.11564
     242 -> 247        0.35781
     242 -> 249       -0.10904
     245 -> 247       -0.21130
     246 -> 248        0.46568

 The electronic state is 1-A.
 Alpha  occ. eigenvalues --  -46.95759 -19.30739 -19.29860 -19.25610 -19.24763
 Alpha  occ. eigenvalues --  -19.24436 -19.23866 -14.47475 -14.46735 -14.44735
 Alpha  occ. eigenvalues --  -14.44243 -10.44800 -10.43524 -10.39893 -10.39635
 Alpha  occ. eigenvalues --  -10.36048 -10.35495 -10.35385 -10.35322 -10.35262
 Alpha  occ. eigenvalues --  -10.35165 -10.35020 -10.34722 -10.33798 -10.33664
 Alpha  occ. eigenvalues --  -10.33029 -10.32901 -10.32770 -10.32569 -10.32505
 Alpha  occ. eigenvalues --  -10.32457 -10.32456 -10.32348 -10.32191 -10.31905
 Alpha  occ. eigenvalues --  -10.31685 -10.31399 -10.31249 -10.30842 -10.30674
 Alpha  occ. eigenvalues --  -10.30670 -10.30664 -10.30519 -10.30384 -10.30087
 Alpha  occ. eigenvalues --  -10.30041 -10.29944 -10.29741 -10.29638 -10.29456
 Alpha  occ. eigenvalues --  -10.29422 -10.29378 -10.29095 -10.29076 -10.29071
 Alpha  occ. eigenvalues --  -10.28981 -10.28771 -10.28566 -10.28560 -10.28464
 Alpha  occ. eigenvalues --  -10.28421 -10.28169 -10.28112 -10.28032 -10.27863
 Alpha  occ. eigenvalues --  -10.27661  -3.21694  -1.95275  -1.94811  -1.94662
 Alpha  occ. eigenvalues --   -1.18464  -1.18145  -1.11791  -1.10567  -1.09508
 Alpha  occ. eigenvalues --   -1.08819  -1.06805  -1.05944  -1.05429  -1.04292
 Alpha  occ. eigenvalues --   -0.94957  -0.92599  -0.91737  -0.91208  -0.91005
 Alpha  occ. eigenvalues --   -0.90729  -0.90564  -0.89495  -0.88778  -0.88527
 Alpha  occ. eigenvalues --   -0.87692  -0.87308  -0.86281  -0.85792  -0.85504
 Alpha  occ. eigenvalues --   -0.84116  -0.83753  -0.83084  -0.82632  -0.82585
 Alpha  occ. eigenvalues --   -0.81722  -0.80008  -0.79564  -0.79103  -0.78578
 Alpha  occ. eigenvalues --   -0.77422  -0.77261  -0.77090  -0.76475  -0.75815
 Alpha  occ. eigenvalues --   -0.75581  -0.74933  -0.74139  -0.72578  -0.71659
 Alpha  occ. eigenvalues --   -0.70834  -0.70163  -0.69558  -0.68705  -0.67749
 Alpha  occ. eigenvalues --   -0.67620  -0.67436  -0.67092  -0.66679  -0.66036
 Alpha  occ. eigenvalues --   -0.65486  -0.65207  -0.64958  -0.64075  -0.62122
 Alpha  occ. eigenvalues --   -0.61875  -0.61432  -0.61103  -0.60319  -0.59922
 Alpha  occ. eigenvalues --   -0.59289  -0.59087  -0.58432  -0.58148  -0.57643
 Alpha  occ. eigenvalues --   -0.57278  -0.56754  -0.56353  -0.56233  -0.55857
 Alpha  occ. eigenvalues --   -0.55685  -0.55436  -0.55004  -0.54772  -0.54645
 Alpha  occ. eigenvalues --   -0.54433  -0.54126  -0.53895  -0.53771  -0.53673
 Alpha  occ. eigenvalues --   -0.53366  -0.53180  -0.52967  -0.52780  -0.52527
 Alpha  occ. eigenvalues --   -0.52325  -0.52073  -0.51908  -0.51876  -0.51782
 Alpha  occ. eigenvalues --   -0.51468  -0.51272  -0.51100  -0.50895  -0.50709
 Alpha  occ. eigenvalues --   -0.50682  -0.50258  -0.50199  -0.49973  -0.49682
 Alpha  occ. eigenvalues --   -0.49435  -0.49379  -0.49173  -0.48963  -0.48723
 Alpha  occ. eigenvalues --   -0.48454  -0.48355  -0.48259  -0.48029  -0.47703
 Alpha  occ. eigenvalues --   -0.47501  -0.47412  -0.47306  -0.47191  -0.46711
 Alpha  occ. eigenvalues --   -0.46573  -0.46410  -0.46035  -0.45847  -0.45817
 Alpha  occ. eigenvalues --   -0.45701  -0.45521  -0.45233  -0.45194  -0.44725
 Alpha  occ. eigenvalues --   -0.44562  -0.44475  -0.44379  -0.44338  -0.44280
 Alpha  occ. eigenvalues --   -0.44007  -0.43753  -0.43634  -0.43602  -0.43516
 Alpha  occ. eigenvalues --   -0.43297  -0.42906  -0.42480  -0.42204  -0.41987
 Alpha  occ. eigenvalues --   -0.41952  -0.41858  -0.41412  -0.40838  -0.40822
 Alpha  occ. eigenvalues --   -0.40436  -0.40361  -0.40060  -0.39472  -0.39092
 Alpha  occ. eigenvalues --   -0.39031  -0.38869  -0.38638  -0.38432  -0.37887
 Alpha  occ. eigenvalues --   -0.37303  -0.37026  -0.36723  -0.36495  -0.36402
 Alpha  occ. eigenvalues --   -0.36354  -0.35643  -0.35377  -0.33962  -0.33079
 Alpha  occ. eigenvalues --   -0.32805  -0.32576  -0.32107  -0.31329  -0.26673
 Alpha  occ. eigenvalues --   -0.23346
 Alpha virt. eigenvalues --   -0.07444  -0.00268   0.02029   0.03871   0.04796
 Alpha virt. eigenvalues --    0.06001   0.07367   0.07403   0.07738   0.09619
 Alpha virt. eigenvalues --    0.09915   0.10934   0.11757   0.12269   0.12336

 Mulliken charges:
               1
     1  Mg   0.967497
     2  C   -0.012594
     3  C   -0.084400
     4  C   -0.092245
     5  C   -0.090316
     6  N   -0.339323
     7  C    0.007751
     8  C   -0.079837
     9  C   -0.114865
    10  C    0.037783
    11  C    0.028764
    12  C    0.020153
    13  C   -0.029560
    14  C    0.253333
    15  O   -0.311676
    16  O   -0.358804
    17  N   -0.481336
    18  C    0.172806
    19  C   -0.180855
    20  C   -0.083155
    21  C    0.215622
    22  C    0.107034
    23  C    0.035976
    24  O   -0.266203
    25  C    0.001301
    26  N   -0.380315
    27  C    0.078469
    28  C   -0.090131
    29  C   -0.073626
    30  C    0.042989
    31  C   -0.009484
    32  C    0.020604
    33  C   -0.080767
    34  N   -0.416301
    35  C    0.134354
    36  C   -0.207167
    37  C   -0.051829
    38  C    0.142890
    39  C    0.092970
    40  C    0.138761
    41  O   -0.198640
    42  C   -0.093438
    43  C    0.259692
    44  O   -0.228939
    45  O   -0.387485
    46  C    0.140692
    47  C    0.275183
    48  C   -0.138985
    49  C   -0.206956
    50  C   -0.028024
    51  C    0.027815
    52  C   -0.021041
    53  C    0.012077
    54  C   -0.190889
    55  C    0.017783
    56  C    0.045386
    57  C   -0.048073
    58  C    0.019100
    59  C   -0.230527
    60  C    0.023551
    61  C    0.066533
    62  C   -0.020487
    63  C    0.019837
    64  C   -0.218917
    65  C   -0.014236
    66  C   -0.006945
    67  H    0.004043
    68  H   -0.033630
    69  H   -0.003159
    70  H    0.039306
    71  H    0.051367
    72  H    0.036664
    73  H    0.039732
    74  H    0.052679
    75  H    0.038923
    76  H    0.060845
    77  H    0.071326
    78  H    0.057492
    79  H    0.064774
    80  H    0.024433
    81  H    0.070500
    82  H    0.039398
    83  H    0.078880
    84  H    0.065146
    85  H    0.035476
    86  H    0.042795
    87  H    0.037376
    88  H    0.045817
    89  H    0.039158
    90  H    0.050871
    91  H    0.041133
    92  H    0.017694
    93  H    0.050465
    94  H    0.018231
    95  H    0.061970
    96  H    0.066915
    97  H    0.029711
    98  H    0.076608
    99  H    0.058523
   100  H    0.053283
   101  H    0.054223
   102  H    0.057071
   103  H    0.052781
   104  H    0.023513
   105  H    0.040649
   106  H    0.053834
   107  H    0.069825
   108  H    0.015078
   109  H    0.033938
   110  H    0.037248
   111  H    0.032391
   112  H    0.001846
   113  H   -0.005717
   114  H    0.025849
   115  H    0.006456
   116  H    0.026187
   117  H    0.038878
   118  H    0.018127
   119  H    0.014932
   120  H    0.020159
   121  H    0.020736
   122  H   -0.023067
   123  H    0.009087
   124  H    0.012489
   125  H    0.033162
   126  H    0.038192
   127  H    0.010289
   128  H    0.011978
   129  H    0.021283
   130  H    0.012253
   131  H    0.014657
   132  H    0.015311
   133  H    0.010026
   134  H    0.020471
   135  H    0.031558
   136  H    0.037248
   137  H    0.033179
   138  H    0.030312
   139  H    0.009291
   140  H    0.011191
 Sum of Mulliken charges =  -0.00000

 Dipole moment (field-independent basis, Debye):
    X=             -1.1059    Y=              4.3312    Z=              1.6537  Tot=              4.7662
 Quadrupole moment (field-independent basis, Debye-Ang):
   XX=           -409.2493   YY=           -411.6446   ZZ=           -394.4835
   XY=             49.9624   XZ=            -28.7834   YZ=             25.6694

 Normal termination of Gaussian 16 at Wed May  4 05:57:59 2022.
