 Gaussian 16, Revision A.03,
 Gaussian 16:  ES64L-G16RevA.03 25-Dec-2016

 --------------------
 #p ZINDO=(nstates=5)
 --------------------

 -----------------------------
 step_1401_chromophore_2 ZINDO
 -----------------------------
 Symbolic Z-matrix:
 Charge =  0 Multiplicity = 1

                         Standard orientation:
 ---------------------------------------------------------------------
 Center     Atomic      Atomic             Coordinates (Angstroms)
 Number     Number       Type             X           Y           Z
 ---------------------------------------------------------------------
      1         12           0        3.866084    1.206696   -0.739756
      2          6           0        4.785499   -2.139832   -0.344311
      3          6           0        1.358044    0.151121   -2.821780
      4          6           0        2.477477    4.252470   -0.590353
      5          6           0        5.751933    1.926768    2.166932
      6          7           0        3.104357   -0.743147   -1.412849
      7          6           0        3.684303   -1.985313   -1.168569
      8          6           0        3.067839   -3.148127   -1.981196
      9          6           0        2.206096   -2.289472   -2.971957
     10          6           0        2.174979   -0.879969   -2.350641
     11          6           0        2.758141   -2.272112   -4.440669
     12          6           0        2.064084   -4.221158   -1.283376
     13          6           0        1.258417   -3.701389   -0.093204
     14          6           0       -0.328577   -3.699867   -0.276727
     15          8           0       -0.931906   -3.716185   -1.397930
     16          8           0       -1.007397   -3.844915    0.923109
     17          7           0        2.345006    2.161467   -1.803095
     18          6           0        1.331106    1.561501   -2.585232
     19          6           0        0.379388    2.496777   -3.014354
     20          6           0        0.789524    3.780843   -2.473613
     21          6           0        1.973087    3.457288   -1.585769
     22          6           0       -0.773245    2.252674   -3.992318
     23          6           0        0.116471    5.151634   -2.771752
     24          8           0       -0.827210    5.214187   -3.595185
     25          6           0        0.441045    6.498248   -2.071676
     26          7           0        4.115972    2.886515    0.575627
     27          6           0        3.318920    3.977952    0.440067
     28          6           0        3.704400    4.933721    1.564463
     29          6           0        4.929348    4.332144    2.373474
     30          6           0        4.936014    2.933717    1.677322
     31          6           0        3.895019    6.395696    1.020340
     32          6           0        4.743345    4.331296    3.897594
     33          6           0        5.760926    5.269291    4.610610
     34          7           0        5.117434    0.203398    0.630411
     35          6           0        5.860052    0.611452    1.715045
     36          6           0        6.626717   -0.526099    2.219697
     37          6           0        6.229509   -1.612993    1.449574
     38          6           0        5.296214   -1.118809    0.482963
     39          6           0        7.680351   -0.432368    3.361140
     40          6           0        6.554723   -3.007287    1.142094
     41          8           0        7.308220   -3.788373    1.723413
     42          6           0        5.636602   -3.389139   -0.072256
     43          6           0        6.524967   -3.882728   -1.221714
     44          8           0        7.008949   -4.987020   -1.287169
     45          8           0        6.761749   -2.977439   -2.264409
     46          6           0        7.586002   -3.463212   -3.379695
     47          6           0       -2.428628   -3.900478    0.825755
     48          6           0       -2.999983   -3.681301    2.218944
     49          6           0       -4.207856   -3.195698    2.595445
     50          6           0       -5.152976   -2.629446    1.655806
     51          6           0       -4.896242   -3.337751    3.974916
     52          6           0       -5.061634   -1.971867    4.707303
     53          6           0       -6.509120   -1.611507    4.975524
     54          6           0       -6.942234   -0.173202    4.440197
     55          6           0       -7.543101    0.587139    5.607653
     56          6           0       -7.905828   -0.376872    3.246541
     57          6           0       -8.029294    0.987102    2.478908
     58          6           0       -7.184516    0.991611    1.136764
     59          6           0       -8.017437    0.439623   -0.091721
     60          6           0       -7.460828   -0.840507   -0.814503
     61          6           0       -8.330894    1.549652   -1.128026
     62          6           0       -9.880329    1.742075   -1.336747
     63          6           0      -10.257083    1.468657   -2.795944
     64          6           0      -10.698150    0.040648   -3.022212
     65          6           0       -9.969871   -0.661857   -4.240924
     66          6           0      -12.204872   -0.128110   -3.085685
     67          1           0        0.688020   -0.203751   -3.608107
     68          1           0        2.018200    5.234616   -0.456201
     69          1           0        6.391069    2.252177    2.990339
     70          1           0        3.847949   -3.795062   -2.384227
     71          1           0        1.185860   -2.670994   -3.007773
     72          1           0        3.768367   -2.673047   -4.524266
     73          1           0        2.864422   -1.244993   -4.788410
     74          1           0        2.036042   -2.880824   -4.985526
     75          1           0        2.680089   -5.033255   -0.898374
     76          1           0        1.420337   -4.563444   -2.093370
     77          1           0        1.533618   -2.676389    0.153397
     78          1           0        1.568210   -4.168608    0.842292
     79          1           0       -1.712697    2.659772   -3.618089
     80          1           0       -0.890919    1.172234   -4.079556
     81          1           0       -0.424394    2.691124   -4.927598
     82          1           0        1.530663    6.493290   -2.059104
     83          1           0        0.086190    6.548563   -1.042220
     84          1           0        0.102811    7.285110   -2.745972
     85          1           0        2.894363    4.995019    2.290852
     86          1           0        5.821744    4.853795    2.025011
     87          1           0        4.315977    6.175910    0.038715
     88          1           0        4.492260    6.998991    1.703194
     89          1           0        3.019943    6.995423    0.770612
     90          1           0        4.848387    3.338324    4.334690
     91          1           0        3.804038    4.817362    4.160769
     92          1           0        6.735994    5.139735    4.138439
     93          1           0        5.911105    5.291957    5.689918
     94          1           0        5.593030    6.300271    4.299040
     95          1           0        8.539048   -0.999126    3.001383
     96          1           0        7.212637   -0.816966    4.267409
     97          1           0        8.012723    0.599895    3.465503
     98          1           0        5.067570   -4.267722    0.229671
     99          1           0        7.368944   -2.734145   -4.160735
    100          1           0        7.390820   -4.479200   -3.723814
    101          1           0        8.628604   -3.528572   -3.068249
    102          1           0       -2.601169   -4.905223    0.441387
    103          1           0       -2.745301   -3.096533    0.160906
    104          1           0       -2.364813   -3.897035    3.078348
    105          1           0       -6.176225   -2.761302    2.006532
    106          1           0       -4.990886   -3.151258    0.712522
    107          1           0       -4.931126   -1.569980    1.528500
    108          1           0       -4.432651   -4.023918    4.682861
    109          1           0       -5.850983   -3.801301    3.725618
    110          1           0       -4.505837   -1.224064    4.142187
    111          1           0       -4.605784   -2.114558    5.686594
    112          1           0       -6.746409   -1.829357    6.017071
    113          1           0       -7.200102   -2.385369    4.640923
    114          1           0       -6.033593    0.378868    4.197696
    115          1           0       -8.567595    0.865687    5.360730
    116          1           0       -7.048342    1.556186    5.667413
    117          1           0       -7.653037    0.087722    6.570255
    118          1           0       -8.906705   -0.521407    3.652969
    119          1           0       -7.658759   -1.195907    2.571615
    120          1           0       -7.679254    1.868593    3.016271
    121          1           0       -9.076688    1.177503    2.247400
    122          1           0       -6.279447    0.402428    1.279076
    123          1           0       -6.698398    1.947058    0.939063
    124          1           0       -8.909640    0.034289    0.384899
    125          1           0       -6.855778   -0.548133   -1.672261
    126          1           0       -8.392281   -1.364741   -1.027329
    127          1           0       -6.843268   -1.330773   -0.062045
    128          1           0       -7.800491    1.258587   -2.034829
    129          1           0       -7.859339    2.468195   -0.779394
    130          1           0      -10.272922    2.745606   -1.176254
    131          1           0      -10.476413    1.173963   -0.621335
    132          1           0       -9.464830    1.707355   -3.505031
    133          1           0      -11.082988    2.141452   -3.026670
    134          1           0      -10.503660   -0.642751   -2.195717
    135          1           0      -10.559363   -0.314728   -5.089804
    136          1           0      -10.044638   -1.726910   -4.022155
    137          1           0       -8.940707   -0.326892   -4.370884
    138          1           0      -12.577908   -0.612423   -3.988049
    139          1           0      -12.700303    0.807150   -2.824567
    140          1           0      -12.692093   -0.679357   -2.281292
 ---------------------------------------------------------------------

 SCF Done:  E(RZINDO/S) =  -473.998251293     A.U. after   20 cycles

 Excitation energies and oscillator strengths:

 Excited State   1:      Singlet-A      1.2739 eV  973.25 nm  f=0.5996  <S**2>=0.000
     175 ->178         0.17986
     176 ->177         0.66615
 This state for optimization and/or second-order correction.
 Total Energy, E(CIS/TDA) =  -473.951435761
 Copying the excited state density for this state as the 1-particle RhoCI density.

 Excited State   2:      Singlet-A      1.9552 eV  634.12 nm  f=0.0224  <S**2>=0.000
     175 ->177         0.51881
     176 ->178        -0.45260

 Excited State   3:      Singlet-A      2.8861 eV  429.59 nm  f=0.0034  <S**2>=0.000
     168 ->177         0.31246
     168 ->178         0.19582
     168 ->179         0.35127
     168 ->181         0.14857
     168 ->182        -0.28032
     168 ->185        -0.22697
     171 ->177        -0.10826

 Excited State   4:      Singlet-A      3.0107 eV  411.81 nm  f=0.1145  <S**2>=0.000
     169 ->179         0.10055
     169 ->182         0.10748
     176 ->178         0.18534
     176 ->179         0.57496
     176 ->182         0.12258
     176 ->183         0.11847

 Excited State   5:      Singlet-A      3.0177 eV  410.85 nm  f=1.0081  <S**2>=0.000
     175 ->177         0.40076
     176 ->178         0.45715
     176 ->179        -0.20402
     176 ->181         0.20605

 The electronic state is 1-A.
 Alpha  occ. eigenvalues --   -1.83966  -1.80646  -1.80090  -1.72834  -1.71316
 Alpha  occ. eigenvalues --   -1.70325  -1.65346  -1.61883  -1.57811  -1.56785
 Alpha  occ. eigenvalues --   -1.55164  -1.51166  -1.49144  -1.47794  -1.46987
 Alpha  occ. eigenvalues --   -1.44289  -1.41653  -1.41307  -1.38387  -1.38176
 Alpha  occ. eigenvalues --   -1.35540  -1.32791  -1.32273  -1.30880  -1.28075
 Alpha  occ. eigenvalues --   -1.27453  -1.27049  -1.22539  -1.20288  -1.18398
 Alpha  occ. eigenvalues --   -1.16017  -1.15822  -1.14596  -1.13088  -1.12587
 Alpha  occ. eigenvalues --   -1.12260  -1.09673  -1.09366  -1.06024  -1.04558
 Alpha  occ. eigenvalues --   -1.02970  -1.01021  -0.99865  -0.98156  -0.96713
 Alpha  occ. eigenvalues --   -0.96575  -0.95707  -0.94255  -0.93961  -0.92622
 Alpha  occ. eigenvalues --   -0.91384  -0.90405  -0.89454  -0.88761  -0.86811
 Alpha  occ. eigenvalues --   -0.85600  -0.84195  -0.83802  -0.83330  -0.81126
 Alpha  occ. eigenvalues --   -0.79867  -0.78649  -0.77512  -0.77112  -0.76349
 Alpha  occ. eigenvalues --   -0.75884  -0.74502  -0.73967  -0.73649  -0.73509
 Alpha  occ. eigenvalues --   -0.72291  -0.71764  -0.71346  -0.71065  -0.70617
 Alpha  occ. eigenvalues --   -0.70347  -0.69626  -0.69240  -0.68334  -0.68016
 Alpha  occ. eigenvalues --   -0.67567  -0.67282  -0.66684  -0.66026  -0.65538
 Alpha  occ. eigenvalues --   -0.65198  -0.65170  -0.64838  -0.64279  -0.63795
 Alpha  occ. eigenvalues --   -0.63368  -0.63014  -0.62960  -0.62764  -0.62316
 Alpha  occ. eigenvalues --   -0.62013  -0.61613  -0.61294  -0.60969  -0.60430
 Alpha  occ. eigenvalues --   -0.60142  -0.59270  -0.59103  -0.58620  -0.58461
 Alpha  occ. eigenvalues --   -0.57968  -0.57596  -0.57504  -0.56920  -0.56749
 Alpha  occ. eigenvalues --   -0.56279  -0.56213  -0.55766  -0.55698  -0.55252
 Alpha  occ. eigenvalues --   -0.54718  -0.54118  -0.53426  -0.53340  -0.53116
 Alpha  occ. eigenvalues --   -0.52853  -0.52241  -0.51910  -0.51892  -0.51515
 Alpha  occ. eigenvalues --   -0.51223  -0.51003  -0.50716  -0.50471  -0.50201
 Alpha  occ. eigenvalues --   -0.49906  -0.49702  -0.49605  -0.49462  -0.49192
 Alpha  occ. eigenvalues --   -0.48801  -0.48729  -0.48302  -0.48190  -0.48121
 Alpha  occ. eigenvalues --   -0.48046  -0.47958  -0.47536  -0.47028  -0.46683
 Alpha  occ. eigenvalues --   -0.46317  -0.45979  -0.45861  -0.45730  -0.45195
 Alpha  occ. eigenvalues --   -0.45066  -0.44959  -0.44878  -0.44211  -0.43616
 Alpha  occ. eigenvalues --   -0.43251  -0.42876  -0.42500  -0.42175  -0.42119
 Alpha  occ. eigenvalues --   -0.42076  -0.41871  -0.41068  -0.39733  -0.39569
 Alpha  occ. eigenvalues --   -0.38535  -0.37629  -0.36129  -0.35314  -0.35001
 Alpha  occ. eigenvalues --   -0.33612  -0.33242  -0.32838  -0.31656  -0.27429
 Alpha  occ. eigenvalues --   -0.22153
 Alpha virt. eigenvalues --   -0.08810  -0.02626  -0.00853   0.00291   0.00768
 Alpha virt. eigenvalues --    0.00974   0.02542   0.02784   0.04428   0.04684
 Alpha virt. eigenvalues --    0.05808   0.06031   0.06735   0.07457   0.07898

 Mulliken charges:
               1
     1  Mg   0.431503
     2  C   -0.035525
     3  C   -0.076138
     4  C   -0.075486
     5  C   -0.054545
     6  N   -0.274304
     7  C    0.093944
     8  C   -0.012207
     9  C    0.004229
    10  C    0.164778
    11  C   -0.052043
    12  C   -0.022952
    13  C    0.010419
    14  C    0.452198
    15  O   -0.534117
    16  O   -0.261769
    17  N   -0.343233
    18  C    0.125615
    19  C    0.050597
    20  C   -0.060648
    21  C    0.156206
    22  C   -0.033008
    23  C    0.314884
    24  O   -0.527867
    25  C   -0.025839
    26  N   -0.278389
    27  C    0.157491
    28  C   -0.000187
    29  C    0.000537
    30  C    0.092204
    31  C   -0.063276
    32  C   -0.019802
    33  C   -0.068765
    34  N   -0.312729
    35  C    0.076691
    36  C    0.013262
    37  C   -0.061857
    38  C    0.099590
    39  C   -0.042454
    40  C    0.331561
    41  O   -0.511969
    42  C    0.060638
    43  C    0.476175
    44  O   -0.498769
    45  O   -0.285004
    46  C    0.077992
    47  C    0.117411
    48  C   -0.106628
    49  C   -0.002389
    50  C   -0.044203
    51  C   -0.023590
    52  C   -0.028304
    53  C   -0.048738
    54  C   -0.003652
    55  C   -0.057981
    56  C   -0.027218
    57  C   -0.041917
    58  C   -0.046276
    59  C   -0.026448
    60  C   -0.067833
    61  C   -0.031661
    62  C   -0.035891
    63  C   -0.023590
    64  C   -0.013777
    65  C   -0.065330
    66  C   -0.063940
    67  H    0.022410
    68  H    0.019401
    69  H    0.023442
    70  H    0.038031
    71  H    0.038452
    72  H    0.024109
    73  H    0.025901
    74  H    0.028430
    75  H    0.021549
    76  H    0.042619
    77  H    0.043934
    78  H    0.041371
    79  H    0.046617
    80  H    0.019417
    81  H    0.047850
    82  H    0.024417
    83  H    0.049215
    84  H    0.047998
    85  H    0.024759
    86  H    0.038567
    87  H    0.022106
    88  H    0.024029
    89  H    0.020067
    90  H    0.032534
    91  H    0.023355
    92  H    0.009204
    93  H    0.030600
    94  H    0.009272
    95  H    0.037333
    96  H    0.040643
    97  H    0.021991
    98  H    0.060970
    99  H    0.031573
   100  H    0.046501
   101  H    0.045902
   102  H    0.056426
   103  H    0.054025
   104  H    0.026126
   105  H    0.024530
   106  H    0.022389
   107  H    0.034459
   108  H    0.015798
   109  H    0.025429
   110  H    0.027886
   111  H    0.016862
   112  H    0.014948
   113  H    0.013192
   114  H    0.027304
   115  H    0.007611
   116  H    0.015395
   117  H    0.028641
   118  H    0.018137
   119  H    0.031884
   120  H    0.019390
   121  H    0.016786
   122  H    0.009301
   123  H    0.017046
   124  H    0.016973
   125  H    0.028277
   126  H    0.028188
   127  H    0.019939
   128  H    0.025141
   129  H    0.019120
   130  H    0.011827
   131  H    0.024471
   132  H    0.021085
   133  H    0.011963
   134  H    0.015439
   135  H    0.021920
   136  H    0.023446
   137  H    0.022211
   138  H    0.022133
   139  H    0.015037
   140  H    0.009016
 Sum of Mulliken charges =  -0.00000

 Dipole moment (field-independent basis, Debye):
    X=             -2.7446    Y=              6.2180    Z=              1.5097  Tot=              6.9625
 N-N= 4.492825486771D+03 E-N= 0.000000000000D+00  KE=-9.659128406217D+03
 Leave Link  601 at Wed May  4 06:11:04 2022, MaxMem=  6710886400 cpu:               0.8 elap:               0.0
 (Enter /sw/apps/gaussian-16.0/g16/l9999.exe)
 1\1\GINC-BP1-COMPUTE122\SP\RZINDO CIS\STO-3G\C55H74Mg1N4O6\OF15641\04-
 May-2022\0\\#p ZINDO=(nstates=5)\\step_1401_chromophore_2 ZINDO\\0,1\M
 g,0,3.036,1.301,44.226\C,0,5.896,3.305,44.299\C,0,1.634,3.581,42.087\C
 ,0,0.594,-0.882,43.52\C,0,5.015,-1.334,45.516\N,0,3.712,3.146,43.239\C
 ,0,4.911,3.815,43.471\C,0,4.996,5.216,42.821\C,0,3.489,5.357,42.408\C,
 0,2.908,3.936,42.538\C,0,2.691,6.399,43.268\C,0,5.883,5.468,41.481\C,0
 ,6.049,4.262,40.557\C,0,5.437,4.422,39.09\O,0,4.531,5.256,38.766\O,0,6

 Normal termination of Gaussian 16 at Wed May  4 06:11:04 2022.
