 Gaussian 16, Revision A.03,
 Gaussian 16:  ES64L-G16RevA.03 25-Dec-2016

 ------------------------------
 #p blyp/Def2SVP td=(nstates=5)
 ------------------------------

 --------------------------------------------------
 step_151_chromophore_21 TDDFT with blyp functional
 --------------------------------------------------
 Symbolic Z-matrix:
 Charge =  0 Multiplicity = 1

                         Standard orientation:
 ---------------------------------------------------------------------
 Center     Atomic      Atomic             Coordinates (Angstroms)
 Number     Number       Type             X           Y           Z
 ---------------------------------------------------------------------
      1         12           0        4.770910    0.982277    0.153621
      2          6           0        4.139285   -2.387085    0.234634
      3          6           0        1.513409    1.438159   -1.157748
      4          6           0        5.159500    4.370150   -0.193628
      5          6           0        8.129272    0.456232    0.217670
      6          7           0        2.992382   -0.294794   -0.281953
      7          6           0        2.936270   -1.644723   -0.009993
      8          6           0        1.486829   -2.135414   -0.152632
      9          6           0        0.804871   -1.018618   -0.976324
     10          6           0        1.787788    0.152481   -0.792361
     11          6           0        0.524506   -1.210015   -2.459472
     12          6           0        0.847443   -2.566905    1.167797
     13          6           0        0.154712   -3.960961    1.124933
     14          6           0       -0.706490   -4.533528    0.115631
     15          8           0       -0.384331   -5.496804   -0.607195
     16          8           0       -1.881497   -3.790759    0.180340
     17          7           0        3.408581    2.629335   -0.271962
     18          6           0        2.203063    2.551849   -0.836325
     19          6           0        1.664943    3.935954   -1.013023
     20          6           0        2.744025    4.805222   -0.703822
     21          6           0        3.881672    3.916821   -0.397966
     22          6           0        0.322586    4.257201   -1.511935
     23          6           0        2.779963    6.296484   -0.824686
     24          8           0        3.798673    6.949570   -0.518544
     25          6           0        1.571831    7.070315   -1.306374
     26          7           0        6.351477    2.186357   -0.076631
     27          6           0        6.315798    3.579011   -0.050358
     28          6           0        7.665893    4.216885    0.214680
     29          6           0        8.622362    2.994310    0.301647
     30          6           0        7.650843    1.764981    0.194627
     31          6           0        8.184450    5.269154   -0.778726
     32          6           0        9.531232    2.928504    1.530485
     33          6           0        8.904584    2.596633    2.901870
     34          7           0        5.986137   -0.639474    0.115192
     35          6           0        7.349255   -0.751871    0.210013
     36          6           0        7.710008   -2.151983    0.172013
     37          6           0        6.448767   -2.843936    0.294926
     38          6           0        5.453796   -1.909841    0.278173
     39          6           0        9.045119   -2.719601    0.145102
     40          6           0        5.793118   -4.161925    0.337407
     41          8           0        6.303074   -5.269782    0.278802
     42          6           0        4.282343   -3.825288    0.583777
     43          6           0        3.489015   -4.859207   -0.218650
     44          8           0        3.183885   -4.863326   -1.382453
     45          8           0        3.296217   -5.924479    0.661738
     46          6           0        2.610279   -7.135002    0.253421
     47          6           0       -2.991259   -4.402307   -0.597817
     48          6           0       -4.113755   -3.288569   -0.695302
     49          6           0       -5.457650   -3.461369   -0.485007
     50          6           0       -6.163471   -4.756798    0.077577
     51          6           0       -6.302747   -2.258842   -0.730178
     52          6           0       -7.854537   -2.221494   -0.705414
     53          6           0       -8.509722   -1.429891   -1.771081
     54          6           0       -9.558718   -0.453948   -1.226232
     55          6           0      -10.878071   -1.276604   -0.964927
     56          6           0       -9.775140    0.677380   -2.283248
     57          6           0       -9.100248    2.007030   -1.912625
     58          6           0      -10.136239    3.096043   -1.468112
     59          6           0      -10.944514    2.780036   -0.071684
     60          6           0      -12.401794    2.359536   -0.437271
     61          6           0      -10.789921    3.815743    1.090671
     62          6           0       -9.488561    3.653088    1.964106
     63          6           0       -9.636233    2.596527    3.058884
     64          6           0       -8.554267    1.503830    3.179960
     65          6           0       -9.203897    0.207200    2.793830
     66          6           0       -7.816871    1.395696    4.560749
     67          1           0        0.515156    1.493507   -1.596022
     68          1           0        5.185393    5.425983    0.083998
     69          1           0        9.218708    0.389478    0.250396
     70          1           0        1.563984   -3.010920   -0.797332
     71          1           0       -0.153689   -0.759559   -0.526237
     72          1           0       -0.105074   -2.085653   -2.619228
     73          1           0        1.405993   -1.473595   -3.044812
     74          1           0        0.066580   -0.298371   -2.841653
     75          1           0       -0.001950   -1.962502    1.486403
     76          1           0        1.634422   -2.512017    1.920148
     77          1           0       -0.383047   -4.130271    2.057774
     78          1           0        1.020904   -4.588216    1.336260
     79          1           0       -0.033193    4.975350   -0.773847
     80          1           0       -0.380091    3.440526   -1.346666
     81          1           0        0.253029    4.623223   -2.536759
     82          1           0        0.692215    6.924628   -0.678381
     83          1           0        1.271352    6.741952   -2.301090
     84          1           0        1.835750    8.123228   -1.397160
     85          1           0        7.589512    4.627992    1.221035
     86          1           0        9.284657    2.922642   -0.560957
     87          1           0        9.239746    5.060153   -0.955089
     88          1           0        8.116000    6.269008   -0.350319
     89          1           0        7.556089    5.149219   -1.661569
     90          1           0       10.096236    3.860128    1.521689
     91          1           0       10.333153    2.190834    1.475708
     92          1           0        9.319310    3.257297    3.663129
     93          1           0        9.096634    1.572374    3.220572
     94          1           0        7.814439    2.605173    2.903316
     95          1           0        8.959433   -3.658430   -0.401114
     96          1           0        9.233641   -2.875080    1.207552
     97          1           0        9.852276   -2.080746   -0.215106
     98          1           0        4.010439   -3.984456    1.627291
     99          1           0        2.210246   -7.659144    1.121841
    100          1           0        3.287470   -7.805078   -0.275332
    101          1           0        1.810639   -6.948501   -0.463547
    102          1           0       -3.189616   -5.321309   -0.046154
    103          1           0       -2.779350   -4.684822   -1.628874
    104          1           0       -3.740376   -2.356084   -1.118906
    105          1           0       -6.949782   -5.154465   -0.564795
    106          1           0       -6.596859   -4.553943    1.056683
    107          1           0       -5.443821   -5.571434    0.159587
    108          1           0       -6.067802   -2.021872   -1.767547
    109          1           0       -5.890113   -1.459139   -0.114582
    110          1           0       -8.054450   -1.856797    0.302921
    111          1           0       -8.301833   -3.214403   -0.727762
    112          1           0       -8.896836   -2.127567   -2.513609
    113          1           0       -7.784537   -0.874460   -2.365533
    114          1           0       -9.225285   -0.021557   -0.283073
    115          1           0      -11.709379   -0.969137   -1.600500
    116          1           0      -11.084200   -1.207413    0.102704
    117          1           0      -10.709998   -2.293516   -1.318106
    118          1           0      -10.845864    0.762762   -2.469912
    119          1           0       -9.361232    0.348454   -3.236363
    120          1           0       -8.597877    2.439869   -2.777784
    121          1           0       -8.357637    1.812608   -1.138931
    122          1           0      -10.809695    3.360845   -2.282627
    123          1           0       -9.589760    4.037665   -1.419056
    124          1           0      -10.450231    1.938285    0.414982
    125          1           0      -12.929328    2.122589    0.486992
    126          1           0      -12.317580    1.387221   -0.922967
    127          1           0      -12.940750    3.062491   -1.071968
    128          1           0      -11.564315    3.673338    1.843611
    129          1           0      -10.905706    4.832157    0.713393
    130          1           0       -9.339984    4.639660    2.402715
    131          1           0       -8.684470    3.262827    1.340770
    132          1           0      -10.638225    2.167713    3.047033
    133          1           0       -9.766252    3.140527    3.994950
    134          1           0       -7.736982    1.523890    2.458926
    135          1           0       -8.461906   -0.476279    2.380603
    136          1           0      -10.027372    0.298059    2.086329
    137          1           0       -9.661674   -0.309845    3.637589
    138          1           0       -7.893406    0.346543    4.845577
    139          1           0       -8.245521    2.155710    5.214130
    140          1           0       -6.763824    1.587656    4.357221
 ---------------------------------------------------------------------

 SCF Done:  E(RB-LYP) =  -3007.37074597     A.U. after   21 cycles

 Excitation energies and oscillator strengths:

 Excited State   1:      Singlet-A      1.7832 eV  695.27 nm  f=0.3004  <S**2>=0.000
     245 -> 248        0.17843
     246 -> 247        0.69005
     246 <- 247       -0.15242
 This state for optimization and/or second-order correction.
 Total Energy, E(TD-HF/TD-DFT) =  -3007.30521275
 Copying the excited state density for this state as the 1-particle RhoCI density.

 Excited State   2:      Singlet-A      1.9446 eV  637.59 nm  f=0.0407  <S**2>=0.000
     243 -> 247        0.31350
     245 -> 247        0.59278
     246 -> 248       -0.17995

 Excited State   3:      Singlet-A      2.0510 eV  604.51 nm  f=0.0007  <S**2>=0.000
     244 -> 247        0.70374

 Excited State   4:      Singlet-A      2.1233 eV  583.94 nm  f=0.0140  <S**2>=0.000
     243 -> 247        0.62570
     245 -> 247       -0.25749
     246 -> 248        0.17268

 Excited State   5:      Singlet-A      2.3963 eV  517.39 nm  f=0.0051  <S**2>=0.000
     241 -> 247       -0.11873
     242 -> 247        0.67917

 The electronic state is 1-A.
 Alpha  occ. eigenvalues --  -46.25951 -18.82856 -18.80525 -18.77759 -18.76532
 Alpha  occ. eigenvalues --  -18.75619 -18.75515 -14.02979 -14.02901 -14.00729
 Alpha  occ. eigenvalues --  -13.99961 -10.04519 -10.03343  -9.99991  -9.99553
 Alpha  occ. eigenvalues --   -9.98641  -9.96523  -9.96455  -9.96119  -9.95897
 Alpha  occ. eigenvalues --   -9.95850  -9.95332  -9.95177  -9.95061  -9.94241
 Alpha  occ. eigenvalues --   -9.93874  -9.93753  -9.93721  -9.93719  -9.93648
 Alpha  occ. eigenvalues --   -9.93547  -9.93405  -9.93373  -9.93268  -9.93262
 Alpha  occ. eigenvalues --   -9.93240  -9.93147  -9.92743  -9.92700  -9.92550
 Alpha  occ. eigenvalues --   -9.92511  -9.92462  -9.92448  -9.92190  -9.92165
 Alpha  occ. eigenvalues --   -9.92149  -9.92123  -9.92118  -9.91941  -9.91940
 Alpha  occ. eigenvalues --   -9.91833  -9.91751  -9.91739  -9.91690  -9.91575
 Alpha  occ. eigenvalues --   -9.91574  -9.91441  -9.91335  -9.91194  -9.91190
 Alpha  occ. eigenvalues --   -9.91186  -9.91163  -9.91114  -9.90919  -9.90886
 Alpha  occ. eigenvalues --   -9.90519  -2.90788  -1.71197  -1.70659  -1.70516
 Alpha  occ. eigenvalues --   -0.97106  -0.96383  -0.91102  -0.90442  -0.89940
 Alpha  occ. eigenvalues --   -0.89476  -0.86050  -0.85298  -0.84733  -0.84020
 Alpha  occ. eigenvalues --   -0.75838  -0.74069  -0.73092  -0.72971  -0.72340
 Alpha  occ. eigenvalues --   -0.72194  -0.72013  -0.71088  -0.70787  -0.70609
 Alpha  occ. eigenvalues --   -0.69771  -0.69593  -0.68335  -0.67404  -0.67108
 Alpha  occ. eigenvalues --   -0.66410  -0.65755  -0.65267  -0.64952  -0.64508
 Alpha  occ. eigenvalues --   -0.63941  -0.62766  -0.62559  -0.61452  -0.61286
 Alpha  occ. eigenvalues --   -0.60657  -0.60032  -0.59623  -0.59584  -0.59357
 Alpha  occ. eigenvalues --   -0.58221  -0.57367  -0.56714  -0.56133  -0.55061
 Alpha  occ. eigenvalues --   -0.53759  -0.53379  -0.52808  -0.52454  -0.51242
 Alpha  occ. eigenvalues --   -0.51157  -0.50920  -0.50340  -0.50117  -0.49961
 Alpha  occ. eigenvalues --   -0.49886  -0.49645  -0.48897  -0.47504  -0.46975
 Alpha  occ. eigenvalues --   -0.46423  -0.45707  -0.45457  -0.44859  -0.43756
 Alpha  occ. eigenvalues --   -0.43585  -0.43052  -0.42705  -0.42693  -0.42539
 Alpha  occ. eigenvalues --   -0.42075  -0.41615  -0.41514  -0.41292  -0.40988
 Alpha  occ. eigenvalues --   -0.40966  -0.40608  -0.40438  -0.40345  -0.40034
 Alpha  occ. eigenvalues --   -0.39871  -0.39597  -0.39392  -0.39231  -0.39061
 Alpha  occ. eigenvalues --   -0.38943  -0.38839  -0.38665  -0.38319  -0.38199
 Alpha  occ. eigenvalues --   -0.38175  -0.37899  -0.37566  -0.37450  -0.37241
 Alpha  occ. eigenvalues --   -0.37010  -0.36945  -0.36816  -0.36662  -0.36385
 Alpha  occ. eigenvalues --   -0.36315  -0.36166  -0.36127  -0.35823  -0.35665
 Alpha  occ. eigenvalues --   -0.35550  -0.35286  -0.35176  -0.35125  -0.35009
 Alpha  occ. eigenvalues --   -0.34701  -0.34614  -0.34243  -0.34063  -0.34007
 Alpha  occ. eigenvalues --   -0.33923  -0.33742  -0.33530  -0.33370  -0.33290
 Alpha  occ. eigenvalues --   -0.33164  -0.32977  -0.32774  -0.32633  -0.32398
 Alpha  occ. eigenvalues --   -0.32126  -0.32089  -0.31730  -0.31565  -0.31497
 Alpha  occ. eigenvalues --   -0.31296  -0.31173  -0.30979  -0.30600  -0.30455
 Alpha  occ. eigenvalues --   -0.30322  -0.29978  -0.29846  -0.29788  -0.29603
 Alpha  occ. eigenvalues --   -0.29479  -0.29189  -0.29113  -0.29010  -0.28724
 Alpha  occ. eigenvalues --   -0.28673  -0.28644  -0.28228  -0.28087  -0.27735
 Alpha  occ. eigenvalues --   -0.27480  -0.27322  -0.27045  -0.26932  -0.26269
 Alpha  occ. eigenvalues --   -0.26231  -0.25863  -0.25822  -0.25782  -0.25470
 Alpha  occ. eigenvalues --   -0.25162  -0.24952  -0.24399  -0.23872  -0.23768
 Alpha  occ. eigenvalues --   -0.22990  -0.22255  -0.22051  -0.21272  -0.20496
 Alpha  occ. eigenvalues --   -0.20110  -0.19482  -0.18790  -0.18681  -0.17055
 Alpha  occ. eigenvalues --   -0.15428
 Alpha virt. eigenvalues --   -0.11246  -0.06948  -0.06025  -0.04602  -0.04187
 Alpha virt. eigenvalues --   -0.02856  -0.02538  -0.01725  -0.01353   0.00079
 Alpha virt. eigenvalues --    0.00961   0.01370   0.02006   0.02431   0.02581

 Mulliken charges:
               1
     1  Mg   0.690336
     2  C    0.064047
     3  C   -0.106163
     4  C   -0.093106
     5  C   -0.078865
     6  N   -0.217027
     7  C   -0.092899
     8  C    0.032618
     9  C    0.020673
    10  C   -0.013330
    11  C    0.134384
    12  C    0.177547
    13  C    0.088463
    14  C    0.123614
    15  O   -0.195402
    16  O   -0.298780
    17  N   -0.231711
    18  C    0.197498
    19  C   -0.176080
    20  C    0.055999
    21  C    0.113556
    22  C    0.198028
    23  C   -0.079649
    24  O   -0.188594
    25  C    0.139108
    26  N   -0.296087
    27  C    0.036002
    28  C    0.042789
    29  C    0.040317
    30  C    0.038876
    31  C    0.154213
    32  C    0.058777
    33  C    0.069587
    34  N   -0.319885
    35  C    0.148571
    36  C   -0.187224
    37  C    0.083015
    38  C    0.081732
    39  C    0.176747
    40  C   -0.056295
    41  O   -0.127579
    42  C    0.014014
    43  C    0.110978
    44  O   -0.144831
    45  O   -0.296877
    46  C    0.216569
    47  C    0.281454
    48  C   -0.092552
    49  C   -0.119532
    50  C    0.140856
    51  C    0.055345
    52  C    0.114159
    53  C    0.102298
    54  C   -0.132962
    55  C    0.116314
    56  C    0.140119
    57  C    0.077503
    58  C    0.087169
    59  C   -0.050779
    60  C    0.111781
    61  C    0.080150
    62  C    0.088435
    63  C    0.104032
    64  C   -0.100153
    65  C    0.068719
    66  C    0.133323
    67  H   -0.068397
    68  H   -0.021651
    69  H   -0.069190
    70  H   -0.003366
    71  H   -0.039668
    72  H   -0.006785
    73  H   -0.001652
    74  H   -0.008655
    75  H   -0.018463
    76  H   -0.020693
    77  H   -0.014275
    78  H   -0.021832
    79  H   -0.012066
    80  H   -0.025028
    81  H    0.021248
    82  H    0.007042
    83  H   -0.003792
    84  H   -0.007372
    85  H   -0.020928
    86  H   -0.025480
    87  H   -0.009120
    88  H   -0.003553
    89  H    0.004947
    90  H   -0.029295
    91  H   -0.025055
    92  H   -0.006504
    93  H   -0.013087
    94  H   -0.007914
    95  H    0.020359
    96  H    0.006539
    97  H   -0.011918
    98  H    0.016118
    99  H    0.007217
   100  H    0.005411
   101  H    0.022916
   102  H   -0.002956
   103  H    0.016861
   104  H   -0.030108
   105  H    0.006332
   106  H    0.006688
   107  H   -0.023196
   108  H   -0.012096
   109  H   -0.002875
   110  H   -0.030634
   111  H   -0.041061
   112  H   -0.034421
   113  H   -0.039697
   114  H   -0.022230
   115  H   -0.012527
   116  H   -0.000113
   117  H   -0.028280
   118  H   -0.043165
   119  H   -0.045469
   120  H   -0.036621
   121  H   -0.025278
   122  H   -0.036398
   123  H   -0.049293
   124  H   -0.039872
   125  H   -0.028696
   126  H   -0.024510
   127  H   -0.000668
   128  H   -0.044118
   129  H   -0.037895
   130  H   -0.025778
   131  H   -0.023588
   132  H   -0.041197
   133  H   -0.052807
   134  H   -0.033605
   135  H   -0.017509
   136  H   -0.001751
   137  H   -0.026882
   138  H   -0.020105
   139  H   -0.005485
   140  H   -0.018404
 Sum of Mulliken charges =  -0.00000

 Dipole moment (field-independent basis, Debye):
    X=             -5.1074    Y=              2.8077    Z=              2.2021  Tot=              6.2304
 Quadrupole moment (field-independent basis, Debye-Ang):
   XX=           -379.8387   YY=           -440.5196   ZZ=           -402.0558
   XY=             28.2650   XZ=             14.0881   YZ=            -10.3303

 Normal termination of Gaussian 16 at Thu Apr 28 10:39:01 2022.
