 Gaussian 16, Revision A.03,
 Gaussian 16:  ES64L-G16RevA.03 25-Dec-2016

 -----------------------------------
 #p cam-b3lyp/Def2SVP td=(nstates=5)
 -----------------------------------

 -------------------------------------------------------
 step_151_chromophore_21 TDDFT with cam-b3lyp functional
 -------------------------------------------------------
 Symbolic Z-matrix:
 Charge =  0 Multiplicity = 1

                         Standard orientation:
 ---------------------------------------------------------------------
 Center     Atomic      Atomic             Coordinates (Angstroms)
 Number     Number       Type             X           Y           Z
 ---------------------------------------------------------------------
      1         12           0        4.770910    0.982277    0.153621
      2          6           0        4.139285   -2.387085    0.234634
      3          6           0        1.513409    1.438159   -1.157748
      4          6           0        5.159500    4.370150   -0.193628
      5          6           0        8.129272    0.456232    0.217670
      6          7           0        2.992382   -0.294794   -0.281953
      7          6           0        2.936270   -1.644723   -0.009993
      8          6           0        1.486829   -2.135414   -0.152632
      9          6           0        0.804871   -1.018618   -0.976324
     10          6           0        1.787788    0.152481   -0.792361
     11          6           0        0.524506   -1.210015   -2.459472
     12          6           0        0.847443   -2.566905    1.167797
     13          6           0        0.154712   -3.960961    1.124933
     14          6           0       -0.706490   -4.533528    0.115631
     15          8           0       -0.384331   -5.496804   -0.607195
     16          8           0       -1.881497   -3.790759    0.180340
     17          7           0        3.408581    2.629335   -0.271962
     18          6           0        2.203063    2.551849   -0.836325
     19          6           0        1.664943    3.935954   -1.013023
     20          6           0        2.744025    4.805222   -0.703822
     21          6           0        3.881672    3.916821   -0.397966
     22          6           0        0.322586    4.257201   -1.511935
     23          6           0        2.779963    6.296484   -0.824686
     24          8           0        3.798673    6.949570   -0.518544
     25          6           0        1.571831    7.070315   -1.306374
     26          7           0        6.351477    2.186357   -0.076631
     27          6           0        6.315798    3.579011   -0.050358
     28          6           0        7.665893    4.216885    0.214680
     29          6           0        8.622362    2.994310    0.301647
     30          6           0        7.650843    1.764981    0.194627
     31          6           0        8.184450    5.269154   -0.778726
     32          6           0        9.531232    2.928504    1.530485
     33          6           0        8.904584    2.596633    2.901870
     34          7           0        5.986137   -0.639474    0.115192
     35          6           0        7.349255   -0.751871    0.210013
     36          6           0        7.710008   -2.151983    0.172013
     37          6           0        6.448767   -2.843936    0.294926
     38          6           0        5.453796   -1.909841    0.278173
     39          6           0        9.045119   -2.719601    0.145102
     40          6           0        5.793118   -4.161925    0.337407
     41          8           0        6.303074   -5.269782    0.278802
     42          6           0        4.282343   -3.825288    0.583777
     43          6           0        3.489015   -4.859207   -0.218650
     44          8           0        3.183885   -4.863326   -1.382453
     45          8           0        3.296217   -5.924479    0.661738
     46          6           0        2.610279   -7.135002    0.253421
     47          6           0       -2.991259   -4.402307   -0.597817
     48          6           0       -4.113755   -3.288569   -0.695302
     49          6           0       -5.457650   -3.461369   -0.485007
     50          6           0       -6.163471   -4.756798    0.077577
     51          6           0       -6.302747   -2.258842   -0.730178
     52          6           0       -7.854537   -2.221494   -0.705414
     53          6           0       -8.509722   -1.429891   -1.771081
     54          6           0       -9.558718   -0.453948   -1.226232
     55          6           0      -10.878071   -1.276604   -0.964927
     56          6           0       -9.775140    0.677380   -2.283248
     57          6           0       -9.100248    2.007030   -1.912625
     58          6           0      -10.136239    3.096043   -1.468112
     59          6           0      -10.944514    2.780036   -0.071684
     60          6           0      -12.401794    2.359536   -0.437271
     61          6           0      -10.789921    3.815743    1.090671
     62          6           0       -9.488561    3.653088    1.964106
     63          6           0       -9.636233    2.596527    3.058884
     64          6           0       -8.554267    1.503830    3.179960
     65          6           0       -9.203897    0.207200    2.793830
     66          6           0       -7.816871    1.395696    4.560749
     67          1           0        0.515156    1.493507   -1.596022
     68          1           0        5.185393    5.425983    0.083998
     69          1           0        9.218708    0.389478    0.250396
     70          1           0        1.563984   -3.010920   -0.797332
     71          1           0       -0.153689   -0.759559   -0.526237
     72          1           0       -0.105074   -2.085653   -2.619228
     73          1           0        1.405993   -1.473595   -3.044812
     74          1           0        0.066580   -0.298371   -2.841653
     75          1           0       -0.001950   -1.962502    1.486403
     76          1           0        1.634422   -2.512017    1.920148
     77          1           0       -0.383047   -4.130271    2.057774
     78          1           0        1.020904   -4.588216    1.336260
     79          1           0       -0.033193    4.975350   -0.773847
     80          1           0       -0.380091    3.440526   -1.346666
     81          1           0        0.253029    4.623223   -2.536759
     82          1           0        0.692215    6.924628   -0.678381
     83          1           0        1.271352    6.741952   -2.301090
     84          1           0        1.835750    8.123228   -1.397160
     85          1           0        7.589512    4.627992    1.221035
     86          1           0        9.284657    2.922642   -0.560957
     87          1           0        9.239746    5.060153   -0.955089
     88          1           0        8.116000    6.269008   -0.350319
     89          1           0        7.556089    5.149219   -1.661569
     90          1           0       10.096236    3.860128    1.521689
     91          1           0       10.333153    2.190834    1.475708
     92          1           0        9.319310    3.257297    3.663129
     93          1           0        9.096634    1.572374    3.220572
     94          1           0        7.814439    2.605173    2.903316
     95          1           0        8.959433   -3.658430   -0.401114
     96          1           0        9.233641   -2.875080    1.207552
     97          1           0        9.852276   -2.080746   -0.215106
     98          1           0        4.010439   -3.984456    1.627291
     99          1           0        2.210246   -7.659144    1.121841
    100          1           0        3.287470   -7.805078   -0.275332
    101          1           0        1.810639   -6.948501   -0.463547
    102          1           0       -3.189616   -5.321309   -0.046154
    103          1           0       -2.779350   -4.684822   -1.628874
    104          1           0       -3.740376   -2.356084   -1.118906
    105          1           0       -6.949782   -5.154465   -0.564795
    106          1           0       -6.596859   -4.553943    1.056683
    107          1           0       -5.443821   -5.571434    0.159587
    108          1           0       -6.067802   -2.021872   -1.767547
    109          1           0       -5.890113   -1.459139   -0.114582
    110          1           0       -8.054450   -1.856797    0.302921
    111          1           0       -8.301833   -3.214403   -0.727762
    112          1           0       -8.896836   -2.127567   -2.513609
    113          1           0       -7.784537   -0.874460   -2.365533
    114          1           0       -9.225285   -0.021557   -0.283073
    115          1           0      -11.709379   -0.969137   -1.600500
    116          1           0      -11.084200   -1.207413    0.102704
    117          1           0      -10.709998   -2.293516   -1.318106
    118          1           0      -10.845864    0.762762   -2.469912
    119          1           0       -9.361232    0.348454   -3.236363
    120          1           0       -8.597877    2.439869   -2.777784
    121          1           0       -8.357637    1.812608   -1.138931
    122          1           0      -10.809695    3.360845   -2.282627
    123          1           0       -9.589760    4.037665   -1.419056
    124          1           0      -10.450231    1.938285    0.414982
    125          1           0      -12.929328    2.122589    0.486992
    126          1           0      -12.317580    1.387221   -0.922967
    127          1           0      -12.940750    3.062491   -1.071968
    128          1           0      -11.564315    3.673338    1.843611
    129          1           0      -10.905706    4.832157    0.713393
    130          1           0       -9.339984    4.639660    2.402715
    131          1           0       -8.684470    3.262827    1.340770
    132          1           0      -10.638225    2.167713    3.047033
    133          1           0       -9.766252    3.140527    3.994950
    134          1           0       -7.736982    1.523890    2.458926
    135          1           0       -8.461906   -0.476279    2.380603
    136          1           0      -10.027372    0.298059    2.086329
    137          1           0       -9.661674   -0.309845    3.637589
    138          1           0       -7.893406    0.346543    4.845577
    139          1           0       -8.245521    2.155710    5.214130
    140          1           0       -6.763824    1.587656    4.357221
 ---------------------------------------------------------------------

 SCF Done:  E(RCAM-B3LYP) =  -3007.16613339     A.U. after   17 cycles

 Excitation energies and oscillator strengths:

 Excited State   1:      Singlet-A      1.7244 eV  719.00 nm  f=0.3730  <S**2>=0.000
     245 -> 248        0.16986
     246 -> 247        0.68678
     245 <- 248        0.10119
 This state for optimization and/or second-order correction.
 Total Energy, E(TD-HF/TD-DFT) =  -3007.10276287
 Copying the excited state density for this state as the 1-particle RhoCI density.

 Excited State   2:      Singlet-A      2.2575 eV  549.22 nm  f=0.0821  <S**2>=0.000
     245 -> 247        0.62612
     246 -> 248       -0.30480

 Excited State   3:      Singlet-A      3.3038 eV  375.28 nm  f=0.0018  <S**2>=0.000
     242 -> 247        0.14287
     244 -> 247        0.67340

 Excited State   4:      Singlet-A      3.4169 eV  362.86 nm  f=0.3955  <S**2>=0.000
     239 -> 247       -0.11450
     241 -> 247        0.26278
     242 -> 247       -0.20189
     245 -> 247        0.23077
     246 -> 248        0.55088

 Excited State   5:      Singlet-A      3.5978 eV  344.62 nm  f=0.2703  <S**2>=0.000
     240 -> 247       -0.18856
     241 -> 247       -0.28284
     242 -> 247        0.47505
     244 -> 247       -0.15120
     245 -> 247        0.20438
     246 -> 248        0.24689

 The electronic state is 1-A.
 Alpha  occ. eigenvalues --  -46.87401 -19.25787 -19.23224 -19.20742 -19.19513
 Alpha  occ. eigenvalues --  -19.19222 -19.18420 -14.41862 -14.41740 -14.39399
 Alpha  occ. eigenvalues --  -14.37993 -10.39886 -10.38704 -10.35720 -10.34535
 Alpha  occ. eigenvalues --  -10.32860 -10.31448 -10.30698 -10.30656 -10.30375
 Alpha  occ. eigenvalues --  -10.30203 -10.30070 -10.29664 -10.29283 -10.28644
 Alpha  occ. eigenvalues --  -10.28553 -10.27880 -10.27723 -10.27699 -10.27609
 Alpha  occ. eigenvalues --  -10.27525 -10.27425 -10.27392 -10.27344 -10.27244
 Alpha  occ. eigenvalues --  -10.27191 -10.27015 -10.26888 -10.26841 -10.26611
 Alpha  occ. eigenvalues --  -10.26597 -10.26302 -10.26234 -10.26228 -10.26156
 Alpha  occ. eigenvalues --  -10.25984 -10.25913 -10.25886 -10.25884 -10.25687
 Alpha  occ. eigenvalues --  -10.25564 -10.25477 -10.25316 -10.25289 -10.25265
 Alpha  occ. eigenvalues --  -10.25179 -10.25105 -10.25077 -10.24944 -10.24890
 Alpha  occ. eigenvalues --  -10.24881 -10.24878 -10.24798 -10.24628 -10.24572
 Alpha  occ. eigenvalues --  -10.24069  -3.16149  -1.91030  -1.90604  -1.90458
 Alpha  occ. eigenvalues --   -1.15525  -1.14787  -1.09271  -1.09132  -1.07801
 Alpha  occ. eigenvalues --   -1.07224  -1.04067  -1.02740  -1.02302  -1.01398
 Alpha  occ. eigenvalues --   -0.92733  -0.91006  -0.89906  -0.89764  -0.89289
 Alpha  occ. eigenvalues --   -0.88966  -0.88672  -0.88308  -0.87417  -0.87220
 Alpha  occ. eigenvalues --   -0.86086  -0.85679  -0.84670  -0.83652  -0.83063
 Alpha  occ. eigenvalues --   -0.82519  -0.82182  -0.81396  -0.80749  -0.80337
 Alpha  occ. eigenvalues --   -0.79669  -0.78855  -0.78104  -0.76907  -0.76651
 Alpha  occ. eigenvalues --   -0.76062  -0.75287  -0.74975  -0.74835  -0.74669
 Alpha  occ. eigenvalues --   -0.73303  -0.72200  -0.71662  -0.71045  -0.69652
 Alpha  occ. eigenvalues --   -0.68421  -0.68199  -0.67247  -0.66881  -0.65455
 Alpha  occ. eigenvalues --   -0.65331  -0.65110  -0.64445  -0.63983  -0.63976
 Alpha  occ. eigenvalues --   -0.63733  -0.63489  -0.62837  -0.61025  -0.60529
 Alpha  occ. eigenvalues --   -0.60334  -0.59193  -0.58875  -0.58207  -0.57131
 Alpha  occ. eigenvalues --   -0.56859  -0.56368  -0.56091  -0.55777  -0.55537
 Alpha  occ. eigenvalues --   -0.55159  -0.54859  -0.54444  -0.54198  -0.53953
 Alpha  occ. eigenvalues --   -0.53641  -0.53626  -0.53298  -0.53184  -0.52867
 Alpha  occ. eigenvalues --   -0.52744  -0.52497  -0.52106  -0.51789  -0.51686
 Alpha  occ. eigenvalues --   -0.51423  -0.51214  -0.51149  -0.50820  -0.50684
 Alpha  occ. eigenvalues --   -0.50497  -0.50324  -0.50002  -0.49756  -0.49706
 Alpha  occ. eigenvalues --   -0.49482  -0.49302  -0.49048  -0.48978  -0.48916
 Alpha  occ. eigenvalues --   -0.48602  -0.48485  -0.48350  -0.48143  -0.47995
 Alpha  occ. eigenvalues --   -0.47622  -0.47507  -0.47276  -0.47155  -0.47015
 Alpha  occ. eigenvalues --   -0.46758  -0.46552  -0.45906  -0.45828  -0.45784
 Alpha  occ. eigenvalues --   -0.45731  -0.45562  -0.45269  -0.45103  -0.44914
 Alpha  occ. eigenvalues --   -0.44876  -0.44656  -0.44432  -0.44370  -0.44141
 Alpha  occ. eigenvalues --   -0.44072  -0.43934  -0.43318  -0.43201  -0.42990
 Alpha  occ. eigenvalues --   -0.42888  -0.42681  -0.42391  -0.42184  -0.41859
 Alpha  occ. eigenvalues --   -0.41612  -0.41478  -0.41117  -0.40988  -0.40906
 Alpha  occ. eigenvalues --   -0.40757  -0.40403  -0.40175  -0.40116  -0.39893
 Alpha  occ. eigenvalues --   -0.39766  -0.39706  -0.39661  -0.39147  -0.38685
 Alpha  occ. eigenvalues --   -0.38343  -0.38323  -0.38009  -0.37795  -0.37313
 Alpha  occ. eigenvalues --   -0.37047  -0.36933  -0.36852  -0.36509  -0.36132
 Alpha  occ. eigenvalues --   -0.36121  -0.35433  -0.35220  -0.34925  -0.34334
 Alpha  occ. eigenvalues --   -0.34140  -0.33721  -0.32749  -0.31608  -0.30999
 Alpha  occ. eigenvalues --   -0.30394  -0.30070  -0.29877  -0.28192  -0.23991
 Alpha  occ. eigenvalues --   -0.20729
 Alpha virt. eigenvalues --   -0.08221  -0.01663   0.00244   0.02345   0.02558
 Alpha virt. eigenvalues --    0.03563   0.04533   0.05724   0.06303   0.07006
 Alpha virt. eigenvalues --    0.07212   0.07844   0.08463   0.08678   0.09008

 Mulliken charges:
               1
     1  Mg   0.821909
     2  C    0.035619
     3  C   -0.117948
     4  C   -0.114491
     5  C   -0.081971
     6  N   -0.283061
     7  C   -0.051697
     8  C   -0.026639
     9  C   -0.032103
    10  C    0.009788
    11  C    0.079388
    12  C    0.129393
    13  C    0.017417
    14  C    0.202099
    15  O   -0.237286
    16  O   -0.361758
    17  N   -0.318286
    18  C    0.206721
    19  C   -0.170513
    20  C   -0.013377
    21  C    0.140127
    22  C    0.130633
    23  C    0.001317
    24  O   -0.228109
    25  C    0.057271
    26  N   -0.372141
    27  C    0.067432
    28  C   -0.020759
    29  C   -0.012501
    30  C    0.050748
    31  C    0.094644
    32  C    0.007687
    33  C    0.006485
    34  N   -0.405392
    35  C    0.145000
    36  C   -0.185948
    37  C    0.005919
    38  C    0.109338
    39  C    0.121756
    40  C    0.045506
    41  O   -0.167935
    42  C   -0.058688
    43  C    0.194094
    44  O   -0.180293
    45  O   -0.361596
    46  C    0.178136
    47  C    0.250244
    48  C   -0.116958
    49  C   -0.136543
    50  C    0.081765
    51  C   -0.002856
    52  C    0.063688
    53  C    0.045161
    54  C   -0.181819
    55  C    0.059973
    56  C    0.081882
    57  C    0.027287
    58  C    0.034728
    59  C   -0.105076
    60  C    0.061600
    61  C    0.033225
    62  C    0.034329
    63  C    0.042457
    64  C   -0.157568
    65  C    0.014615
    66  C    0.074983
    67  H   -0.033221
    68  H    0.020093
    69  H   -0.034610
    70  H    0.032115
    71  H   -0.003275
    72  H    0.018152
    73  H    0.025430
    74  H    0.013679
    75  H    0.011528
    76  H    0.012595
    77  H    0.020819
    78  H    0.008587
    79  H    0.016673
    80  H    0.007835
    81  H    0.050973
    82  H    0.035451
    83  H    0.024938
    84  H    0.030610
    85  H    0.014948
    86  H    0.010732
    87  H    0.016017
    88  H    0.021312
    89  H    0.030369
    90  H   -0.001958
    91  H    0.004287
    92  H    0.017418
    93  H    0.012371
    94  H    0.012466
    95  H    0.043586
    96  H    0.030015
    97  H    0.010860
    98  H    0.056920
    99  H    0.028871
   100  H    0.028308
   101  H    0.046428
   102  H    0.024756
   103  H    0.045255
   104  H    0.003157
   105  H    0.029500
   106  H    0.030735
   107  H    0.001494
   108  H    0.016121
   109  H    0.024690
   110  H   -0.005481
   111  H   -0.011966
   112  H   -0.004067
   113  H   -0.010499
   114  H    0.002081
   115  H    0.010823
   116  H    0.020462
   117  H   -0.002956
   118  H   -0.015149
   119  H   -0.014127
   120  H   -0.006347
   121  H   -0.001072
   122  H   -0.007704
   123  H   -0.018828
   124  H   -0.018032
   125  H   -0.004113
   126  H   -0.004745
   127  H    0.021936
   128  H   -0.015777
   129  H   -0.009059
   130  H    0.004716
   131  H    0.000568
   132  H   -0.011435
   133  H   -0.021448
   134  H   -0.002973
   135  H    0.004303
   136  H    0.015484
   137  H   -0.000710
   138  H    0.004818
   139  H    0.017560
   140  H    0.005656
 Sum of Mulliken charges =  -0.00000

 Dipole moment (field-independent basis, Debye):
    X=             -6.3259    Y=              4.2026    Z=              2.0147  Tot=              7.8574
 Quadrupole moment (field-independent basis, Debye-Ang):
   XX=           -385.9364   YY=           -435.3546   ZZ=           -401.7210
   XY=             33.4785   XZ=             14.7293   YZ=            -12.2893

 Normal termination of Gaussian 16 at Thu Apr 28 09:33:34 2022.
