 Gaussian 16, Revision A.03,
 Gaussian 16:  ES64L-G16RevA.03 25-Dec-2016

 ---------------------------------
 #p PBE1PBE/Def2SVP td=(nstates=5)
 ---------------------------------

 -----------------------------------------------------
 step_151_chromophore_21 TDDFT with PBE1PBE functional
 -----------------------------------------------------
 Symbolic Z-matrix:
 Charge =  0 Multiplicity = 1

                         Standard orientation:
 ---------------------------------------------------------------------
 Center     Atomic      Atomic             Coordinates (Angstroms)
 Number     Number       Type             X           Y           Z
 ---------------------------------------------------------------------
      1         12           0        4.770910    0.982277    0.153621
      2          6           0        4.139285   -2.387085    0.234634
      3          6           0        1.513409    1.438159   -1.157748
      4          6           0        5.159500    4.370150   -0.193628
      5          6           0        8.129272    0.456232    0.217670
      6          7           0        2.992382   -0.294794   -0.281953
      7          6           0        2.936270   -1.644723   -0.009993
      8          6           0        1.486829   -2.135414   -0.152632
      9          6           0        0.804871   -1.018618   -0.976324
     10          6           0        1.787788    0.152481   -0.792361
     11          6           0        0.524506   -1.210015   -2.459472
     12          6           0        0.847443   -2.566905    1.167797
     13          6           0        0.154712   -3.960961    1.124933
     14          6           0       -0.706490   -4.533528    0.115631
     15          8           0       -0.384331   -5.496804   -0.607195
     16          8           0       -1.881497   -3.790759    0.180340
     17          7           0        3.408581    2.629335   -0.271962
     18          6           0        2.203063    2.551849   -0.836325
     19          6           0        1.664943    3.935954   -1.013023
     20          6           0        2.744025    4.805222   -0.703822
     21          6           0        3.881672    3.916821   -0.397966
     22          6           0        0.322586    4.257201   -1.511935
     23          6           0        2.779963    6.296484   -0.824686
     24          8           0        3.798673    6.949570   -0.518544
     25          6           0        1.571831    7.070315   -1.306374
     26          7           0        6.351477    2.186357   -0.076631
     27          6           0        6.315798    3.579011   -0.050358
     28          6           0        7.665893    4.216885    0.214680
     29          6           0        8.622362    2.994310    0.301647
     30          6           0        7.650843    1.764981    0.194627
     31          6           0        8.184450    5.269154   -0.778726
     32          6           0        9.531232    2.928504    1.530485
     33          6           0        8.904584    2.596633    2.901870
     34          7           0        5.986137   -0.639474    0.115192
     35          6           0        7.349255   -0.751871    0.210013
     36          6           0        7.710008   -2.151983    0.172013
     37          6           0        6.448767   -2.843936    0.294926
     38          6           0        5.453796   -1.909841    0.278173
     39          6           0        9.045119   -2.719601    0.145102
     40          6           0        5.793118   -4.161925    0.337407
     41          8           0        6.303074   -5.269782    0.278802
     42          6           0        4.282343   -3.825288    0.583777
     43          6           0        3.489015   -4.859207   -0.218650
     44          8           0        3.183885   -4.863326   -1.382453
     45          8           0        3.296217   -5.924479    0.661738
     46          6           0        2.610279   -7.135002    0.253421
     47          6           0       -2.991259   -4.402307   -0.597817
     48          6           0       -4.113755   -3.288569   -0.695302
     49          6           0       -5.457650   -3.461369   -0.485007
     50          6           0       -6.163471   -4.756798    0.077577
     51          6           0       -6.302747   -2.258842   -0.730178
     52          6           0       -7.854537   -2.221494   -0.705414
     53          6           0       -8.509722   -1.429891   -1.771081
     54          6           0       -9.558718   -0.453948   -1.226232
     55          6           0      -10.878071   -1.276604   -0.964927
     56          6           0       -9.775140    0.677380   -2.283248
     57          6           0       -9.100248    2.007030   -1.912625
     58          6           0      -10.136239    3.096043   -1.468112
     59          6           0      -10.944514    2.780036   -0.071684
     60          6           0      -12.401794    2.359536   -0.437271
     61          6           0      -10.789921    3.815743    1.090671
     62          6           0       -9.488561    3.653088    1.964106
     63          6           0       -9.636233    2.596527    3.058884
     64          6           0       -8.554267    1.503830    3.179960
     65          6           0       -9.203897    0.207200    2.793830
     66          6           0       -7.816871    1.395696    4.560749
     67          1           0        0.515156    1.493507   -1.596022
     68          1           0        5.185393    5.425983    0.083998
     69          1           0        9.218708    0.389478    0.250396
     70          1           0        1.563984   -3.010920   -0.797332
     71          1           0       -0.153689   -0.759559   -0.526237
     72          1           0       -0.105074   -2.085653   -2.619228
     73          1           0        1.405993   -1.473595   -3.044812
     74          1           0        0.066580   -0.298371   -2.841653
     75          1           0       -0.001950   -1.962502    1.486403
     76          1           0        1.634422   -2.512017    1.920148
     77          1           0       -0.383047   -4.130271    2.057774
     78          1           0        1.020904   -4.588216    1.336260
     79          1           0       -0.033193    4.975350   -0.773847
     80          1           0       -0.380091    3.440526   -1.346666
     81          1           0        0.253029    4.623223   -2.536759
     82          1           0        0.692215    6.924628   -0.678381
     83          1           0        1.271352    6.741952   -2.301090
     84          1           0        1.835750    8.123228   -1.397160
     85          1           0        7.589512    4.627992    1.221035
     86          1           0        9.284657    2.922642   -0.560957
     87          1           0        9.239746    5.060153   -0.955089
     88          1           0        8.116000    6.269008   -0.350319
     89          1           0        7.556089    5.149219   -1.661569
     90          1           0       10.096236    3.860128    1.521689
     91          1           0       10.333153    2.190834    1.475708
     92          1           0        9.319310    3.257297    3.663129
     93          1           0        9.096634    1.572374    3.220572
     94          1           0        7.814439    2.605173    2.903316
     95          1           0        8.959433   -3.658430   -0.401114
     96          1           0        9.233641   -2.875080    1.207552
     97          1           0        9.852276   -2.080746   -0.215106
     98          1           0        4.010439   -3.984456    1.627291
     99          1           0        2.210246   -7.659144    1.121841
    100          1           0        3.287470   -7.805078   -0.275332
    101          1           0        1.810639   -6.948501   -0.463547
    102          1           0       -3.189616   -5.321309   -0.046154
    103          1           0       -2.779350   -4.684822   -1.628874
    104          1           0       -3.740376   -2.356084   -1.118906
    105          1           0       -6.949782   -5.154465   -0.564795
    106          1           0       -6.596859   -4.553943    1.056683
    107          1           0       -5.443821   -5.571434    0.159587
    108          1           0       -6.067802   -2.021872   -1.767547
    109          1           0       -5.890113   -1.459139   -0.114582
    110          1           0       -8.054450   -1.856797    0.302921
    111          1           0       -8.301833   -3.214403   -0.727762
    112          1           0       -8.896836   -2.127567   -2.513609
    113          1           0       -7.784537   -0.874460   -2.365533
    114          1           0       -9.225285   -0.021557   -0.283073
    115          1           0      -11.709379   -0.969137   -1.600500
    116          1           0      -11.084200   -1.207413    0.102704
    117          1           0      -10.709998   -2.293516   -1.318106
    118          1           0      -10.845864    0.762762   -2.469912
    119          1           0       -9.361232    0.348454   -3.236363
    120          1           0       -8.597877    2.439869   -2.777784
    121          1           0       -8.357637    1.812608   -1.138931
    122          1           0      -10.809695    3.360845   -2.282627
    123          1           0       -9.589760    4.037665   -1.419056
    124          1           0      -10.450231    1.938285    0.414982
    125          1           0      -12.929328    2.122589    0.486992
    126          1           0      -12.317580    1.387221   -0.922967
    127          1           0      -12.940750    3.062491   -1.071968
    128          1           0      -11.564315    3.673338    1.843611
    129          1           0      -10.905706    4.832157    0.713393
    130          1           0       -9.339984    4.639660    2.402715
    131          1           0       -8.684470    3.262827    1.340770
    132          1           0      -10.638225    2.167713    3.047033
    133          1           0       -9.766252    3.140527    3.994950
    134          1           0       -7.736982    1.523890    2.458926
    135          1           0       -8.461906   -0.476279    2.380603
    136          1           0      -10.027372    0.298059    2.086329
    137          1           0       -9.661674   -0.309845    3.637589
    138          1           0       -7.893406    0.346543    4.845577
    139          1           0       -8.245521    2.155710    5.214130
    140          1           0       -6.763824    1.587656    4.357221
 ---------------------------------------------------------------------

 SCF Done:  E(RPBE1PBE) =  -3005.35462418     A.U. after   16 cycles

 Excitation energies and oscillator strengths:

 Excited State   1:      Singlet-A      1.8381 eV  674.53 nm  f=0.3621  <S**2>=0.000
     245 -> 248        0.16637
     246 -> 247        0.69361
     246 <- 247       -0.10852
 This state for optimization and/or second-order correction.
 Total Energy, E(TD-HF/TD-DFT) =  -3005.28707563
 Copying the excited state density for this state as the 1-particle RhoCI density.

 Excited State   2:      Singlet-A      2.2387 eV  553.82 nm  f=0.0807  <S**2>=0.000
     245 -> 247        0.64136
     246 -> 248       -0.27435

 Excited State   3:      Singlet-A      2.9143 eV  425.43 nm  f=0.0034  <S**2>=0.000
     244 -> 247        0.69268

 Excited State   4:      Singlet-A      3.1245 eV  396.81 nm  f=0.0360  <S**2>=0.000
     241 -> 247        0.15679
     242 -> 247        0.62023
     242 -> 249       -0.11418
     242 -> 250        0.10163
     246 -> 248        0.20398

 Excited State   5:      Singlet-A      3.1420 eV  394.60 nm  f=0.0596  <S**2>=0.000
     239 -> 247        0.15842
     240 -> 247        0.38002
     240 -> 248       -0.10127
     240 -> 249        0.13705
     241 -> 247       -0.33628
     242 -> 247        0.19361
     246 -> 248       -0.34527

 The electronic state is 1-A.
 Alpha  occ. eigenvalues --  -46.90825 -19.26497 -19.24021 -19.21042 -19.19813
 Alpha  occ. eigenvalues --  -19.19169 -19.18907 -14.41360 -14.41355 -14.38885
 Alpha  occ. eigenvalues --  -14.37905 -10.36908 -10.35831 -10.32555 -10.31942
 Alpha  occ. eigenvalues --  -10.30269 -10.28864 -10.28715 -10.28220 -10.28123
 Alpha  occ. eigenvalues --  -10.27621 -10.27307 -10.26984 -10.26799 -10.26445
 Alpha  occ. eigenvalues --  -10.26207 -10.25651 -10.25588 -10.25475 -10.25401
 Alpha  occ. eigenvalues --  -10.25274 -10.25191 -10.25094 -10.25091 -10.24961
 Alpha  occ. eigenvalues --  -10.24716 -10.24637 -10.24426 -10.24393 -10.24288
 Alpha  occ. eigenvalues --  -10.24088 -10.23846 -10.23846 -10.23694 -10.23644
 Alpha  occ. eigenvalues --  -10.23635 -10.23568 -10.23435 -10.23278 -10.23120
 Alpha  occ. eigenvalues --  -10.23087 -10.22988 -10.22852 -10.22835 -10.22792
 Alpha  occ. eigenvalues --  -10.22692 -10.22648 -10.22635 -10.22455 -10.22441
 Alpha  occ. eigenvalues --  -10.22421 -10.22283 -10.22185 -10.22174 -10.22157
 Alpha  occ. eigenvalues --  -10.21949  -3.13146  -1.85969  -1.85523  -1.85379
 Alpha  occ. eigenvalues --   -1.10327  -1.09645  -1.04127  -1.03693  -1.02669
 Alpha  occ. eigenvalues --   -1.02175  -0.98476  -0.97499  -0.96926  -0.96118
 Alpha  occ. eigenvalues --   -0.87301  -0.85106  -0.84082  -0.83875  -0.83451
 Alpha  occ. eigenvalues --   -0.83092  -0.82960  -0.82257  -0.81703  -0.81298
 Alpha  occ. eigenvalues --   -0.80423  -0.80241  -0.78805  -0.77904  -0.77496
 Alpha  occ. eigenvalues --   -0.76680  -0.76157  -0.75550  -0.75059  -0.74589
 Alpha  occ. eigenvalues --   -0.73979  -0.72962  -0.72412  -0.71069  -0.70997
 Alpha  occ. eigenvalues --   -0.70139  -0.69706  -0.69200  -0.69070  -0.68805
 Alpha  occ. eigenvalues --   -0.67621  -0.66716  -0.66059  -0.65368  -0.64044
 Alpha  occ. eigenvalues --   -0.62653  -0.62455  -0.61796  -0.61115  -0.59894
 Alpha  occ. eigenvalues --   -0.59692  -0.59495  -0.58535  -0.58453  -0.58282
 Alpha  occ. eigenvalues --   -0.58121  -0.58043  -0.56988  -0.55687  -0.54892
 Alpha  occ. eigenvalues --   -0.54689  -0.53768  -0.53519  -0.52816  -0.51754
 Alpha  occ. eigenvalues --   -0.51485  -0.50734  -0.50575  -0.50357  -0.50057
 Alpha  occ. eigenvalues --   -0.49698  -0.49441  -0.48923  -0.48598  -0.48441
 Alpha  occ. eigenvalues --   -0.48025  -0.47996  -0.47716  -0.47604  -0.47491
 Alpha  occ. eigenvalues --   -0.47303  -0.47069  -0.46534  -0.46365  -0.46238
 Alpha  occ. eigenvalues --   -0.46014  -0.45736  -0.45625  -0.45398  -0.45187
 Alpha  occ. eigenvalues --   -0.44994  -0.44852  -0.44627  -0.44375  -0.44194
 Alpha  occ. eigenvalues --   -0.44139  -0.43855  -0.43654  -0.43542  -0.43490
 Alpha  occ. eigenvalues --   -0.43237  -0.43064  -0.42959  -0.42679  -0.42412
 Alpha  occ. eigenvalues --   -0.42225  -0.42168  -0.41941  -0.41759  -0.41646
 Alpha  occ. eigenvalues --   -0.41380  -0.41122  -0.40762  -0.40644  -0.40377
 Alpha  occ. eigenvalues --   -0.40348  -0.40309  -0.40094  -0.39842  -0.39699
 Alpha  occ. eigenvalues --   -0.39561  -0.39509  -0.39242  -0.39140  -0.38939
 Alpha  occ. eigenvalues --   -0.38778  -0.38730  -0.38177  -0.37959  -0.37781
 Alpha  occ. eigenvalues --   -0.37560  -0.37521  -0.37296  -0.36886  -0.36734
 Alpha  occ. eigenvalues --   -0.36477  -0.36287  -0.36008  -0.35731  -0.35700
 Alpha  occ. eigenvalues --   -0.35525  -0.35286  -0.35103  -0.34906  -0.34834
 Alpha  occ. eigenvalues --   -0.34699  -0.34481  -0.34438  -0.33982  -0.33427
 Alpha  occ. eigenvalues --   -0.33265  -0.33089  -0.32931  -0.32559  -0.32281
 Alpha  occ. eigenvalues --   -0.32088  -0.31914  -0.31789  -0.31364  -0.31194
 Alpha  occ. eigenvalues --   -0.30969  -0.30355  -0.30209  -0.29817  -0.29467
 Alpha  occ. eigenvalues --   -0.29116  -0.28833  -0.28194  -0.26703  -0.25946
 Alpha  occ. eigenvalues --   -0.25669  -0.25344  -0.25134  -0.24169  -0.20833
 Alpha  occ. eigenvalues --   -0.18328
 Alpha virt. eigenvalues --   -0.10773  -0.05217  -0.03846  -0.02004  -0.01047
 Alpha virt. eigenvalues --   -0.00315   0.00098   0.01247   0.01645   0.03088
 Alpha virt. eigenvalues --    0.03716   0.04443   0.04722   0.05253   0.05450

 Mulliken charges:
               1
     1  Mg   0.973166
     2  C    0.013436
     3  C   -0.101481
     4  C   -0.088078
     5  C   -0.071933
     6  N   -0.384010
     7  C    0.025155
     8  C   -0.097723
     9  C   -0.109426
    10  C    0.052409
    11  C    0.021192
    12  C    0.078060
    13  C   -0.064485
    14  C    0.266716
    15  O   -0.272400
    16  O   -0.387721
    17  N   -0.428240
    18  C    0.215677
    19  C   -0.195865
    20  C   -0.056437
    21  C    0.151722
    22  C    0.066549
    23  C    0.050180
    24  O   -0.266737
    25  C   -0.014717
    26  N   -0.476801
    27  C    0.090147
    28  C   -0.092885
    29  C   -0.089176
    30  C    0.085281
    31  C    0.032965
    32  C   -0.052546
    33  C   -0.066538
    34  N   -0.524679
    35  C    0.171190
    36  C   -0.210527
    37  C   -0.035150
    38  C    0.156394
    39  C    0.066014
    40  C    0.142174
    41  O   -0.211393
    42  C   -0.159014
    43  C    0.276796
    44  O   -0.217959
    45  O   -0.392833
    46  C    0.122933
    47  C    0.211467
    48  C   -0.138566
    49  C   -0.169035
    50  C    0.016578
    51  C   -0.064758
    52  C   -0.002551
    53  C   -0.010670
    54  C   -0.277294
    55  C    0.002591
    56  C    0.033727
    57  C   -0.043285
    58  C   -0.015170
    59  C   -0.198337
    60  C   -0.004966
    61  C   -0.018364
    62  C   -0.036318
    63  C   -0.010668
    64  C   -0.246074
    65  C   -0.055869
    66  C    0.013796
    67  H   -0.002719
    68  H    0.050430
    69  H   -0.001545
    70  H    0.076465
    71  H    0.033987
    72  H    0.046203
    73  H    0.052634
    74  H    0.042182
    75  H    0.044242
    76  H    0.044833
    77  H    0.054293
    78  H    0.048073
    79  H    0.045035
    80  H    0.033902
    81  H    0.075594
    82  H    0.061193
    83  H    0.052017
    84  H    0.056892
    85  H    0.053096
    86  H    0.048503
    87  H    0.042502
    88  H    0.048569
    89  H    0.058986
    90  H    0.032207
    91  H    0.035983
    92  H    0.045861
    93  H    0.039522
    94  H    0.042445
    95  H    0.072393
    96  H    0.061329
    97  H    0.039813
    98  H    0.093290
    99  H    0.051208
   100  H    0.051190
   101  H    0.069874
   102  H    0.050307
   103  H    0.071371
   104  H    0.031749
   105  H    0.056051
   106  H    0.058273
   107  H    0.029796
   108  H    0.049704
   109  H    0.056268
   110  H    0.032877
   111  H    0.020283
   112  H    0.029132
   113  H    0.022537
   114  H    0.044152
   115  H    0.036067
   116  H    0.048714
   117  H    0.024945
   118  H    0.015814
   119  H    0.018750
   120  H    0.027036
   121  H    0.031637
   122  H    0.024056
   123  H    0.013855
   124  H    0.032102
   125  H    0.023965
   126  H    0.027907
   127  H    0.048657
   128  H    0.017330
   129  H    0.023186
   130  H    0.037567
   131  H    0.036175
   132  H    0.019948
   133  H    0.011443
   134  H    0.033678
   135  H    0.035489
   136  H    0.044927
   137  H    0.028103
   138  H    0.032120
   139  H    0.044221
   140  H    0.033695
 Sum of Mulliken charges =  -0.00000

 Dipole moment (field-independent basis, Debye):
    X=             -5.7563    Y=              3.5151    Z=              2.1842  Tot=              7.0895
 Quadrupole moment (field-independent basis, Debye-Ang):
   XX=           -375.6681   YY=           -433.7947   ZZ=           -399.2607
   XY=             31.4303   XZ=             15.7181   YZ=            -11.8994

 Normal termination of Gaussian 16 at Thu Apr 28 09:55:38 2022.
