 Gaussian 16, Revision A.03,
 Gaussian 16:  ES64L-G16RevA.03 25-Dec-2016

 --------------------------------
 #p wB97XD/Def2SVP td=(nstates=5)
 --------------------------------

 ----------------------------------------------------
 step_151_chromophore_21 TDDFT with wB97XD functional
 ----------------------------------------------------
 Symbolic Z-matrix:
 Charge =  0 Multiplicity = 1

                         Standard orientation:
 ---------------------------------------------------------------------
 Center     Atomic      Atomic             Coordinates (Angstroms)
 Number     Number       Type             X           Y           Z
 ---------------------------------------------------------------------
      1         12           0        4.770910    0.982277    0.153621
      2          6           0        4.139285   -2.387085    0.234634
      3          6           0        1.513409    1.438159   -1.157748
      4          6           0        5.159500    4.370150   -0.193628
      5          6           0        8.129272    0.456232    0.217670
      6          7           0        2.992382   -0.294794   -0.281953
      7          6           0        2.936270   -1.644723   -0.009993
      8          6           0        1.486829   -2.135414   -0.152632
      9          6           0        0.804871   -1.018618   -0.976324
     10          6           0        1.787788    0.152481   -0.792361
     11          6           0        0.524506   -1.210015   -2.459472
     12          6           0        0.847443   -2.566905    1.167797
     13          6           0        0.154712   -3.960961    1.124933
     14          6           0       -0.706490   -4.533528    0.115631
     15          8           0       -0.384331   -5.496804   -0.607195
     16          8           0       -1.881497   -3.790759    0.180340
     17          7           0        3.408581    2.629335   -0.271962
     18          6           0        2.203063    2.551849   -0.836325
     19          6           0        1.664943    3.935954   -1.013023
     20          6           0        2.744025    4.805222   -0.703822
     21          6           0        3.881672    3.916821   -0.397966
     22          6           0        0.322586    4.257201   -1.511935
     23          6           0        2.779963    6.296484   -0.824686
     24          8           0        3.798673    6.949570   -0.518544
     25          6           0        1.571831    7.070315   -1.306374
     26          7           0        6.351477    2.186357   -0.076631
     27          6           0        6.315798    3.579011   -0.050358
     28          6           0        7.665893    4.216885    0.214680
     29          6           0        8.622362    2.994310    0.301647
     30          6           0        7.650843    1.764981    0.194627
     31          6           0        8.184450    5.269154   -0.778726
     32          6           0        9.531232    2.928504    1.530485
     33          6           0        8.904584    2.596633    2.901870
     34          7           0        5.986137   -0.639474    0.115192
     35          6           0        7.349255   -0.751871    0.210013
     36          6           0        7.710008   -2.151983    0.172013
     37          6           0        6.448767   -2.843936    0.294926
     38          6           0        5.453796   -1.909841    0.278173
     39          6           0        9.045119   -2.719601    0.145102
     40          6           0        5.793118   -4.161925    0.337407
     41          8           0        6.303074   -5.269782    0.278802
     42          6           0        4.282343   -3.825288    0.583777
     43          6           0        3.489015   -4.859207   -0.218650
     44          8           0        3.183885   -4.863326   -1.382453
     45          8           0        3.296217   -5.924479    0.661738
     46          6           0        2.610279   -7.135002    0.253421
     47          6           0       -2.991259   -4.402307   -0.597817
     48          6           0       -4.113755   -3.288569   -0.695302
     49          6           0       -5.457650   -3.461369   -0.485007
     50          6           0       -6.163471   -4.756798    0.077577
     51          6           0       -6.302747   -2.258842   -0.730178
     52          6           0       -7.854537   -2.221494   -0.705414
     53          6           0       -8.509722   -1.429891   -1.771081
     54          6           0       -9.558718   -0.453948   -1.226232
     55          6           0      -10.878071   -1.276604   -0.964927
     56          6           0       -9.775140    0.677380   -2.283248
     57          6           0       -9.100248    2.007030   -1.912625
     58          6           0      -10.136239    3.096043   -1.468112
     59          6           0      -10.944514    2.780036   -0.071684
     60          6           0      -12.401794    2.359536   -0.437271
     61          6           0      -10.789921    3.815743    1.090671
     62          6           0       -9.488561    3.653088    1.964106
     63          6           0       -9.636233    2.596527    3.058884
     64          6           0       -8.554267    1.503830    3.179960
     65          6           0       -9.203897    0.207200    2.793830
     66          6           0       -7.816871    1.395696    4.560749
     67          1           0        0.515156    1.493507   -1.596022
     68          1           0        5.185393    5.425983    0.083998
     69          1           0        9.218708    0.389478    0.250396
     70          1           0        1.563984   -3.010920   -0.797332
     71          1           0       -0.153689   -0.759559   -0.526237
     72          1           0       -0.105074   -2.085653   -2.619228
     73          1           0        1.405993   -1.473595   -3.044812
     74          1           0        0.066580   -0.298371   -2.841653
     75          1           0       -0.001950   -1.962502    1.486403
     76          1           0        1.634422   -2.512017    1.920148
     77          1           0       -0.383047   -4.130271    2.057774
     78          1           0        1.020904   -4.588216    1.336260
     79          1           0       -0.033193    4.975350   -0.773847
     80          1           0       -0.380091    3.440526   -1.346666
     81          1           0        0.253029    4.623223   -2.536759
     82          1           0        0.692215    6.924628   -0.678381
     83          1           0        1.271352    6.741952   -2.301090
     84          1           0        1.835750    8.123228   -1.397160
     85          1           0        7.589512    4.627992    1.221035
     86          1           0        9.284657    2.922642   -0.560957
     87          1           0        9.239746    5.060153   -0.955089
     88          1           0        8.116000    6.269008   -0.350319
     89          1           0        7.556089    5.149219   -1.661569
     90          1           0       10.096236    3.860128    1.521689
     91          1           0       10.333153    2.190834    1.475708
     92          1           0        9.319310    3.257297    3.663129
     93          1           0        9.096634    1.572374    3.220572
     94          1           0        7.814439    2.605173    2.903316
     95          1           0        8.959433   -3.658430   -0.401114
     96          1           0        9.233641   -2.875080    1.207552
     97          1           0        9.852276   -2.080746   -0.215106
     98          1           0        4.010439   -3.984456    1.627291
     99          1           0        2.210246   -7.659144    1.121841
    100          1           0        3.287470   -7.805078   -0.275332
    101          1           0        1.810639   -6.948501   -0.463547
    102          1           0       -3.189616   -5.321309   -0.046154
    103          1           0       -2.779350   -4.684822   -1.628874
    104          1           0       -3.740376   -2.356084   -1.118906
    105          1           0       -6.949782   -5.154465   -0.564795
    106          1           0       -6.596859   -4.553943    1.056683
    107          1           0       -5.443821   -5.571434    0.159587
    108          1           0       -6.067802   -2.021872   -1.767547
    109          1           0       -5.890113   -1.459139   -0.114582
    110          1           0       -8.054450   -1.856797    0.302921
    111          1           0       -8.301833   -3.214403   -0.727762
    112          1           0       -8.896836   -2.127567   -2.513609
    113          1           0       -7.784537   -0.874460   -2.365533
    114          1           0       -9.225285   -0.021557   -0.283073
    115          1           0      -11.709379   -0.969137   -1.600500
    116          1           0      -11.084200   -1.207413    0.102704
    117          1           0      -10.709998   -2.293516   -1.318106
    118          1           0      -10.845864    0.762762   -2.469912
    119          1           0       -9.361232    0.348454   -3.236363
    120          1           0       -8.597877    2.439869   -2.777784
    121          1           0       -8.357637    1.812608   -1.138931
    122          1           0      -10.809695    3.360845   -2.282627
    123          1           0       -9.589760    4.037665   -1.419056
    124          1           0      -10.450231    1.938285    0.414982
    125          1           0      -12.929328    2.122589    0.486992
    126          1           0      -12.317580    1.387221   -0.922967
    127          1           0      -12.940750    3.062491   -1.071968
    128          1           0      -11.564315    3.673338    1.843611
    129          1           0      -10.905706    4.832157    0.713393
    130          1           0       -9.339984    4.639660    2.402715
    131          1           0       -8.684470    3.262827    1.340770
    132          1           0      -10.638225    2.167713    3.047033
    133          1           0       -9.766252    3.140527    3.994950
    134          1           0       -7.736982    1.523890    2.458926
    135          1           0       -8.461906   -0.476279    2.380603
    136          1           0      -10.027372    0.298059    2.086329
    137          1           0       -9.661674   -0.309845    3.637589
    138          1           0       -7.893406    0.346543    4.845577
    139          1           0       -8.245521    2.155710    5.214130
    140          1           0       -6.763824    1.587656    4.357221
 ---------------------------------------------------------------------

 SCF Done:  E(RwB97XD) =  -3007.87016676     A.U. after   17 cycles

 Excitation energies and oscillator strengths:

 Excited State   1:      Singlet-A      1.6891 eV  734.02 nm  f=0.3726  <S**2>=0.000
     245 -> 248        0.17235
     246 -> 247        0.68435
     245 <- 248        0.10804
 This state for optimization and/or second-order correction.
 Total Energy, E(TD-HF/TD-DFT) =  -3007.80809304
 Copying the excited state density for this state as the 1-particle RhoCI density.

 Excited State   2:      Singlet-A      2.2107 eV  560.85 nm  f=0.0801  <S**2>=0.000
     245 -> 247        0.62326
     246 -> 248       -0.30560

 Excited State   3:      Singlet-A      3.3583 eV  369.19 nm  f=0.0027  <S**2>=0.000
     241 -> 247       -0.20111
     242 -> 247        0.12922
     244 -> 247        0.64679
     244 -> 249        0.10278

 Excited State   4:      Singlet-A      3.4254 eV  361.96 nm  f=0.3535  <S**2>=0.000
     239 -> 247       -0.12616
     241 -> 247        0.33255
     242 -> 247       -0.11257
     245 -> 247        0.21061
     246 -> 248        0.52856

 Excited State   5:      Singlet-A      3.6162 eV  342.86 nm  f=0.0034  <S**2>=0.000
     239 -> 247        0.35372
     239 -> 248       -0.14645
     239 -> 249       -0.30204
     239 -> 250       -0.11377
     240 -> 247        0.36494
     240 -> 249       -0.20595
     241 -> 247        0.14732

 The electronic state is 1-A.
 Alpha  occ. eigenvalues --  -46.93748 -19.31033 -19.28443 -19.25670 -19.24411
 Alpha  occ. eigenvalues --  -19.24328 -19.23391 -14.46473 -14.46345 -14.44042
 Alpha  occ. eigenvalues --  -14.42549 -10.43692 -10.42547 -10.39760 -10.38490
 Alpha  occ. eigenvalues --  -10.36778 -10.35561 -10.34738 -10.34685 -10.34518
 Alpha  occ. eigenvalues --  -10.34180 -10.34176 -10.33547 -10.33389 -10.32588
 Alpha  occ. eigenvalues --  -10.32559 -10.31886 -10.31824 -10.31746 -10.31580
 Alpha  occ. eigenvalues --  -10.31568 -10.31537 -10.31392 -10.31333 -10.31280
 Alpha  occ. eigenvalues --  -10.31221 -10.30877 -10.30873 -10.30831 -10.30627
 Alpha  occ. eigenvalues --  -10.30522 -10.30283 -10.30216 -10.30203 -10.30079
 Alpha  occ. eigenvalues --  -10.30002 -10.29856 -10.29834 -10.29753 -10.29559
 Alpha  occ. eigenvalues --  -10.29519 -10.29395 -10.29316 -10.29263 -10.29187
 Alpha  occ. eigenvalues --  -10.29037 -10.28987 -10.28888 -10.28826 -10.28811
 Alpha  occ. eigenvalues --  -10.28734 -10.28710 -10.28650 -10.28582 -10.28410
 Alpha  occ. eigenvalues --  -10.28035  -3.19912  -1.93488  -1.93038  -1.92895
 Alpha  occ. eigenvalues --   -1.17700  -1.16917  -1.11544  -1.11299  -1.09988
 Alpha  occ. eigenvalues --   -1.09406  -1.06156  -1.04733  -1.04284  -1.03397
 Alpha  occ. eigenvalues --   -0.94679  -0.92803  -0.91720  -0.91553  -0.91257
 Alpha  occ. eigenvalues --   -0.90783  -0.90541  -0.90328  -0.89333  -0.89006
 Alpha  occ. eigenvalues --   -0.87975  -0.87527  -0.86499  -0.85578  -0.84949
 Alpha  occ. eigenvalues --   -0.84379  -0.84137  -0.83289  -0.82631  -0.82231
 Alpha  occ. eigenvalues --   -0.81594  -0.80858  -0.79986  -0.78760  -0.78539
 Alpha  occ. eigenvalues --   -0.77852  -0.77239  -0.76794  -0.76773  -0.76506
 Alpha  occ. eigenvalues --   -0.75227  -0.74140  -0.73618  -0.72987  -0.71564
 Alpha  occ. eigenvalues --   -0.70386  -0.70158  -0.69250  -0.68767  -0.67340
 Alpha  occ. eigenvalues --   -0.67331  -0.67058  -0.66256  -0.65912  -0.65790
 Alpha  occ. eigenvalues --   -0.65710  -0.65468  -0.64669  -0.63013  -0.62437
 Alpha  occ. eigenvalues --   -0.62370  -0.61141  -0.60852  -0.60190  -0.59099
 Alpha  occ. eigenvalues --   -0.58793  -0.58297  -0.58020  -0.57748  -0.57444
 Alpha  occ. eigenvalues --   -0.57104  -0.56808  -0.56384  -0.56068  -0.55862
 Alpha  occ. eigenvalues --   -0.55607  -0.55485  -0.55232  -0.55045  -0.54812
 Alpha  occ. eigenvalues --   -0.54695  -0.54423  -0.53968  -0.53692  -0.53585
 Alpha  occ. eigenvalues --   -0.53333  -0.53086  -0.53019  -0.52769  -0.52600
 Alpha  occ. eigenvalues --   -0.52373  -0.52259  -0.51912  -0.51696  -0.51637
 Alpha  occ. eigenvalues --   -0.51385  -0.51247  -0.50948  -0.50881  -0.50819
 Alpha  occ. eigenvalues --   -0.50530  -0.50418  -0.50272  -0.50028  -0.49952
 Alpha  occ. eigenvalues --   -0.49525  -0.49427  -0.49160  -0.49054  -0.48902
 Alpha  occ. eigenvalues --   -0.48695  -0.48422  -0.47830  -0.47745  -0.47644
 Alpha  occ. eigenvalues --   -0.47583  -0.47478  -0.47188  -0.47003  -0.46824
 Alpha  occ. eigenvalues --   -0.46754  -0.46535  -0.46312  -0.46262  -0.46054
 Alpha  occ. eigenvalues --   -0.46017  -0.45842  -0.45271  -0.45138  -0.44904
 Alpha  occ. eigenvalues --   -0.44742  -0.44580  -0.44302  -0.44207  -0.43792
 Alpha  occ. eigenvalues --   -0.43526  -0.43452  -0.43044  -0.42847  -0.42772
 Alpha  occ. eigenvalues --   -0.42627  -0.42310  -0.42083  -0.41990  -0.41803
 Alpha  occ. eigenvalues --   -0.41644  -0.41564  -0.41508  -0.41016  -0.40532
 Alpha  occ. eigenvalues --   -0.40258  -0.40155  -0.39921  -0.39643  -0.39316
 Alpha  occ. eigenvalues --   -0.39055  -0.38860  -0.38787  -0.38344  -0.38079
 Alpha  occ. eigenvalues --   -0.37967  -0.37289  -0.37175  -0.36768  -0.36314
 Alpha  occ. eigenvalues --   -0.36109  -0.35701  -0.34895  -0.33644  -0.33174
 Alpha  occ. eigenvalues --   -0.32529  -0.32103  -0.31931  -0.30293  -0.25943
 Alpha  occ. eigenvalues --   -0.22550
 Alpha virt. eigenvalues --   -0.06535   0.00271   0.02260   0.04611   0.05521
 Alpha virt. eigenvalues --    0.05844   0.06782   0.08030   0.08528   0.09774
 Alpha virt. eigenvalues --    0.10277   0.10867   0.11424   0.11869   0.12013

 Mulliken charges:
               1
     1  Mg   0.960064
     2  C    0.017330
     3  C   -0.123114
     4  C   -0.117722
     5  C   -0.088377
     6  N   -0.350642
     7  C   -0.010553
     8  C   -0.069911
     9  C   -0.083089
    10  C    0.039517
    11  C    0.029949
    12  C    0.087212
    13  C   -0.037203
    14  C    0.252528
    15  O   -0.267750
    16  O   -0.387925
    17  N   -0.397469
    18  C    0.218083
    19  C   -0.183310
    20  C   -0.052587
    21  C    0.157157
    22  C    0.079476
    23  C    0.046185
    24  O   -0.258831
    25  C   -0.002973
    26  N   -0.448066
    27  C    0.089268
    28  C   -0.074554
    29  C   -0.060884
    30  C    0.073460
    31  C    0.045234
    32  C   -0.037808
    33  C   -0.050058
    34  N   -0.489711
    35  C    0.155868
    36  C   -0.203749
    37  C   -0.034420
    38  C    0.138307
    39  C    0.076252
    40  C    0.122261
    41  O   -0.204340
    42  C   -0.121280
    43  C    0.252212
    44  O   -0.209729
    45  O   -0.390353
    46  C    0.138227
    47  C    0.222443
    48  C   -0.142671
    49  C   -0.162026
    50  C    0.031731
    51  C   -0.044525
    52  C    0.018945
    53  C    0.006922
    54  C   -0.232232
    55  C    0.014631
    56  C    0.045911
    57  C   -0.020401
    58  C   -0.005783
    59  C   -0.153196
    60  C    0.017229
    61  C   -0.005455
    62  C   -0.013132
    63  C    0.004037
    64  C   -0.218709
    65  C   -0.033575
    66  C    0.026792
    67  H   -0.011308
    68  H    0.046766
    69  H   -0.008520
    70  H    0.057150
    71  H    0.024843
    72  H    0.042067
    73  H    0.048085
    74  H    0.035383
    75  H    0.036261
    76  H    0.038333
    77  H    0.048773
    78  H    0.032175
    79  H    0.038683
    80  H    0.031787
    81  H    0.074574
    82  H    0.056595
    83  H    0.046135
    84  H    0.057403
    85  H    0.042416
    86  H    0.038011
    87  H    0.037288
    88  H    0.044109
    89  H    0.052489
    90  H    0.022886
    91  H    0.028634
    92  H    0.040760
    93  H    0.034435
    94  H    0.032203
    95  H    0.066692
    96  H    0.052930
    97  H    0.033014
    98  H    0.085707
    99  H    0.047632
   100  H    0.047590
   101  H    0.063737
   102  H    0.045436
   103  H    0.067108
   104  H    0.030004
   105  H    0.050483
   106  H    0.053113
   107  H    0.023407
   108  H    0.038313
   109  H    0.049093
   110  H    0.017554
   111  H    0.010852
   112  H    0.020746
   113  H    0.010330
   114  H    0.015197
   115  H    0.030721
   116  H    0.042714
   117  H    0.018159
   118  H    0.003688
   119  H    0.010897
   120  H    0.020621
   121  H    0.020961
   122  H    0.015901
   123  H    0.006316
   124  H   -0.004446
   125  H    0.017980
   126  H    0.012830
   127  H    0.043485
   128  H    0.006738
   129  H    0.016389
   130  H    0.031590
   131  H    0.021646
   132  H    0.008070
   133  H    0.003329
   134  H    0.022010
   135  H    0.027173
   136  H    0.032710
   137  H    0.021799
   138  H    0.025985
   139  H    0.038122
   140  H    0.028136
 Sum of Mulliken charges =  -0.00000

 Dipole moment (field-independent basis, Debye):
    X=             -6.5087    Y=              4.4363    Z=              2.0265  Tot=              8.1333
 Quadrupole moment (field-independent basis, Debye-Ang):
   XX=           -382.0539   YY=           -430.6985   ZZ=           -398.7282
   XY=             34.3564   XZ=             15.3453   YZ=            -12.7600

 Normal termination of Gaussian 16 at Thu Apr 28 10:26:17 2022.
