 Gaussian 16, Revision A.03,
 Gaussian 16:  ES64L-G16RevA.03 25-Dec-2016

 --------------------
 #p ZINDO=(nstates=5)
 --------------------

 -----------------------------
 step_151_chromophore_21 ZINDO
 -----------------------------
 Symbolic Z-matrix:
 Charge =  0 Multiplicity = 1

                         Standard orientation:
 ---------------------------------------------------------------------
 Center     Atomic      Atomic             Coordinates (Angstroms)
 Number     Number       Type             X           Y           Z
 ---------------------------------------------------------------------
      1         12           0        4.770910    0.982277    0.153621
      2          6           0        4.139285   -2.387085    0.234634
      3          6           0        1.513409    1.438159   -1.157748
      4          6           0        5.159500    4.370150   -0.193628
      5          6           0        8.129272    0.456232    0.217670
      6          7           0        2.992382   -0.294794   -0.281953
      7          6           0        2.936270   -1.644723   -0.009993
      8          6           0        1.486829   -2.135414   -0.152632
      9          6           0        0.804871   -1.018618   -0.976324
     10          6           0        1.787788    0.152481   -0.792361
     11          6           0        0.524506   -1.210015   -2.459472
     12          6           0        0.847443   -2.566905    1.167797
     13          6           0        0.154712   -3.960961    1.124933
     14          6           0       -0.706490   -4.533528    0.115631
     15          8           0       -0.384331   -5.496804   -0.607195
     16          8           0       -1.881497   -3.790759    0.180340
     17          7           0        3.408581    2.629335   -0.271962
     18          6           0        2.203063    2.551849   -0.836325
     19          6           0        1.664943    3.935954   -1.013023
     20          6           0        2.744025    4.805222   -0.703822
     21          6           0        3.881672    3.916821   -0.397966
     22          6           0        0.322586    4.257201   -1.511935
     23          6           0        2.779963    6.296484   -0.824686
     24          8           0        3.798673    6.949570   -0.518544
     25          6           0        1.571831    7.070315   -1.306374
     26          7           0        6.351477    2.186357   -0.076631
     27          6           0        6.315798    3.579011   -0.050358
     28          6           0        7.665893    4.216885    0.214680
     29          6           0        8.622362    2.994310    0.301647
     30          6           0        7.650843    1.764981    0.194627
     31          6           0        8.184450    5.269154   -0.778726
     32          6           0        9.531232    2.928504    1.530485
     33          6           0        8.904584    2.596633    2.901870
     34          7           0        5.986137   -0.639474    0.115192
     35          6           0        7.349255   -0.751871    0.210013
     36          6           0        7.710008   -2.151983    0.172013
     37          6           0        6.448767   -2.843936    0.294926
     38          6           0        5.453796   -1.909841    0.278173
     39          6           0        9.045119   -2.719601    0.145102
     40          6           0        5.793118   -4.161925    0.337407
     41          8           0        6.303074   -5.269782    0.278802
     42          6           0        4.282343   -3.825288    0.583777
     43          6           0        3.489015   -4.859207   -0.218650
     44          8           0        3.183885   -4.863326   -1.382453
     45          8           0        3.296217   -5.924479    0.661738
     46          6           0        2.610279   -7.135002    0.253421
     47          6           0       -2.991259   -4.402307   -0.597817
     48          6           0       -4.113755   -3.288569   -0.695302
     49          6           0       -5.457650   -3.461369   -0.485007
     50          6           0       -6.163471   -4.756798    0.077577
     51          6           0       -6.302747   -2.258842   -0.730178
     52          6           0       -7.854537   -2.221494   -0.705414
     53          6           0       -8.509722   -1.429891   -1.771081
     54          6           0       -9.558718   -0.453948   -1.226232
     55          6           0      -10.878071   -1.276604   -0.964927
     56          6           0       -9.775140    0.677380   -2.283248
     57          6           0       -9.100248    2.007030   -1.912625
     58          6           0      -10.136239    3.096043   -1.468112
     59          6           0      -10.944514    2.780036   -0.071684
     60          6           0      -12.401794    2.359536   -0.437271
     61          6           0      -10.789921    3.815743    1.090671
     62          6           0       -9.488561    3.653088    1.964106
     63          6           0       -9.636233    2.596527    3.058884
     64          6           0       -8.554267    1.503830    3.179960
     65          6           0       -9.203897    0.207200    2.793830
     66          6           0       -7.816871    1.395696    4.560749
     67          1           0        0.515156    1.493507   -1.596022
     68          1           0        5.185393    5.425983    0.083998
     69          1           0        9.218708    0.389478    0.250396
     70          1           0        1.563984   -3.010920   -0.797332
     71          1           0       -0.153689   -0.759559   -0.526237
     72          1           0       -0.105074   -2.085653   -2.619228
     73          1           0        1.405993   -1.473595   -3.044812
     74          1           0        0.066580   -0.298371   -2.841653
     75          1           0       -0.001950   -1.962502    1.486403
     76          1           0        1.634422   -2.512017    1.920148
     77          1           0       -0.383047   -4.130271    2.057774
     78          1           0        1.020904   -4.588216    1.336260
     79          1           0       -0.033193    4.975350   -0.773847
     80          1           0       -0.380091    3.440526   -1.346666
     81          1           0        0.253029    4.623223   -2.536759
     82          1           0        0.692215    6.924628   -0.678381
     83          1           0        1.271352    6.741952   -2.301090
     84          1           0        1.835750    8.123228   -1.397160
     85          1           0        7.589512    4.627992    1.221035
     86          1           0        9.284657    2.922642   -0.560957
     87          1           0        9.239746    5.060153   -0.955089
     88          1           0        8.116000    6.269008   -0.350319
     89          1           0        7.556089    5.149219   -1.661569
     90          1           0       10.096236    3.860128    1.521689
     91          1           0       10.333153    2.190834    1.475708
     92          1           0        9.319310    3.257297    3.663129
     93          1           0        9.096634    1.572374    3.220572
     94          1           0        7.814439    2.605173    2.903316
     95          1           0        8.959433   -3.658430   -0.401114
     96          1           0        9.233641   -2.875080    1.207552
     97          1           0        9.852276   -2.080746   -0.215106
     98          1           0        4.010439   -3.984456    1.627291
     99          1           0        2.210246   -7.659144    1.121841
    100          1           0        3.287470   -7.805078   -0.275332
    101          1           0        1.810639   -6.948501   -0.463547
    102          1           0       -3.189616   -5.321309   -0.046154
    103          1           0       -2.779350   -4.684822   -1.628874
    104          1           0       -3.740376   -2.356084   -1.118906
    105          1           0       -6.949782   -5.154465   -0.564795
    106          1           0       -6.596859   -4.553943    1.056683
    107          1           0       -5.443821   -5.571434    0.159587
    108          1           0       -6.067802   -2.021872   -1.767547
    109          1           0       -5.890113   -1.459139   -0.114582
    110          1           0       -8.054450   -1.856797    0.302921
    111          1           0       -8.301833   -3.214403   -0.727762
    112          1           0       -8.896836   -2.127567   -2.513609
    113          1           0       -7.784537   -0.874460   -2.365533
    114          1           0       -9.225285   -0.021557   -0.283073
    115          1           0      -11.709379   -0.969137   -1.600500
    116          1           0      -11.084200   -1.207413    0.102704
    117          1           0      -10.709998   -2.293516   -1.318106
    118          1           0      -10.845864    0.762762   -2.469912
    119          1           0       -9.361232    0.348454   -3.236363
    120          1           0       -8.597877    2.439869   -2.777784
    121          1           0       -8.357637    1.812608   -1.138931
    122          1           0      -10.809695    3.360845   -2.282627
    123          1           0       -9.589760    4.037665   -1.419056
    124          1           0      -10.450231    1.938285    0.414982
    125          1           0      -12.929328    2.122589    0.486992
    126          1           0      -12.317580    1.387221   -0.922967
    127          1           0      -12.940750    3.062491   -1.071968
    128          1           0      -11.564315    3.673338    1.843611
    129          1           0      -10.905706    4.832157    0.713393
    130          1           0       -9.339984    4.639660    2.402715
    131          1           0       -8.684470    3.262827    1.340770
    132          1           0      -10.638225    2.167713    3.047033
    133          1           0       -9.766252    3.140527    3.994950
    134          1           0       -7.736982    1.523890    2.458926
    135          1           0       -8.461906   -0.476279    2.380603
    136          1           0      -10.027372    0.298059    2.086329
    137          1           0       -9.661674   -0.309845    3.637589
    138          1           0       -7.893406    0.346543    4.845577
    139          1           0       -8.245521    2.155710    5.214130
    140          1           0       -6.763824    1.587656    4.357221
 ---------------------------------------------------------------------

 SCF Done:  E(RZINDO/S) =  -474.321548169     A.U. after   19 cycles

 Excitation energies and oscillator strengths:

 Excited State   1:      Singlet-A      1.3115 eV  945.35 nm  f=0.5311  <S**2>=0.000
     175 ->178         0.14516
     176 ->177         0.67291
 This state for optimization and/or second-order correction.
 Total Energy, E(CIS/TDA) =  -474.273350712
 Copying the excited state density for this state as the 1-particle RhoCI density.

 Excited State   2:      Singlet-A      1.9280 eV  643.06 nm  f=0.0183  <S**2>=0.000
     175 ->177         0.51520
     176 ->178        -0.42921
     176 ->179         0.11679

 Excited State   3:      Singlet-A      2.8539 eV  434.44 nm  f=0.1345  <S**2>=0.000
     167 ->179        -0.15438
     168 ->177        -0.27664
     168 ->178         0.18824
     168 ->179         0.36770
     168 ->181        -0.12480
     168 ->186         0.15843
     175 ->177         0.16589
     176 ->178         0.23613

 Excited State   4:      Singlet-A      2.9447 eV  421.04 nm  f=0.6171  <S**2>=0.000
     168 ->177         0.13650
     168 ->179        -0.19236
     175 ->177         0.34448
     176 ->178         0.47068
     176 ->179         0.15756

 Excited State   5:      Singlet-A      2.9902 eV  414.64 nm  f=0.2929  <S**2>=0.000
     175 ->177        -0.18625
     176 ->179         0.59605
     176 ->181         0.24212

 The electronic state is 1-A.
 Alpha  occ. eigenvalues --   -1.83202  -1.82176  -1.79555  -1.72165  -1.70493
 Alpha  occ. eigenvalues --   -1.69304  -1.66373  -1.61463  -1.59051  -1.56701
 Alpha  occ. eigenvalues --   -1.54267  -1.50160  -1.47995  -1.47586  -1.46965
 Alpha  occ. eigenvalues --   -1.45026  -1.44027  -1.42040  -1.39851  -1.39596
 Alpha  occ. eigenvalues --   -1.37956  -1.35137  -1.33232  -1.31563  -1.28958
 Alpha  occ. eigenvalues --   -1.28407  -1.24981  -1.22350  -1.20498  -1.17897
 Alpha  occ. eigenvalues --   -1.16995  -1.16250  -1.15838  -1.14459  -1.13677
 Alpha  occ. eigenvalues --   -1.12413  -1.12251  -1.11383  -1.04555  -1.03373
 Alpha  occ. eigenvalues --   -1.02441  -1.00887  -0.99299  -0.97788  -0.96617
 Alpha  occ. eigenvalues --   -0.95899  -0.95022  -0.94198  -0.93719  -0.92988
 Alpha  occ. eigenvalues --   -0.90668  -0.89748  -0.88329  -0.87701  -0.87261
 Alpha  occ. eigenvalues --   -0.85434  -0.84211  -0.82941  -0.81676  -0.80911
 Alpha  occ. eigenvalues --   -0.80008  -0.78307  -0.76281  -0.76165  -0.75576
 Alpha  occ. eigenvalues --   -0.75310  -0.75191  -0.74714  -0.73897  -0.73537
 Alpha  occ. eigenvalues --   -0.72597  -0.72286  -0.71697  -0.71511  -0.71077
 Alpha  occ. eigenvalues --   -0.70496  -0.69168  -0.68873  -0.68465  -0.68198
 Alpha  occ. eigenvalues --   -0.68109  -0.67172  -0.66625  -0.65676  -0.65315
 Alpha  occ. eigenvalues --   -0.64582  -0.64217  -0.64049  -0.63703  -0.63582
 Alpha  occ. eigenvalues --   -0.63300  -0.62762  -0.62534  -0.62248  -0.62138
 Alpha  occ. eigenvalues --   -0.61974  -0.61277  -0.60903  -0.60747  -0.60445
 Alpha  occ. eigenvalues --   -0.59902  -0.59538  -0.59413  -0.59144  -0.58579
 Alpha  occ. eigenvalues --   -0.58481  -0.58026  -0.57563  -0.57546  -0.56994
 Alpha  occ. eigenvalues --   -0.56788  -0.56148  -0.55977  -0.55051  -0.54931
 Alpha  occ. eigenvalues --   -0.54663  -0.53842  -0.53552  -0.53037  -0.52608
 Alpha  occ. eigenvalues --   -0.52343  -0.52000  -0.51650  -0.51322  -0.50948
 Alpha  occ. eigenvalues --   -0.50720  -0.50613  -0.50438  -0.49880  -0.49783
 Alpha  occ. eigenvalues --   -0.49649  -0.49274  -0.48991  -0.48696  -0.48409
 Alpha  occ. eigenvalues --   -0.48224  -0.48066  -0.47927  -0.47790  -0.47392
 Alpha  occ. eigenvalues --   -0.47351  -0.46890  -0.46667  -0.46568  -0.46435
 Alpha  occ. eigenvalues --   -0.46229  -0.45975  -0.45516  -0.45382  -0.45091
 Alpha  occ. eigenvalues --   -0.44826  -0.44588  -0.44419  -0.44215  -0.44012
 Alpha  occ. eigenvalues --   -0.43993  -0.43583  -0.43273  -0.42432  -0.42343
 Alpha  occ. eigenvalues --   -0.42232  -0.41689  -0.40265  -0.38917  -0.38852
 Alpha  occ. eigenvalues --   -0.37635  -0.36810  -0.36328  -0.34432  -0.33994
 Alpha  occ. eigenvalues --   -0.33807  -0.32387  -0.32317  -0.30364  -0.26593
 Alpha  occ. eigenvalues --   -0.21461
 Alpha virt. eigenvalues --   -0.07987  -0.02014  -0.00987   0.01319   0.01769
 Alpha virt. eigenvalues --    0.02240   0.03048   0.03915   0.03944   0.04720
 Alpha virt. eigenvalues --    0.06382   0.06673   0.07843   0.08144   0.08320

 Mulliken charges:
               1
     1  Mg   0.422093
     2  C   -0.029880
     3  C   -0.077306
     4  C   -0.090846
     5  C   -0.064910
     6  N   -0.295944
     7  C    0.078552
     8  C    0.012101
     9  C    0.013213
    10  C    0.167657
    11  C   -0.042494
    12  C   -0.008723
    13  C   -0.003935
    14  C    0.487442
    15  O   -0.508691
    16  O   -0.272774
    17  N   -0.338845
    18  C    0.163592
    19  C    0.035026
    20  C   -0.045319
    21  C    0.171040
    22  C   -0.039068
    23  C    0.329476
    24  O   -0.526233
    25  C   -0.028140
    26  N   -0.279812
    27  C    0.185209
    28  C    0.008695
    29  C    0.000893
    30  C    0.079462
    31  C   -0.048159
    32  C   -0.026870
    33  C   -0.054746
    34  N   -0.335242
    35  C    0.066307
    36  C    0.005901
    37  C   -0.068020
    38  C    0.090194
    39  C   -0.036537
    40  C    0.334784
    41  O   -0.518449
    42  C    0.061882
    43  C    0.482467
    44  O   -0.502287
    45  O   -0.285811
    46  C    0.074854
    47  C    0.093224
    48  C   -0.102179
    49  C    0.000913
    50  C   -0.042712
    51  C   -0.026715
    52  C   -0.031896
    53  C   -0.021622
    54  C   -0.016997
    55  C   -0.065558
    56  C   -0.037442
    57  C   -0.029916
    58  C   -0.041829
    59  C   -0.019062
    60  C   -0.057462
    61  C   -0.037052
    62  C   -0.036531
    63  C   -0.031351
    64  C   -0.013531
    65  C   -0.053586
    66  C   -0.063260
    67  H    0.020265
    68  H    0.058549
    69  H    0.023952
    70  H    0.041328
    71  H    0.022042
    72  H    0.021946
    73  H    0.029759
    74  H    0.020862
    75  H    0.020601
    76  H    0.031129
    77  H    0.029852
    78  H    0.023643
    79  H    0.029617
    80  H    0.022285
    81  H    0.047530
    82  H    0.039777
    83  H    0.031332
    84  H    0.038803
    85  H    0.035425
    86  H    0.027365
    87  H    0.024917
    88  H    0.024965
    89  H    0.031411
    90  H    0.010098
    91  H    0.016333
    92  H    0.018312
    93  H    0.018679
    94  H    0.020684
    95  H    0.038521
    96  H    0.031386
    97  H    0.023478
    98  H    0.057925
    99  H    0.030940
   100  H    0.039461
   101  H    0.049432
   102  H    0.047457
   103  H    0.055828
   104  H    0.037017
   105  H    0.030760
   106  H    0.031082
   107  H    0.019825
   108  H    0.019643
   109  H    0.028402
   110  H    0.013028
   111  H    0.017626
   112  H    0.018735
   113  H    0.008135
   114  H    0.029425
   115  H    0.022443
   116  H    0.024549
   117  H    0.018333
   118  H    0.020648
   119  H    0.012986
   120  H    0.014165
   121  H    0.023457
   122  H    0.021861
   123  H    0.006770
   124  H    0.019650
   125  H    0.013987
   126  H    0.016734
   127  H    0.030401
   128  H    0.016610
   129  H    0.016023
   130  H    0.024102
   131  H    0.024142
   132  H    0.019429
   133  H    0.006587
   134  H    0.020434
   135  H    0.007946
   136  H    0.015015
   137  H    0.011703
   138  H    0.027845
   139  H    0.031683
   140  H    0.015690
 Sum of Mulliken charges =  -0.00000

 Dipole moment (field-independent basis, Debye):
    X=            -10.3134    Y=              7.7453    Z=              2.8486  Tot=             13.2087
 N-N= 4.422912333978D+03 E-N= 0.000000000000D+00  KE=-9.520339896257D+03
 Leave Link  601 at Thu Apr 28 10:39:09 2022, MaxMem=  6710886400 cpu:               0.8 elap:               0.0
 (Enter /sw/apps/gaussian-16.0/g16/l9999.exe)
 1\1\GINC-BP1-COMPUTE156\SP\RZINDO CIS\STO-3G\C55H74Mg1N4O6\OF15641\28-
 Apr-2022\0\\#p ZINDO=(nstates=5)\\step_151_chromophore_21 ZINDO\\0,1\M
 g,0,16.195,52.573,25.26\C,0,17.667,51.237,28.054\C,0,13.283,53.113,27.
 201\C,0,14.407,53.812,22.611\C,0,18.409,50.997,23.217\N,0,15.588,52.33
 4,27.395\C,0,16.441,51.903,28.388\C,0,15.791,52.142,29.76\C,0,14.294,5
 2.334,29.424\C,0,14.348,52.651,27.918\C,0,13.295,51.212,29.665\C,0,16.
 496,53.207,30.601\C,0,16.813,52.771,32.062\C,0,15.988,52.063,33.014\O,

 Normal termination of Gaussian 16 at Thu Apr 28 10:39:09 2022.
