 Gaussian 16, Revision A.03,
 Gaussian 16:  ES64L-G16RevA.03 25-Dec-2016

 ------------------------------
 #p blyp/Def2SVP td=(nstates=5)
 ------------------------------

 ---------------------------------------------------
 step_1851_chromophore_15 TDDFT with blyp functional
 ---------------------------------------------------
 Symbolic Z-matrix:
 Charge =  0 Multiplicity = 1

                         Standard orientation:
 ---------------------------------------------------------------------
 Center     Atomic      Atomic             Coordinates (Angstroms)
 Number     Number       Type             X           Y           Z
 ---------------------------------------------------------------------
      1         12           0       -4.492668    1.116017   -0.157536
      2          6           0       -4.396277   -2.313205    0.571071
      3          6           0       -1.056558    1.128224   -0.194919
      4          6           0       -4.664701    4.446977   -0.031126
      5          6           0       -7.995147    0.817541    0.596239
      6          7           0       -2.900023   -0.328293    0.230325
      7          6           0       -3.103324   -1.704181    0.438202
      8          6           0       -1.918334   -2.480702    0.032515
      9          6           0       -0.821693   -1.377709    0.301768
     10          6           0       -1.612845   -0.077618    0.065179
     11          6           0       -0.220609   -1.352214    1.797168
     12          6           0       -2.045157   -2.945343   -1.481250
     13          6           0       -1.097388   -4.103460   -1.861414
     14          6           0        0.180253   -4.217875   -1.020548
     15          8           0        0.286080   -4.884791    0.039887
     16          8           0        1.270998   -3.575104   -1.591561
     17          7           0       -3.054899    2.533160   -0.199993
     18          6           0       -1.720823    2.387371   -0.344558
     19          6           0       -1.058413    3.658271   -0.644448
     20          6           0       -2.095320    4.658525   -0.478972
     21          6           0       -3.367513    3.899754   -0.249878
     22          6           0        0.385438    3.796567   -1.031284
     23          6           0       -1.929437    6.163294   -0.568715
     24          8           0       -2.871038    6.933117   -0.285708
     25          6           0       -0.624728    6.853936   -1.005055
     26          7           0       -6.085764    2.486258    0.257565
     27          6           0       -5.935972    3.813372    0.163288
     28          6           0       -7.249131    4.509698    0.499135
     29          6           0       -8.279146    3.367739    0.507889
     30          6           0       -7.423403    2.133073    0.429216
     31          6           0       -7.265676    5.333579    1.783749
     32          6           0       -9.196070    3.360073   -0.851123
     33          6           0      -10.713751    3.097295   -0.644941
     34          7           0       -5.989164   -0.410388    0.135030
     35          6           0       -7.317408   -0.327351    0.435567
     36          6           0       -7.853704   -1.753881    0.545459
     37          6           0       -6.714741   -2.557118    0.626263
     38          6           0       -5.617403   -1.695603    0.402549
     39          6           0       -9.279029   -2.179627    0.779679
     40          6           0       -6.244882   -3.923915    0.764986
     41          8           0       -6.835720   -4.979672    0.719129
     42          6           0       -4.790645   -3.724443    1.112226
     43          6           0       -4.136371   -4.860129    0.622357
     44          8           0       -4.090374   -5.210909   -0.552649
     45          8           0       -3.574533   -5.544127    1.685329
     46          6           0       -2.789050   -6.722555    1.270241
     47          6           0        2.591169   -3.821393   -0.892785
     48          6           0        3.802796   -3.617262   -1.836955
     49          6           0        5.094896   -3.326516   -1.476809
     50          6           0        5.546077   -3.404518    0.007093
     51          6           0        6.106651   -2.870280   -2.448358
     52          6           0        5.773591   -1.502251   -3.120315
     53          6           0        7.053149   -0.707681   -3.508299
     54          6           0        7.586618    0.429577   -2.575470
     55          6           0        6.937785    1.800605   -2.669838
     56          6           0        9.028879    0.668411   -2.873770
     57          6           0        9.776566    0.591382   -1.598848
     58          6           0       11.215546    1.190936   -1.606296
     59          6           0       11.385992    2.078221   -0.385590
     60          6           0       12.750571    2.924784   -0.663042
     61          6           0       11.489583    1.222660    0.889610
     62          6           0       10.754762    1.778886    2.155431
     63          6           0       11.363851    1.259005    3.446707
     64          6           0       10.399075    0.476884    4.354153
     65          6           0        9.508296    1.381181    5.223566
     66          6           0       11.243421   -0.510506    5.279199
     67          1           0       -0.008944    0.977404   -0.461206
     68          1           0       -4.820912    5.513541   -0.205061
     69          1           0       -9.074836    0.865743    0.753709
     70          1           0       -1.795342   -3.345901    0.684341
     71          1           0       -0.045044   -1.495144   -0.454561
     72          1           0        0.850647   -1.523381    1.693079
     73          1           0       -0.452815   -2.301553    2.282082
     74          1           0       -0.456270   -0.481519    2.408484
     75          1           0       -1.767863   -2.033279   -2.011204
     76          1           0       -3.082160   -3.232107   -1.659907
     77          1           0       -0.844513   -4.041768   -2.919914
     78          1           0       -1.631185   -5.052571   -1.793716
     79          1           0        0.709079    4.439231   -0.212095
     80          1           0        0.483305    4.351363   -1.964423
     81          1           0        1.010757    2.915416   -1.174429
     82          1           0       -0.783610    7.914661   -0.808871
     83          1           0       -0.491494    6.742933   -2.081116
     84          1           0        0.276155    6.507197   -0.498559
     85          1           0       -7.615453    5.119710   -0.326088
     86          1           0       -8.918433    3.419964    1.389619
     87          1           0       -6.685843    4.820592    2.551490
     88          1           0       -8.319797    5.557657    1.949877
     89          1           0       -6.882003    6.337483    1.598996
     90          1           0       -8.915180    2.603903   -1.583680
     91          1           0       -9.177274    4.296649   -1.408315
     92          1           0      -11.198589    4.009176   -0.995100
     93          1           0      -10.874897    2.819735    0.396185
     94          1           0      -10.985710    2.260148   -1.288517
     95          1           0       -9.908344   -1.376218    1.163559
     96          1           0       -9.221599   -3.001863    1.492838
     97          1           0       -9.710059   -2.675420   -0.089657
     98          1           0       -4.756431   -3.686890    2.201671
     99          1           0       -1.749072   -6.484295    1.049525
    100          1           0       -3.216477   -7.247924    0.415511
    101          1           0       -2.700925   -7.305772    2.186293
    102          1           0        2.788355   -4.793837   -0.440606
    103          1           0        2.667550   -3.139765   -0.045726
    104          1           0        3.482890   -3.420457   -2.860925
    105          1           0        5.936127   -2.411065    0.225938
    106          1           0        6.250102   -4.222770    0.158398
    107          1           0        4.757847   -3.598837    0.734774
    108          1           0        6.297355   -3.568822   -3.263539
    109          1           0        7.076577   -2.872329   -1.949357
    110          1           0        5.189030   -0.874062   -2.448288
    111          1           0        5.187165   -1.593588   -4.034586
    112          1           0        6.651941   -0.233985   -4.404584
    113          1           0        7.823326   -1.399436   -3.848857
    114          1           0        7.360824    0.013092   -1.593898
    115          1           0        6.866821    2.147927   -1.639521
    116          1           0        5.997325    1.779776   -3.221474
    117          1           0        7.518000    2.524961   -3.242289
    118          1           0        9.264077    1.535024   -3.491263
    119          1           0        9.467457   -0.113298   -3.494276
    120          1           0        9.873821   -0.480816   -1.430066
    121          1           0        9.195401    0.975279   -0.760672
    122          1           0       11.276551    1.810490   -2.500957
    123          1           0       11.978723    0.413117   -1.610633
    124          1           0       10.560098    2.774099   -0.242851
    125          1           0       12.659146    3.918564   -0.223457
    126          1           0       12.979697    3.203092   -1.691553
    127          1           0       13.635447    2.487366   -0.200854
    128          1           0       12.541859    1.185679    1.173783
    129          1           0       11.039576    0.230978    0.854482
    130          1           0        9.733317    1.447635    1.971041
    131          1           0       10.888301    2.860199    2.191783
    132          1           0       11.738407    2.108774    4.016801
    133          1           0       12.145478    0.530602    3.233553
    134          1           0        9.794881   -0.063753    3.626579
    135          1           0        9.873958    2.407131    5.246186
    136          1           0        9.421069    1.018706    6.247531
    137          1           0        8.483016    1.385187    4.850969
    138          1           0       11.012748   -1.515965    4.927928
    139          1           0       11.027363   -0.456234    6.346054
    140          1           0       12.315269   -0.353966    5.152712
 ---------------------------------------------------------------------

 SCF Done:  E(RB-LYP) =  -3007.35710105     A.U. after   21 cycles

 Excitation energies and oscillator strengths:

 Excited State   1:      Singlet-A      1.7766 eV  697.86 nm  f=0.2836  <S**2>=0.000
     245 -> 248       -0.21674
     246 -> 247        0.68107
     246 <- 247       -0.14052
 This state for optimization and/or second-order correction.
 Total Energy, E(TD-HF/TD-DFT) =  -3007.29181115
 Copying the excited state density for this state as the 1-particle RhoCI density.

 Excited State   2:      Singlet-A      1.9658 eV  630.69 nm  f=0.0047  <S**2>=0.000
     244 -> 247        0.61465
     245 -> 247        0.31984
     246 -> 248        0.12940

 Excited State   3:      Singlet-A      2.0312 eV  610.41 nm  f=0.0167  <S**2>=0.000
     244 -> 247       -0.34463
     245 -> 247        0.51663
     246 -> 248        0.31685

 Excited State   4:      Singlet-A      2.3543 eV  526.62 nm  f=0.0023  <S**2>=0.000
     243 -> 247        0.69972

 Excited State   5:      Singlet-A      2.4244 eV  511.41 nm  f=0.0002  <S**2>=0.000
     242 -> 247        0.70690

 The electronic state is 1-A.
 Alpha  occ. eigenvalues --  -46.26936 -18.83506 -18.81679 -18.77564 -18.76469
 Alpha  occ. eigenvalues --  -18.76307 -18.74969 -14.03164 -14.02768 -14.01192
 Alpha  occ. eigenvalues --  -14.00926 -10.05142 -10.02948  -9.99747  -9.99745
 Alpha  occ. eigenvalues --   -9.98777  -9.96727  -9.96457  -9.96294  -9.96232
 Alpha  occ. eigenvalues --   -9.96121  -9.95645  -9.95557  -9.95203  -9.94423
 Alpha  occ. eigenvalues --   -9.94232  -9.94078  -9.93868  -9.93812  -9.93733
 Alpha  occ. eigenvalues --   -9.93731  -9.93496  -9.93395  -9.93323  -9.93292
 Alpha  occ. eigenvalues --   -9.93280  -9.93173  -9.93094  -9.92994  -9.92829
 Alpha  occ. eigenvalues --   -9.92711  -9.92549  -9.92424  -9.92410  -9.92375
 Alpha  occ. eigenvalues --   -9.92367  -9.92364  -9.92224  -9.92153  -9.92111
 Alpha  occ. eigenvalues --   -9.92044  -9.92029  -9.92018  -9.91926  -9.91292
 Alpha  occ. eigenvalues --   -9.91266  -9.91045  -9.91041  -9.90993  -9.90929
 Alpha  occ. eigenvalues --   -9.90928  -9.90847  -9.90745  -9.90718  -9.90708
 Alpha  occ. eigenvalues --   -9.90444  -2.91592  -1.72006  -1.71472  -1.71311
 Alpha  occ. eigenvalues --   -0.97044  -0.97023  -0.92519  -0.89770  -0.89281
 Alpha  occ. eigenvalues --   -0.88835  -0.86564  -0.85986  -0.85501  -0.84432
 Alpha  occ. eigenvalues --   -0.76553  -0.74469  -0.73328  -0.72636  -0.72412
 Alpha  occ. eigenvalues --   -0.72126  -0.71197  -0.70945  -0.70441  -0.70227
 Alpha  occ. eigenvalues --   -0.69615  -0.68809  -0.68305  -0.67856  -0.67376
 Alpha  occ. eigenvalues --   -0.66604  -0.65771  -0.65145  -0.64864  -0.64231
 Alpha  occ. eigenvalues --   -0.64093  -0.62713  -0.62062  -0.61759  -0.61153
 Alpha  occ. eigenvalues --   -0.60638  -0.59990  -0.59731  -0.59586  -0.59069
 Alpha  occ. eigenvalues --   -0.58046  -0.57126  -0.56786  -0.55708  -0.54452
 Alpha  occ. eigenvalues --   -0.54265  -0.53513  -0.52698  -0.52461  -0.51660
 Alpha  occ. eigenvalues --   -0.51260  -0.51175  -0.50601  -0.50313  -0.50097
 Alpha  occ. eigenvalues --   -0.49902  -0.49041  -0.48913  -0.47951  -0.46481
 Alpha  occ. eigenvalues --   -0.46346  -0.46071  -0.45765  -0.45569  -0.45077
 Alpha  occ. eigenvalues --   -0.44408  -0.42905  -0.42731  -0.42503  -0.42336
 Alpha  occ. eigenvalues --   -0.42122  -0.41775  -0.41548  -0.41413  -0.41010
 Alpha  occ. eigenvalues --   -0.40858  -0.40761  -0.40481  -0.40184  -0.40000
 Alpha  occ. eigenvalues --   -0.39839  -0.39666  -0.39597  -0.39432  -0.39189
 Alpha  occ. eigenvalues --   -0.39124  -0.38542  -0.38489  -0.38331  -0.38301
 Alpha  occ. eigenvalues --   -0.37903  -0.37739  -0.37560  -0.37356  -0.37154
 Alpha  occ. eigenvalues --   -0.37056  -0.36782  -0.36665  -0.36519  -0.36399
 Alpha  occ. eigenvalues --   -0.36282  -0.36114  -0.36080  -0.36011  -0.35892
 Alpha  occ. eigenvalues --   -0.35448  -0.35069  -0.35040  -0.34817  -0.34755
 Alpha  occ. eigenvalues --   -0.34573  -0.34435  -0.33996  -0.33973  -0.33908
 Alpha  occ. eigenvalues --   -0.33806  -0.33466  -0.33399  -0.33260  -0.33076
 Alpha  occ. eigenvalues --   -0.32973  -0.32575  -0.32393  -0.32232  -0.32055
 Alpha  occ. eigenvalues --   -0.31918  -0.31848  -0.31524  -0.31514  -0.31450
 Alpha  occ. eigenvalues --   -0.31299  -0.31180  -0.30986  -0.30690  -0.30567
 Alpha  occ. eigenvalues --   -0.30286  -0.30161  -0.30108  -0.30035  -0.29866
 Alpha  occ. eigenvalues --   -0.29706  -0.29592  -0.29330  -0.29272  -0.29126
 Alpha  occ. eigenvalues --   -0.29104  -0.28820  -0.28691  -0.28674  -0.27946
 Alpha  occ. eigenvalues --   -0.27612  -0.27403  -0.27096  -0.26730  -0.26574
 Alpha  occ. eigenvalues --   -0.26316  -0.26277  -0.25858  -0.25827  -0.25438
 Alpha  occ. eigenvalues --   -0.25132  -0.24944  -0.24514  -0.23762  -0.23459
 Alpha  occ. eigenvalues --   -0.23450  -0.22282  -0.21871  -0.21527  -0.20507
 Alpha  occ. eigenvalues --   -0.20215  -0.19882  -0.19497  -0.18172  -0.17213
 Alpha  occ. eigenvalues --   -0.15269
 Alpha virt. eigenvalues --   -0.10974  -0.07564  -0.06420  -0.04581  -0.04332
 Alpha virt. eigenvalues --   -0.02699  -0.02660  -0.02529  -0.01239   0.00183
 Alpha virt. eigenvalues --    0.01064   0.01631   0.01971   0.02606   0.02842

 Mulliken charges:
               1
     1  Mg   0.699791
     2  C    0.005946
     3  C   -0.060342
     4  C   -0.025962
     5  C   -0.101443
     6  N   -0.214671
     7  C   -0.075098
     8  C   -0.040746
     9  C   -0.001715
    10  C   -0.015929
    11  C    0.139873
    12  C    0.119824
    13  C    0.182302
    14  C    0.097687
    15  O   -0.227208
    16  O   -0.283809
    17  N   -0.303803
    18  C    0.143237
    19  C   -0.149108
    20  C    0.045420
    21  C    0.128709
    22  C    0.170266
    23  C   -0.080222
    24  O   -0.194375
    25  C    0.121452
    26  N   -0.228468
    27  C   -0.020290
    28  C    0.067104
    29  C   -0.009134
    30  C    0.011082
    31  C    0.151215
    32  C    0.033221
    33  C    0.060156
    34  N   -0.239161
    35  C    0.179109
    36  C   -0.193169
    37  C    0.084523
    38  C    0.082971
    39  C    0.175033
    40  C   -0.052253
    41  O   -0.115909
    42  C    0.117899
    43  C    0.096002
    44  O   -0.197928
    45  O   -0.277532
    46  C    0.205560
    47  C    0.279069
    48  C   -0.097412
    49  C   -0.154131
    50  C    0.120513
    51  C    0.159794
    52  C    0.065411
    53  C    0.075645
    54  C   -0.056573
    55  C    0.139937
    56  C    0.135769
    57  C    0.017605
    58  C    0.143159
    59  C   -0.052194
    60  C    0.080680
    61  C    0.059394
    62  C    0.075260
    63  C    0.093343
    64  C   -0.116572
    65  C    0.119633
    66  C    0.095300
    67  H   -0.072141
    68  H   -0.036154
    69  H   -0.065542
    70  H   -0.007418
    71  H   -0.031073
    72  H   -0.019332
    73  H   -0.009363
    74  H    0.017571
    75  H   -0.020451
    76  H    0.015519
    77  H   -0.012455
    78  H    0.010575
    79  H    0.016238
    80  H    0.002907
    81  H   -0.003793
    82  H   -0.006180
    83  H    0.008581
    84  H   -0.003844
    85  H   -0.040745
    86  H   -0.021032
    87  H    0.010101
    88  H   -0.017431
    89  H   -0.006772
    90  H   -0.008605
    91  H   -0.020388
    92  H    0.000179
    93  H   -0.001672
    94  H   -0.006874
    95  H   -0.005034
    96  H    0.001164
    97  H    0.007355
    98  H    0.012561
    99  H    0.017068
   100  H    0.028008
   101  H    0.000937
   102  H    0.020952
   103  H    0.008528
   104  H   -0.028856
   105  H    0.003338
   106  H    0.011868
   107  H   -0.021552
   108  H   -0.017191
   109  H   -0.041472
   110  H   -0.034143
   111  H   -0.022430
   112  H   -0.054018
   113  H   -0.032794
   114  H   -0.037721
   115  H   -0.012837
   116  H   -0.025664
   117  H   -0.019749
   118  H   -0.034975
   119  H   -0.053130
   120  H   -0.034619
   121  H   -0.024504
   122  H   -0.041069
   123  H   -0.028676
   124  H   -0.032629
   125  H   -0.028852
   126  H   -0.018253
   127  H   -0.011464
   128  H   -0.029729
   129  H   -0.024304
   130  H   -0.026160
   131  H   -0.034026
   132  H   -0.032011
   133  H   -0.030663
   134  H   -0.036983
   135  H   -0.016613
   136  H   -0.020018
   137  H   -0.020416
   138  H   -0.014778
   139  H   -0.014420
   140  H   -0.014168
 Sum of Mulliken charges =  -0.00000

 Dipole moment (field-independent basis, Debye):
    X=              3.2740    Y=              2.0995    Z=             -1.2908  Tot=              4.0979
 Quadrupole moment (field-independent basis, Debye-Ang):
   XX=           -376.5146   YY=           -444.8459   ZZ=           -400.5160
   XY=            -30.0181   XZ=             -3.1554   YZ=             -4.7963

 Normal termination of Gaussian 16 at Wed May  4 15:52:58 2022.
