 Gaussian 16, Revision A.03,
 Gaussian 16:  ES64L-G16RevA.03 25-Dec-2016

 -----------------------------------
 #p cam-b3lyp/Def2SVP td=(nstates=5)
 -----------------------------------

 --------------------------------------------------------
 step_1851_chromophore_15 TDDFT with cam-b3lyp functional
 --------------------------------------------------------
 Symbolic Z-matrix:
 Charge =  0 Multiplicity = 1

                         Standard orientation:
 ---------------------------------------------------------------------
 Center     Atomic      Atomic             Coordinates (Angstroms)
 Number     Number       Type             X           Y           Z
 ---------------------------------------------------------------------
      1         12           0       -4.492668    1.116017   -0.157536
      2          6           0       -4.396277   -2.313205    0.571071
      3          6           0       -1.056558    1.128224   -0.194919
      4          6           0       -4.664701    4.446977   -0.031126
      5          6           0       -7.995147    0.817541    0.596239
      6          7           0       -2.900023   -0.328293    0.230325
      7          6           0       -3.103324   -1.704181    0.438202
      8          6           0       -1.918334   -2.480702    0.032515
      9          6           0       -0.821693   -1.377709    0.301768
     10          6           0       -1.612845   -0.077618    0.065179
     11          6           0       -0.220609   -1.352214    1.797168
     12          6           0       -2.045157   -2.945343   -1.481250
     13          6           0       -1.097388   -4.103460   -1.861414
     14          6           0        0.180253   -4.217875   -1.020548
     15          8           0        0.286080   -4.884791    0.039887
     16          8           0        1.270998   -3.575104   -1.591561
     17          7           0       -3.054899    2.533160   -0.199993
     18          6           0       -1.720823    2.387371   -0.344558
     19          6           0       -1.058413    3.658271   -0.644448
     20          6           0       -2.095320    4.658525   -0.478972
     21          6           0       -3.367513    3.899754   -0.249878
     22          6           0        0.385438    3.796567   -1.031284
     23          6           0       -1.929437    6.163294   -0.568715
     24          8           0       -2.871038    6.933117   -0.285708
     25          6           0       -0.624728    6.853936   -1.005055
     26          7           0       -6.085764    2.486258    0.257565
     27          6           0       -5.935972    3.813372    0.163288
     28          6           0       -7.249131    4.509698    0.499135
     29          6           0       -8.279146    3.367739    0.507889
     30          6           0       -7.423403    2.133073    0.429216
     31          6           0       -7.265676    5.333579    1.783749
     32          6           0       -9.196070    3.360073   -0.851123
     33          6           0      -10.713751    3.097295   -0.644941
     34          7           0       -5.989164   -0.410388    0.135030
     35          6           0       -7.317408   -0.327351    0.435567
     36          6           0       -7.853704   -1.753881    0.545459
     37          6           0       -6.714741   -2.557118    0.626263
     38          6           0       -5.617403   -1.695603    0.402549
     39          6           0       -9.279029   -2.179627    0.779679
     40          6           0       -6.244882   -3.923915    0.764986
     41          8           0       -6.835720   -4.979672    0.719129
     42          6           0       -4.790645   -3.724443    1.112226
     43          6           0       -4.136371   -4.860129    0.622357
     44          8           0       -4.090374   -5.210909   -0.552649
     45          8           0       -3.574533   -5.544127    1.685329
     46          6           0       -2.789050   -6.722555    1.270241
     47          6           0        2.591169   -3.821393   -0.892785
     48          6           0        3.802796   -3.617262   -1.836955
     49          6           0        5.094896   -3.326516   -1.476809
     50          6           0        5.546077   -3.404518    0.007093
     51          6           0        6.106651   -2.870280   -2.448358
     52          6           0        5.773591   -1.502251   -3.120315
     53          6           0        7.053149   -0.707681   -3.508299
     54          6           0        7.586618    0.429577   -2.575470
     55          6           0        6.937785    1.800605   -2.669838
     56          6           0        9.028879    0.668411   -2.873770
     57          6           0        9.776566    0.591382   -1.598848
     58          6           0       11.215546    1.190936   -1.606296
     59          6           0       11.385992    2.078221   -0.385590
     60          6           0       12.750571    2.924784   -0.663042
     61          6           0       11.489583    1.222660    0.889610
     62          6           0       10.754762    1.778886    2.155431
     63          6           0       11.363851    1.259005    3.446707
     64          6           0       10.399075    0.476884    4.354153
     65          6           0        9.508296    1.381181    5.223566
     66          6           0       11.243421   -0.510506    5.279199
     67          1           0       -0.008944    0.977404   -0.461206
     68          1           0       -4.820912    5.513541   -0.205061
     69          1           0       -9.074836    0.865743    0.753709
     70          1           0       -1.795342   -3.345901    0.684341
     71          1           0       -0.045044   -1.495144   -0.454561
     72          1           0        0.850647   -1.523381    1.693079
     73          1           0       -0.452815   -2.301553    2.282082
     74          1           0       -0.456270   -0.481519    2.408484
     75          1           0       -1.767863   -2.033279   -2.011204
     76          1           0       -3.082160   -3.232107   -1.659907
     77          1           0       -0.844513   -4.041768   -2.919914
     78          1           0       -1.631185   -5.052571   -1.793716
     79          1           0        0.709079    4.439231   -0.212095
     80          1           0        0.483305    4.351363   -1.964423
     81          1           0        1.010757    2.915416   -1.174429
     82          1           0       -0.783610    7.914661   -0.808871
     83          1           0       -0.491494    6.742933   -2.081116
     84          1           0        0.276155    6.507197   -0.498559
     85          1           0       -7.615453    5.119710   -0.326088
     86          1           0       -8.918433    3.419964    1.389619
     87          1           0       -6.685843    4.820592    2.551490
     88          1           0       -8.319797    5.557657    1.949877
     89          1           0       -6.882003    6.337483    1.598996
     90          1           0       -8.915180    2.603903   -1.583680
     91          1           0       -9.177274    4.296649   -1.408315
     92          1           0      -11.198589    4.009176   -0.995100
     93          1           0      -10.874897    2.819735    0.396185
     94          1           0      -10.985710    2.260148   -1.288517
     95          1           0       -9.908344   -1.376218    1.163559
     96          1           0       -9.221599   -3.001863    1.492838
     97          1           0       -9.710059   -2.675420   -0.089657
     98          1           0       -4.756431   -3.686890    2.201671
     99          1           0       -1.749072   -6.484295    1.049525
    100          1           0       -3.216477   -7.247924    0.415511
    101          1           0       -2.700925   -7.305772    2.186293
    102          1           0        2.788355   -4.793837   -0.440606
    103          1           0        2.667550   -3.139765   -0.045726
    104          1           0        3.482890   -3.420457   -2.860925
    105          1           0        5.936127   -2.411065    0.225938
    106          1           0        6.250102   -4.222770    0.158398
    107          1           0        4.757847   -3.598837    0.734774
    108          1           0        6.297355   -3.568822   -3.263539
    109          1           0        7.076577   -2.872329   -1.949357
    110          1           0        5.189030   -0.874062   -2.448288
    111          1           0        5.187165   -1.593588   -4.034586
    112          1           0        6.651941   -0.233985   -4.404584
    113          1           0        7.823326   -1.399436   -3.848857
    114          1           0        7.360824    0.013092   -1.593898
    115          1           0        6.866821    2.147927   -1.639521
    116          1           0        5.997325    1.779776   -3.221474
    117          1           0        7.518000    2.524961   -3.242289
    118          1           0        9.264077    1.535024   -3.491263
    119          1           0        9.467457   -0.113298   -3.494276
    120          1           0        9.873821   -0.480816   -1.430066
    121          1           0        9.195401    0.975279   -0.760672
    122          1           0       11.276551    1.810490   -2.500957
    123          1           0       11.978723    0.413117   -1.610633
    124          1           0       10.560098    2.774099   -0.242851
    125          1           0       12.659146    3.918564   -0.223457
    126          1           0       12.979697    3.203092   -1.691553
    127          1           0       13.635447    2.487366   -0.200854
    128          1           0       12.541859    1.185679    1.173783
    129          1           0       11.039576    0.230978    0.854482
    130          1           0        9.733317    1.447635    1.971041
    131          1           0       10.888301    2.860199    2.191783
    132          1           0       11.738407    2.108774    4.016801
    133          1           0       12.145478    0.530602    3.233553
    134          1           0        9.794881   -0.063753    3.626579
    135          1           0        9.873958    2.407131    5.246186
    136          1           0        9.421069    1.018706    6.247531
    137          1           0        8.483016    1.385187    4.850969
    138          1           0       11.012748   -1.515965    4.927928
    139          1           0       11.027363   -0.456234    6.346054
    140          1           0       12.315269   -0.353966    5.152712
 ---------------------------------------------------------------------

 SCF Done:  E(RCAM-B3LYP) =  -3007.14623870     A.U. after   19 cycles

 Excitation energies and oscillator strengths:

 Excited State   1:      Singlet-A      1.7089 eV  725.53 nm  f=0.3575  <S**2>=0.000
     245 -> 248       -0.20050
     246 -> 247        0.67946
     245 <- 248       -0.11044
 This state for optimization and/or second-order correction.
 Total Energy, E(TD-HF/TD-DFT) =  -3007.08343847
 Copying the excited state density for this state as the 1-particle RhoCI density.

 Excited State   2:      Singlet-A      2.2539 eV  550.08 nm  f=0.0132  <S**2>=0.000
     245 -> 247        0.56023
     246 -> 248        0.42248

 Excited State   3:      Singlet-A      3.2765 eV  378.40 nm  f=0.7730  <S**2>=0.000
     242 -> 247       -0.15034
     245 -> 247       -0.40319
     246 -> 248        0.55566
     245 <- 247        0.10634

 Excited State   4:      Singlet-A      3.6105 eV  343.40 nm  f=0.0028  <S**2>=0.000
     242 -> 247       -0.34404
     244 -> 247        0.58316
     246 -> 249        0.10776

 Excited State   5:      Singlet-A      3.6396 eV  340.65 nm  f=0.0059  <S**2>=0.000
     240 -> 247       -0.11077
     241 -> 247        0.45259
     241 -> 248       -0.21207
     241 -> 249        0.27601
     241 -> 251        0.30706

 The electronic state is 1-A.
 Alpha  occ. eigenvalues --  -46.88461 -19.26383 -19.24746 -19.20524 -19.19857
 Alpha  occ. eigenvalues --  -19.19703 -19.18040 -14.42076 -14.41587 -14.39543
 Alpha  occ. eigenvalues --  -14.39446 -10.40540 -10.38561 -10.35283 -10.34862
 Alpha  occ. eigenvalues --  -10.32908 -10.31378 -10.31273 -10.30421 -10.30295
 Alpha  occ. eigenvalues --  -10.30285 -10.30227 -10.29530 -10.29316 -10.29245
 Alpha  occ. eigenvalues --  -10.29057 -10.28348 -10.28060 -10.27842 -10.27769
 Alpha  occ. eigenvalues --  -10.27690 -10.27682 -10.27668 -10.27358 -10.27317
 Alpha  occ. eigenvalues --  -10.27216 -10.26993 -10.26948 -10.26920 -10.26694
 Alpha  occ. eigenvalues --  -10.26624 -10.26538 -10.26430 -10.26399 -10.26168
 Alpha  occ. eigenvalues --  -10.26094 -10.25995 -10.25934 -10.25913 -10.25874
 Alpha  occ. eigenvalues --  -10.25825 -10.25692 -10.25676 -10.25664 -10.25404
 Alpha  occ. eigenvalues --  -10.24962 -10.24810 -10.24725 -10.24695 -10.24645
 Alpha  occ. eigenvalues --  -10.24547 -10.24495 -10.24384 -10.24328 -10.24288
 Alpha  occ. eigenvalues --  -10.24007  -3.17019  -1.91911  -1.91472  -1.91330
 Alpha  occ. eigenvalues --   -1.15753  -1.15369  -1.11246  -1.07978  -1.07338
 Alpha  occ. eigenvalues --   -1.06596  -1.04383  -1.03672  -1.03177  -1.01709
 Alpha  occ. eigenvalues --   -0.93946  -0.91342  -0.90163  -0.89387  -0.89167
 Alpha  occ. eigenvalues --   -0.88776  -0.87783  -0.87528  -0.87093  -0.86741
 Alpha  occ. eigenvalues --   -0.86179  -0.85080  -0.84646  -0.84077  -0.83491
 Alpha  occ. eigenvalues --   -0.82663  -0.81833  -0.80963  -0.80816  -0.80117
 Alpha  occ. eigenvalues --   -0.79912  -0.78412  -0.77680  -0.77232  -0.76532
 Alpha  occ. eigenvalues --   -0.76144  -0.75332  -0.74918  -0.74857  -0.74301
 Alpha  occ. eigenvalues --   -0.73031  -0.72172  -0.71663  -0.70494  -0.69128
 Alpha  occ. eigenvalues --   -0.68976  -0.68026  -0.67099  -0.66861  -0.65908
 Alpha  occ. eigenvalues --   -0.65357  -0.65246  -0.64594  -0.64154  -0.64117
 Alpha  occ. eigenvalues --   -0.63785  -0.62990  -0.62789  -0.61882  -0.60047
 Alpha  occ. eigenvalues --   -0.59903  -0.59702  -0.59295  -0.59078  -0.58738
 Alpha  occ. eigenvalues --   -0.57777  -0.56161  -0.55935  -0.55746  -0.55248
 Alpha  occ. eigenvalues --   -0.55081  -0.54873  -0.54678  -0.54516  -0.53801
 Alpha  occ. eigenvalues --   -0.53718  -0.53466  -0.53149  -0.52900  -0.52793
 Alpha  occ. eigenvalues --   -0.52509  -0.52251  -0.52125  -0.51981  -0.51916
 Alpha  occ. eigenvalues --   -0.51660  -0.51552  -0.50912  -0.50833  -0.50652
 Alpha  occ. eigenvalues --   -0.50441  -0.50204  -0.49795  -0.49712  -0.49582
 Alpha  occ. eigenvalues --   -0.49311  -0.49260  -0.49153  -0.48637  -0.48596
 Alpha  occ. eigenvalues --   -0.48473  -0.48352  -0.48228  -0.48103  -0.48008
 Alpha  occ. eigenvalues --   -0.47621  -0.47156  -0.46892  -0.46860  -0.46721
 Alpha  occ. eigenvalues --   -0.46452  -0.46320  -0.45945  -0.45829  -0.45626
 Alpha  occ. eigenvalues --   -0.45599  -0.45537  -0.45206  -0.44970  -0.44818
 Alpha  occ. eigenvalues --   -0.44364  -0.44292  -0.44142  -0.43931  -0.43822
 Alpha  occ. eigenvalues --   -0.43579  -0.43353  -0.43220  -0.42963  -0.42811
 Alpha  occ. eigenvalues --   -0.42784  -0.42579  -0.42483  -0.42222  -0.42149
 Alpha  occ. eigenvalues --   -0.41961  -0.41612  -0.41420  -0.41279  -0.41154
 Alpha  occ. eigenvalues --   -0.41101  -0.40907  -0.40511  -0.40336  -0.40147
 Alpha  occ. eigenvalues --   -0.40126  -0.39837  -0.39731  -0.39644  -0.38873
 Alpha  occ. eigenvalues --   -0.38669  -0.38207  -0.37876  -0.37801  -0.37462
 Alpha  occ. eigenvalues --   -0.37265  -0.36988  -0.36958  -0.36534  -0.36496
 Alpha  occ. eigenvalues --   -0.36116  -0.35628  -0.35553  -0.34523  -0.34347
 Alpha  occ. eigenvalues --   -0.34300  -0.33801  -0.33075  -0.31943  -0.30774
 Alpha  occ. eigenvalues --   -0.30374  -0.29970  -0.29468  -0.29364  -0.24088
 Alpha  occ. eigenvalues --   -0.20373
 Alpha virt. eigenvalues --   -0.07780  -0.02708   0.00031   0.02341   0.02430
 Alpha virt. eigenvalues --    0.03662   0.04746   0.04906   0.05860   0.07126
 Alpha virt. eigenvalues --    0.07620   0.07674   0.08486   0.09032   0.09311

 Mulliken charges:
               1
     1  Mg   0.832114
     2  C   -0.033628
     3  C   -0.067983
     4  C   -0.037154
     5  C   -0.106415
     6  N   -0.282676
     7  C   -0.007016
     8  C   -0.109456
     9  C   -0.056659
    10  C   -0.003486
    11  C    0.086672
    12  C    0.071648
    13  C    0.120749
    14  C    0.169172
    15  O   -0.269600
    16  O   -0.348280
    17  N   -0.391640
    18  C    0.149564
    19  C   -0.155382
    20  C   -0.023850
    21  C    0.145304
    22  C    0.111363
    23  C   -0.006007
    24  O   -0.236702
    25  C    0.046104
    26  N   -0.296935
    27  C   -0.004949
    28  C    0.008859
    29  C   -0.069012
    30  C    0.032013
    31  C    0.091583
    32  C   -0.015383
    33  C   -0.000462
    34  N   -0.326724
    35  C    0.181223
    36  C   -0.175540
    37  C    0.003163
    38  C    0.122175
    39  C    0.120832
    40  C    0.053388
    41  O   -0.151603
    42  C    0.028011
    43  C    0.183781
    44  O   -0.235947
    45  O   -0.340389
    46  C    0.165878
    47  C    0.252364
    48  C   -0.113962
    49  C   -0.181231
    50  C    0.062090
    51  C    0.098262
    52  C    0.013658
    53  C    0.025436
    54  C   -0.116627
    55  C    0.079943
    56  C    0.076583
    57  C   -0.027166
    58  C    0.088037
    59  C   -0.112618
    60  C    0.025199
    61  C    0.010225
    62  C    0.023093
    63  C    0.037899
    64  C   -0.170918
    65  C    0.058943
    66  C    0.035084
    67  H   -0.037880
    68  H    0.002607
    69  H   -0.029928
    70  H    0.024983
    71  H    0.003035
    72  H    0.003673
    73  H    0.015074
    74  H    0.043088
    75  H    0.009803
    76  H    0.047994
    77  H    0.023154
    78  H    0.042259
    79  H    0.037847
    80  H    0.027260
    81  H    0.024118
    82  H    0.028726
    83  H    0.035812
    84  H    0.023571
    85  H   -0.004181
    86  H    0.014253
    87  H    0.034193
    88  H    0.005965
    89  H    0.018615
    90  H    0.019972
    91  H    0.007799
    92  H    0.023693
    93  H    0.017576
    94  H    0.016331
    95  H    0.020429
    96  H    0.028800
    97  H    0.036392
    98  H    0.059186
    99  H    0.039313
   100  H    0.053030
   101  H    0.026168
   102  H    0.049323
   103  H    0.030698
   104  H    0.004899
   105  H    0.025270
   106  H    0.035709
   107  H    0.003149
   108  H    0.013842
   109  H   -0.010258
   110  H   -0.005593
   111  H    0.005883
   112  H   -0.024067
   113  H   -0.004650
   114  H   -0.007518
   115  H    0.011398
   116  H   -0.000841
   117  H    0.004873
   118  H   -0.006060
   119  H   -0.021468
   120  H   -0.007578
   121  H   -0.001586
   122  H   -0.011790
   123  H    0.000640
   124  H   -0.000467
   125  H   -0.004147
   126  H    0.006617
   127  H    0.011447
   128  H   -0.002591
   129  H    0.002513
   130  H   -0.000937
   131  H   -0.005509
   132  H   -0.003463
   133  H   -0.001640
   134  H   -0.006552
   135  H    0.006459
   136  H    0.004309
   137  H    0.003810
   138  H    0.009135
   139  H    0.009508
   140  H    0.009487
 Sum of Mulliken charges =  -0.00000

 Dipole moment (field-independent basis, Debye):
    X=              3.1727    Y=              1.9289    Z=             -1.3715  Tot=              3.9583
 Quadrupole moment (field-independent basis, Debye-Ang):
   XX=           -371.1197   YY=           -442.5663   ZZ=           -400.2097
   XY=            -27.8529   XZ=             -3.5942   YZ=             -5.7961

 Normal termination of Gaussian 16 at Wed May  4 14:40:57 2022.
