 Gaussian 16, Revision A.03,
 Gaussian 16:  ES64L-G16RevA.03 25-Dec-2016

 ---------------------------------
 #p PBE1PBE/Def2SVP td=(nstates=5)
 ---------------------------------

 ------------------------------------------------------
 step_1851_chromophore_15 TDDFT with PBE1PBE functional
 ------------------------------------------------------
 Symbolic Z-matrix:
 Charge =  0 Multiplicity = 1

                         Standard orientation:
 ---------------------------------------------------------------------
 Center     Atomic      Atomic             Coordinates (Angstroms)
 Number     Number       Type             X           Y           Z
 ---------------------------------------------------------------------
      1         12           0       -4.492668    1.116017   -0.157536
      2          6           0       -4.396277   -2.313205    0.571071
      3          6           0       -1.056558    1.128224   -0.194919
      4          6           0       -4.664701    4.446977   -0.031126
      5          6           0       -7.995147    0.817541    0.596239
      6          7           0       -2.900023   -0.328293    0.230325
      7          6           0       -3.103324   -1.704181    0.438202
      8          6           0       -1.918334   -2.480702    0.032515
      9          6           0       -0.821693   -1.377709    0.301768
     10          6           0       -1.612845   -0.077618    0.065179
     11          6           0       -0.220609   -1.352214    1.797168
     12          6           0       -2.045157   -2.945343   -1.481250
     13          6           0       -1.097388   -4.103460   -1.861414
     14          6           0        0.180253   -4.217875   -1.020548
     15          8           0        0.286080   -4.884791    0.039887
     16          8           0        1.270998   -3.575104   -1.591561
     17          7           0       -3.054899    2.533160   -0.199993
     18          6           0       -1.720823    2.387371   -0.344558
     19          6           0       -1.058413    3.658271   -0.644448
     20          6           0       -2.095320    4.658525   -0.478972
     21          6           0       -3.367513    3.899754   -0.249878
     22          6           0        0.385438    3.796567   -1.031284
     23          6           0       -1.929437    6.163294   -0.568715
     24          8           0       -2.871038    6.933117   -0.285708
     25          6           0       -0.624728    6.853936   -1.005055
     26          7           0       -6.085764    2.486258    0.257565
     27          6           0       -5.935972    3.813372    0.163288
     28          6           0       -7.249131    4.509698    0.499135
     29          6           0       -8.279146    3.367739    0.507889
     30          6           0       -7.423403    2.133073    0.429216
     31          6           0       -7.265676    5.333579    1.783749
     32          6           0       -9.196070    3.360073   -0.851123
     33          6           0      -10.713751    3.097295   -0.644941
     34          7           0       -5.989164   -0.410388    0.135030
     35          6           0       -7.317408   -0.327351    0.435567
     36          6           0       -7.853704   -1.753881    0.545459
     37          6           0       -6.714741   -2.557118    0.626263
     38          6           0       -5.617403   -1.695603    0.402549
     39          6           0       -9.279029   -2.179627    0.779679
     40          6           0       -6.244882   -3.923915    0.764986
     41          8           0       -6.835720   -4.979672    0.719129
     42          6           0       -4.790645   -3.724443    1.112226
     43          6           0       -4.136371   -4.860129    0.622357
     44          8           0       -4.090374   -5.210909   -0.552649
     45          8           0       -3.574533   -5.544127    1.685329
     46          6           0       -2.789050   -6.722555    1.270241
     47          6           0        2.591169   -3.821393   -0.892785
     48          6           0        3.802796   -3.617262   -1.836955
     49          6           0        5.094896   -3.326516   -1.476809
     50          6           0        5.546077   -3.404518    0.007093
     51          6           0        6.106651   -2.870280   -2.448358
     52          6           0        5.773591   -1.502251   -3.120315
     53          6           0        7.053149   -0.707681   -3.508299
     54          6           0        7.586618    0.429577   -2.575470
     55          6           0        6.937785    1.800605   -2.669838
     56          6           0        9.028879    0.668411   -2.873770
     57          6           0        9.776566    0.591382   -1.598848
     58          6           0       11.215546    1.190936   -1.606296
     59          6           0       11.385992    2.078221   -0.385590
     60          6           0       12.750571    2.924784   -0.663042
     61          6           0       11.489583    1.222660    0.889610
     62          6           0       10.754762    1.778886    2.155431
     63          6           0       11.363851    1.259005    3.446707
     64          6           0       10.399075    0.476884    4.354153
     65          6           0        9.508296    1.381181    5.223566
     66          6           0       11.243421   -0.510506    5.279199
     67          1           0       -0.008944    0.977404   -0.461206
     68          1           0       -4.820912    5.513541   -0.205061
     69          1           0       -9.074836    0.865743    0.753709
     70          1           0       -1.795342   -3.345901    0.684341
     71          1           0       -0.045044   -1.495144   -0.454561
     72          1           0        0.850647   -1.523381    1.693079
     73          1           0       -0.452815   -2.301553    2.282082
     74          1           0       -0.456270   -0.481519    2.408484
     75          1           0       -1.767863   -2.033279   -2.011204
     76          1           0       -3.082160   -3.232107   -1.659907
     77          1           0       -0.844513   -4.041768   -2.919914
     78          1           0       -1.631185   -5.052571   -1.793716
     79          1           0        0.709079    4.439231   -0.212095
     80          1           0        0.483305    4.351363   -1.964423
     81          1           0        1.010757    2.915416   -1.174429
     82          1           0       -0.783610    7.914661   -0.808871
     83          1           0       -0.491494    6.742933   -2.081116
     84          1           0        0.276155    6.507197   -0.498559
     85          1           0       -7.615453    5.119710   -0.326088
     86          1           0       -8.918433    3.419964    1.389619
     87          1           0       -6.685843    4.820592    2.551490
     88          1           0       -8.319797    5.557657    1.949877
     89          1           0       -6.882003    6.337483    1.598996
     90          1           0       -8.915180    2.603903   -1.583680
     91          1           0       -9.177274    4.296649   -1.408315
     92          1           0      -11.198589    4.009176   -0.995100
     93          1           0      -10.874897    2.819735    0.396185
     94          1           0      -10.985710    2.260148   -1.288517
     95          1           0       -9.908344   -1.376218    1.163559
     96          1           0       -9.221599   -3.001863    1.492838
     97          1           0       -9.710059   -2.675420   -0.089657
     98          1           0       -4.756431   -3.686890    2.201671
     99          1           0       -1.749072   -6.484295    1.049525
    100          1           0       -3.216477   -7.247924    0.415511
    101          1           0       -2.700925   -7.305772    2.186293
    102          1           0        2.788355   -4.793837   -0.440606
    103          1           0        2.667550   -3.139765   -0.045726
    104          1           0        3.482890   -3.420457   -2.860925
    105          1           0        5.936127   -2.411065    0.225938
    106          1           0        6.250102   -4.222770    0.158398
    107          1           0        4.757847   -3.598837    0.734774
    108          1           0        6.297355   -3.568822   -3.263539
    109          1           0        7.076577   -2.872329   -1.949357
    110          1           0        5.189030   -0.874062   -2.448288
    111          1           0        5.187165   -1.593588   -4.034586
    112          1           0        6.651941   -0.233985   -4.404584
    113          1           0        7.823326   -1.399436   -3.848857
    114          1           0        7.360824    0.013092   -1.593898
    115          1           0        6.866821    2.147927   -1.639521
    116          1           0        5.997325    1.779776   -3.221474
    117          1           0        7.518000    2.524961   -3.242289
    118          1           0        9.264077    1.535024   -3.491263
    119          1           0        9.467457   -0.113298   -3.494276
    120          1           0        9.873821   -0.480816   -1.430066
    121          1           0        9.195401    0.975279   -0.760672
    122          1           0       11.276551    1.810490   -2.500957
    123          1           0       11.978723    0.413117   -1.610633
    124          1           0       10.560098    2.774099   -0.242851
    125          1           0       12.659146    3.918564   -0.223457
    126          1           0       12.979697    3.203092   -1.691553
    127          1           0       13.635447    2.487366   -0.200854
    128          1           0       12.541859    1.185679    1.173783
    129          1           0       11.039576    0.230978    0.854482
    130          1           0        9.733317    1.447635    1.971041
    131          1           0       10.888301    2.860199    2.191783
    132          1           0       11.738407    2.108774    4.016801
    133          1           0       12.145478    0.530602    3.233553
    134          1           0        9.794881   -0.063753    3.626579
    135          1           0        9.873958    2.407131    5.246186
    136          1           0        9.421069    1.018706    6.247531
    137          1           0        8.483016    1.385187    4.850969
    138          1           0       11.012748   -1.515965    4.927928
    139          1           0       11.027363   -0.456234    6.346054
    140          1           0       12.315269   -0.353966    5.152712
 ---------------------------------------------------------------------

 SCF Done:  E(RPBE1PBE) =  -3005.33486096     A.U. after   15 cycles

 Excitation energies and oscillator strengths:

 Excited State   1:      Singlet-A      1.8440 eV  672.36 nm  f=0.3492  <S**2>=0.000
     245 -> 248       -0.19424
     246 -> 247        0.68618
 This state for optimization and/or second-order correction.
 Total Energy, E(TD-HF/TD-DFT) =  -3005.26709433
 Copying the excited state density for this state as the 1-particle RhoCI density.

 Excited State   2:      Singlet-A      2.2597 eV  548.67 nm  f=0.0201  <S**2>=0.000
     245 -> 247        0.58560
     246 -> 248        0.38674

 Excited State   3:      Singlet-A      3.1003 eV  399.90 nm  f=0.4951  <S**2>=0.000
     241 -> 247       -0.19756
     242 -> 247       -0.12427
     245 -> 247       -0.33684
     245 -> 250       -0.10127
     246 -> 248        0.54803

 Excited State   4:      Singlet-A      3.1529 eV  393.24 nm  f=0.0252  <S**2>=0.000
     242 -> 247        0.63752
     242 -> 248       -0.13278
     242 -> 249        0.16039
     242 -> 250        0.14339
     246 -> 248        0.11619

 Excited State   5:      Singlet-A      3.2337 eV  383.42 nm  f=0.0043  <S**2>=0.000
     241 -> 247       -0.18345
     243 -> 247        0.62913
     246 -> 249        0.23817

 The electronic state is 1-A.
 Alpha  occ. eigenvalues --  -46.91863 -19.27064 -19.25334 -19.20804 -19.19889
 Alpha  occ. eigenvalues --  -19.19849 -19.18386 -14.41562 -14.41117 -14.39289
 Alpha  occ. eigenvalues --  -14.39020 -10.37617 -10.35435 -10.32259 -10.32130
 Alpha  occ. eigenvalues --  -10.30350 -10.29049 -10.28852 -10.28374 -10.28180
 Alpha  occ. eigenvalues --  -10.27714 -10.27489 -10.27437 -10.27112 -10.26669
 Alpha  occ. eigenvalues --  -10.26513 -10.26266 -10.25882 -10.25699 -10.25624
 Alpha  occ. eigenvalues --  -10.25353 -10.25173 -10.25170 -10.25159 -10.25148
 Alpha  occ. eigenvalues --  -10.24944 -10.24806 -10.24548 -10.24424 -10.24321
 Alpha  occ. eigenvalues --  -10.24108 -10.24096 -10.24005 -10.23887 -10.23791
 Alpha  occ. eigenvalues --  -10.23647 -10.23601 -10.23513 -10.23509 -10.23500
 Alpha  occ. eigenvalues --  -10.23387 -10.23299 -10.23209 -10.23133 -10.22902
 Alpha  occ. eigenvalues --  -10.22586 -10.22300 -10.22230 -10.22187 -10.22148
 Alpha  occ. eigenvalues --  -10.22053 -10.21973 -10.21944 -10.21872 -10.21670
 Alpha  occ. eigenvalues --  -10.21582  -3.14000  -1.86832  -1.86372  -1.86234
 Alpha  occ. eigenvalues --   -1.10403  -1.10152  -1.05829  -1.02805  -1.02071
 Alpha  occ. eigenvalues --   -1.01436  -0.98932  -0.98266  -0.97777  -0.96516
 Alpha  occ. eigenvalues --   -0.88209  -0.85475  -0.84296  -0.83533  -0.83374
 Alpha  occ. eigenvalues --   -0.83076  -0.82109  -0.81650  -0.81331  -0.81087
 Alpha  occ. eigenvalues --   -0.80473  -0.79293  -0.78919  -0.78291  -0.77785
 Alpha  occ. eigenvalues --   -0.76836  -0.76091  -0.75240  -0.75076  -0.74380
 Alpha  occ. eigenvalues --   -0.74094  -0.72740  -0.71924  -0.71594  -0.70699
 Alpha  occ. eigenvalues --   -0.70372  -0.69420  -0.69313  -0.68999  -0.68489
 Alpha  occ. eigenvalues --   -0.67368  -0.66539  -0.66128  -0.64807  -0.63508
 Alpha  occ. eigenvalues --   -0.63246  -0.62376  -0.61606  -0.61119  -0.60053
 Alpha  occ. eigenvalues --   -0.59794  -0.59710  -0.59189  -0.58691  -0.58323
 Alpha  occ. eigenvalues --   -0.58303  -0.57121  -0.56996  -0.56342  -0.54495
 Alpha  occ. eigenvalues --   -0.54388  -0.54178  -0.53812  -0.53647  -0.53141
 Alpha  occ. eigenvalues --   -0.52414  -0.50697  -0.50438  -0.50336  -0.49733
 Alpha  occ. eigenvalues --   -0.49478  -0.49373  -0.49144  -0.49058  -0.48340
 Alpha  occ. eigenvalues --   -0.48196  -0.47907  -0.47666  -0.47458  -0.47344
 Alpha  occ. eigenvalues --   -0.46978  -0.46848  -0.46664  -0.46571  -0.46445
 Alpha  occ. eigenvalues --   -0.46175  -0.45980  -0.45534  -0.45364  -0.45252
 Alpha  occ. eigenvalues --   -0.44937  -0.44866  -0.44324  -0.44246  -0.44199
 Alpha  occ. eigenvalues --   -0.43928  -0.43759  -0.43735  -0.43249  -0.43238
 Alpha  occ. eigenvalues --   -0.43108  -0.43017  -0.42915  -0.42736  -0.42614
 Alpha  occ. eigenvalues --   -0.42299  -0.41878  -0.41546  -0.41506  -0.41390
 Alpha  occ. eigenvalues --   -0.41119  -0.40981  -0.40669  -0.40520  -0.40288
 Alpha  occ. eigenvalues --   -0.40217  -0.40152  -0.39924  -0.39739  -0.39510
 Alpha  occ. eigenvalues --   -0.39146  -0.38998  -0.38940  -0.38716  -0.38702
 Alpha  occ. eigenvalues --   -0.38388  -0.38048  -0.37974  -0.37839  -0.37621
 Alpha  occ. eigenvalues --   -0.37531  -0.37284  -0.37217  -0.36996  -0.36978
 Alpha  occ. eigenvalues --   -0.36763  -0.36473  -0.36268  -0.36150  -0.35989
 Alpha  occ. eigenvalues --   -0.35950  -0.35845  -0.35399  -0.35096  -0.35074
 Alpha  occ. eigenvalues --   -0.34898  -0.34608  -0.34575  -0.34444  -0.33868
 Alpha  occ. eigenvalues --   -0.33561  -0.33099  -0.32814  -0.32717  -0.32264
 Alpha  occ. eigenvalues --   -0.32238  -0.32001  -0.31836  -0.31546  -0.31349
 Alpha  occ. eigenvalues --   -0.30971  -0.30598  -0.30366  -0.29574  -0.29241
 Alpha  occ. eigenvalues --   -0.29170  -0.28793  -0.28541  -0.26745  -0.26250
 Alpha  occ. eigenvalues --   -0.25550  -0.25217  -0.25116  -0.24769  -0.20955
 Alpha  occ. eigenvalues --   -0.18078
 Alpha virt. eigenvalues --   -0.10397  -0.06072  -0.04171  -0.02003  -0.01128
 Alpha virt. eigenvalues --   -0.00251   0.00303   0.00319   0.01570   0.03220
 Alpha virt. eigenvalues --    0.03875   0.04481   0.04756   0.05567   0.05761

 Mulliken charges:
               1
     1  Mg   0.978747
     2  C   -0.044341
     3  C   -0.057210
     4  C   -0.032174
     5  C   -0.090976
     6  N   -0.382986
     7  C    0.078391
     8  C   -0.192243
     9  C   -0.140276
    10  C    0.037250
    11  C    0.033547
    12  C    0.023794
    13  C    0.053784
    14  C    0.224508
    15  O   -0.300685
    16  O   -0.377057
    17  N   -0.509741
    18  C    0.177039
    19  C   -0.181590
    20  C   -0.071962
    21  C    0.172943
    22  C    0.050679
    23  C    0.041728
    24  O   -0.269847
    25  C   -0.025352
    26  N   -0.400746
    27  C    0.040136
    28  C   -0.071653
    29  C   -0.149574
    30  C    0.069155
    31  C    0.029298
    32  C   -0.064672
    33  C   -0.073417
    34  N   -0.447483
    35  C    0.189157
    36  C   -0.179269
    37  C   -0.048209
    38  C    0.166910
    39  C    0.066031
    40  C    0.147590
    41  O   -0.198506
    42  C   -0.092389
    43  C    0.276646
    44  O   -0.272322
    45  O   -0.373505
    46  C    0.109687
    47  C    0.209583
    48  C   -0.119567
    49  C   -0.230895
    50  C   -0.003151
    51  C    0.038974
    52  C   -0.051186
    53  C   -0.024858
    54  C   -0.208852
    55  C    0.024536
    56  C    0.021846
    57  C   -0.087995
    58  C    0.031594
    59  C   -0.204871
    60  C   -0.032088
    61  C   -0.038085
    62  C   -0.041108
    63  C   -0.017963
    64  C   -0.261760
    65  C    0.001285
    66  C   -0.026796
    67  H   -0.004887
    68  H    0.034224
    69  H    0.003232
    70  H    0.065366
    71  H    0.040747
    72  H    0.032897
    73  H    0.043073
    74  H    0.068924
    75  H    0.043243
    76  H    0.081244
    77  H    0.054974
    78  H    0.074907
    79  H    0.066895
    80  H    0.056107
    81  H    0.051041
    82  H    0.056442
    83  H    0.062719
    84  H    0.049357
    85  H    0.034545
    86  H    0.048908
    87  H    0.062161
    88  H    0.035452
    89  H    0.046966
    90  H    0.052284
    91  H    0.038732
    92  H    0.051224
    93  H    0.043927
    94  H    0.044531
    95  H    0.045745
    96  H    0.055931
    97  H    0.063128
    98  H    0.096391
    99  H    0.063028
   100  H    0.073857
   101  H    0.048571
   102  H    0.075581
   103  H    0.057986
   104  H    0.034898
   105  H    0.053308
   106  H    0.063272
   107  H    0.029464
   108  H    0.046618
   109  H    0.022064
   110  H    0.028100
   111  H    0.037406
   112  H    0.010513
   113  H    0.026808
   114  H    0.030986
   115  H    0.038819
   116  H    0.026065
   117  H    0.031457
   118  H    0.024507
   119  H    0.012081
   120  H    0.026832
   121  H    0.031687
   122  H    0.021846
   123  H    0.032950
   124  H    0.036361
   125  H    0.024064
   126  H    0.033318
   127  H    0.037863
   128  H    0.030270
   129  H    0.035570
   130  H    0.031325
   131  H    0.028129
   132  H    0.029366
   133  H    0.030886
   134  H    0.031414
   135  H    0.032999
   136  H    0.031231
   137  H    0.031279
   138  H    0.037156
   139  H    0.036134
   140  H    0.036026
 Sum of Mulliken charges =  -0.00000

 Dipole moment (field-independent basis, Debye):
    X=              3.3574    Y=              2.2906    Z=             -1.4527  Tot=              4.3162
 Quadrupole moment (field-independent basis, Debye-Ang):
   XX=           -367.6514   YY=           -439.3355   ZZ=           -397.4612
   XY=            -30.1099   XZ=             -3.4977   YZ=             -5.9396

 Normal termination of Gaussian 16 at Wed May  4 15:04:40 2022.
