 Gaussian 16, Revision A.03,
 Gaussian 16:  ES64L-G16RevA.03 25-Dec-2016

 --------------------------------
 #p wB97XD/Def2SVP td=(nstates=5)
 --------------------------------

 -----------------------------------------------------
 step_1851_chromophore_15 TDDFT with wB97XD functional
 -----------------------------------------------------
 Symbolic Z-matrix:
 Charge =  0 Multiplicity = 1

                         Standard orientation:
 ---------------------------------------------------------------------
 Center     Atomic      Atomic             Coordinates (Angstroms)
 Number     Number       Type             X           Y           Z
 ---------------------------------------------------------------------
      1         12           0       -4.492668    1.116017   -0.157536
      2          6           0       -4.396277   -2.313205    0.571071
      3          6           0       -1.056558    1.128224   -0.194919
      4          6           0       -4.664701    4.446977   -0.031126
      5          6           0       -7.995147    0.817541    0.596239
      6          7           0       -2.900023   -0.328293    0.230325
      7          6           0       -3.103324   -1.704181    0.438202
      8          6           0       -1.918334   -2.480702    0.032515
      9          6           0       -0.821693   -1.377709    0.301768
     10          6           0       -1.612845   -0.077618    0.065179
     11          6           0       -0.220609   -1.352214    1.797168
     12          6           0       -2.045157   -2.945343   -1.481250
     13          6           0       -1.097388   -4.103460   -1.861414
     14          6           0        0.180253   -4.217875   -1.020548
     15          8           0        0.286080   -4.884791    0.039887
     16          8           0        1.270998   -3.575104   -1.591561
     17          7           0       -3.054899    2.533160   -0.199993
     18          6           0       -1.720823    2.387371   -0.344558
     19          6           0       -1.058413    3.658271   -0.644448
     20          6           0       -2.095320    4.658525   -0.478972
     21          6           0       -3.367513    3.899754   -0.249878
     22          6           0        0.385438    3.796567   -1.031284
     23          6           0       -1.929437    6.163294   -0.568715
     24          8           0       -2.871038    6.933117   -0.285708
     25          6           0       -0.624728    6.853936   -1.005055
     26          7           0       -6.085764    2.486258    0.257565
     27          6           0       -5.935972    3.813372    0.163288
     28          6           0       -7.249131    4.509698    0.499135
     29          6           0       -8.279146    3.367739    0.507889
     30          6           0       -7.423403    2.133073    0.429216
     31          6           0       -7.265676    5.333579    1.783749
     32          6           0       -9.196070    3.360073   -0.851123
     33          6           0      -10.713751    3.097295   -0.644941
     34          7           0       -5.989164   -0.410388    0.135030
     35          6           0       -7.317408   -0.327351    0.435567
     36          6           0       -7.853704   -1.753881    0.545459
     37          6           0       -6.714741   -2.557118    0.626263
     38          6           0       -5.617403   -1.695603    0.402549
     39          6           0       -9.279029   -2.179627    0.779679
     40          6           0       -6.244882   -3.923915    0.764986
     41          8           0       -6.835720   -4.979672    0.719129
     42          6           0       -4.790645   -3.724443    1.112226
     43          6           0       -4.136371   -4.860129    0.622357
     44          8           0       -4.090374   -5.210909   -0.552649
     45          8           0       -3.574533   -5.544127    1.685329
     46          6           0       -2.789050   -6.722555    1.270241
     47          6           0        2.591169   -3.821393   -0.892785
     48          6           0        3.802796   -3.617262   -1.836955
     49          6           0        5.094896   -3.326516   -1.476809
     50          6           0        5.546077   -3.404518    0.007093
     51          6           0        6.106651   -2.870280   -2.448358
     52          6           0        5.773591   -1.502251   -3.120315
     53          6           0        7.053149   -0.707681   -3.508299
     54          6           0        7.586618    0.429577   -2.575470
     55          6           0        6.937785    1.800605   -2.669838
     56          6           0        9.028879    0.668411   -2.873770
     57          6           0        9.776566    0.591382   -1.598848
     58          6           0       11.215546    1.190936   -1.606296
     59          6           0       11.385992    2.078221   -0.385590
     60          6           0       12.750571    2.924784   -0.663042
     61          6           0       11.489583    1.222660    0.889610
     62          6           0       10.754762    1.778886    2.155431
     63          6           0       11.363851    1.259005    3.446707
     64          6           0       10.399075    0.476884    4.354153
     65          6           0        9.508296    1.381181    5.223566
     66          6           0       11.243421   -0.510506    5.279199
     67          1           0       -0.008944    0.977404   -0.461206
     68          1           0       -4.820912    5.513541   -0.205061
     69          1           0       -9.074836    0.865743    0.753709
     70          1           0       -1.795342   -3.345901    0.684341
     71          1           0       -0.045044   -1.495144   -0.454561
     72          1           0        0.850647   -1.523381    1.693079
     73          1           0       -0.452815   -2.301553    2.282082
     74          1           0       -0.456270   -0.481519    2.408484
     75          1           0       -1.767863   -2.033279   -2.011204
     76          1           0       -3.082160   -3.232107   -1.659907
     77          1           0       -0.844513   -4.041768   -2.919914
     78          1           0       -1.631185   -5.052571   -1.793716
     79          1           0        0.709079    4.439231   -0.212095
     80          1           0        0.483305    4.351363   -1.964423
     81          1           0        1.010757    2.915416   -1.174429
     82          1           0       -0.783610    7.914661   -0.808871
     83          1           0       -0.491494    6.742933   -2.081116
     84          1           0        0.276155    6.507197   -0.498559
     85          1           0       -7.615453    5.119710   -0.326088
     86          1           0       -8.918433    3.419964    1.389619
     87          1           0       -6.685843    4.820592    2.551490
     88          1           0       -8.319797    5.557657    1.949877
     89          1           0       -6.882003    6.337483    1.598996
     90          1           0       -8.915180    2.603903   -1.583680
     91          1           0       -9.177274    4.296649   -1.408315
     92          1           0      -11.198589    4.009176   -0.995100
     93          1           0      -10.874897    2.819735    0.396185
     94          1           0      -10.985710    2.260148   -1.288517
     95          1           0       -9.908344   -1.376218    1.163559
     96          1           0       -9.221599   -3.001863    1.492838
     97          1           0       -9.710059   -2.675420   -0.089657
     98          1           0       -4.756431   -3.686890    2.201671
     99          1           0       -1.749072   -6.484295    1.049525
    100          1           0       -3.216477   -7.247924    0.415511
    101          1           0       -2.700925   -7.305772    2.186293
    102          1           0        2.788355   -4.793837   -0.440606
    103          1           0        2.667550   -3.139765   -0.045726
    104          1           0        3.482890   -3.420457   -2.860925
    105          1           0        5.936127   -2.411065    0.225938
    106          1           0        6.250102   -4.222770    0.158398
    107          1           0        4.757847   -3.598837    0.734774
    108          1           0        6.297355   -3.568822   -3.263539
    109          1           0        7.076577   -2.872329   -1.949357
    110          1           0        5.189030   -0.874062   -2.448288
    111          1           0        5.187165   -1.593588   -4.034586
    112          1           0        6.651941   -0.233985   -4.404584
    113          1           0        7.823326   -1.399436   -3.848857
    114          1           0        7.360824    0.013092   -1.593898
    115          1           0        6.866821    2.147927   -1.639521
    116          1           0        5.997325    1.779776   -3.221474
    117          1           0        7.518000    2.524961   -3.242289
    118          1           0        9.264077    1.535024   -3.491263
    119          1           0        9.467457   -0.113298   -3.494276
    120          1           0        9.873821   -0.480816   -1.430066
    121          1           0        9.195401    0.975279   -0.760672
    122          1           0       11.276551    1.810490   -2.500957
    123          1           0       11.978723    0.413117   -1.610633
    124          1           0       10.560098    2.774099   -0.242851
    125          1           0       12.659146    3.918564   -0.223457
    126          1           0       12.979697    3.203092   -1.691553
    127          1           0       13.635447    2.487366   -0.200854
    128          1           0       12.541859    1.185679    1.173783
    129          1           0       11.039576    0.230978    0.854482
    130          1           0        9.733317    1.447635    1.971041
    131          1           0       10.888301    2.860199    2.191783
    132          1           0       11.738407    2.108774    4.016801
    133          1           0       12.145478    0.530602    3.233553
    134          1           0        9.794881   -0.063753    3.626579
    135          1           0        9.873958    2.407131    5.246186
    136          1           0        9.421069    1.018706    6.247531
    137          1           0        8.483016    1.385187    4.850969
    138          1           0       11.012748   -1.515965    4.927928
    139          1           0       11.027363   -0.456234    6.346054
    140          1           0       12.315269   -0.353966    5.152712
 ---------------------------------------------------------------------

 SCF Done:  E(RwB97XD) =  -3007.84408932     A.U. after   19 cycles

 Excitation energies and oscillator strengths:

 Excited State   1:      Singlet-A      1.6564 eV  748.53 nm  f=0.3541  <S**2>=0.000
     245 -> 248        0.20580
     246 -> 247        0.67714
     245 <- 248        0.11995
 This state for optimization and/or second-order correction.
 Total Energy, E(TD-HF/TD-DFT) =  -3007.78321928
 Copying the excited state density for this state as the 1-particle RhoCI density.

 Excited State   2:      Singlet-A      2.2001 eV  563.55 nm  f=0.0137  <S**2>=0.000
     245 -> 247        0.56153
     246 -> 248       -0.41982

 Excited State   3:      Singlet-A      3.2820 eV  377.77 nm  f=0.7696  <S**2>=0.000
     242 -> 247        0.15092
     245 -> 247        0.39423
     246 -> 248        0.55483
     245 <- 247       -0.10954

 Excited State   4:      Singlet-A      3.6385 eV  340.75 nm  f=0.0103  <S**2>=0.000
     241 -> 247       -0.10297
     242 -> 247       -0.39541
     243 -> 247        0.31615
     244 -> 247        0.42281

 Excited State   5:      Singlet-A      3.6574 eV  338.99 nm  f=0.0077  <S**2>=0.000
     241 -> 247        0.41003
     241 -> 248       -0.19247
     241 -> 249        0.25700
     241 -> 250        0.29372
     242 -> 247       -0.16393
     242 -> 248        0.10803
     242 -> 249       -0.14811
     242 -> 250       -0.16504
     244 -> 247       -0.10868

 The electronic state is 1-A.
 Alpha  occ. eigenvalues --  -46.94799 -19.31609 -19.30002 -19.25459 -19.24948
 Alpha  occ. eigenvalues --  -19.24678 -19.23028 -14.46653 -14.46182 -14.44129
 Alpha  occ. eigenvalues --  -14.44077 -10.44387 -10.42417 -10.39330 -10.38804
 Alpha  occ. eigenvalues --  -10.36834 -10.35437 -10.35374 -10.34428 -10.34297
 Alpha  occ. eigenvalues --  -10.34249 -10.34070 -10.33487 -10.33471 -10.33274
 Alpha  occ. eigenvalues --  -10.33126 -10.32425 -10.32218 -10.31907 -10.31827
 Alpha  occ. eigenvalues --  -10.31715 -10.31699 -10.31613 -10.31445 -10.31334
 Alpha  occ. eigenvalues --  -10.31275 -10.30954 -10.30948 -10.30874 -10.30584
 Alpha  occ. eigenvalues --  -10.30533 -10.30459 -10.30450 -10.30391 -10.30159
 Alpha  occ. eigenvalues --  -10.30023 -10.29883 -10.29853 -10.29843 -10.29768
 Alpha  occ. eigenvalues --  -10.29768 -10.29644 -10.29516 -10.29515 -10.29505
 Alpha  occ. eigenvalues --  -10.28916 -10.28656 -10.28633 -10.28551 -10.28548
 Alpha  occ. eigenvalues --  -10.28420 -10.28370 -10.28293 -10.28243 -10.28086
 Alpha  occ. eigenvalues --  -10.27928  -3.20793  -1.94376  -1.93914  -1.93772
 Alpha  occ. eigenvalues --   -1.17932  -1.17534  -1.13526  -1.10143  -1.09562
 Alpha  occ. eigenvalues --   -1.08786  -1.06405  -1.05676  -1.05206  -1.03709
 Alpha  occ. eigenvalues --   -0.95984  -0.93112  -0.91966  -0.91184  -0.91019
 Alpha  occ. eigenvalues --   -0.90647  -0.89690  -0.89302  -0.89048  -0.88644
 Alpha  occ. eigenvalues --   -0.88125  -0.86937  -0.86569  -0.85931  -0.85369
 Alpha  occ. eigenvalues --   -0.84487  -0.83785  -0.82856  -0.82720  -0.82024
 Alpha  occ. eigenvalues --   -0.81756  -0.80362  -0.79584  -0.79147  -0.78369
 Alpha  occ. eigenvalues --   -0.78097  -0.77111  -0.76836  -0.76674  -0.76136
 Alpha  occ. eigenvalues --   -0.74970  -0.74169  -0.73629  -0.72419  -0.71130
 Alpha  occ. eigenvalues --   -0.70874  -0.69933  -0.69062  -0.68732  -0.67720
 Alpha  occ. eigenvalues --   -0.67305  -0.67191  -0.66590  -0.66148  -0.65946
 Alpha  occ. eigenvalues --   -0.65776  -0.64792  -0.64623  -0.63894  -0.61999
 Alpha  occ. eigenvalues --   -0.61844  -0.61663  -0.61300  -0.61057  -0.60716
 Alpha  occ. eigenvalues --   -0.59779  -0.58104  -0.57897  -0.57727  -0.57159
 Alpha  occ. eigenvalues --   -0.56939  -0.56807  -0.56621  -0.56447  -0.55746
 Alpha  occ. eigenvalues --   -0.55610  -0.55328  -0.55063  -0.54843  -0.54714
 Alpha  occ. eigenvalues --   -0.54377  -0.54154  -0.54010  -0.53898  -0.53822
 Alpha  occ. eigenvalues --   -0.53554  -0.53510  -0.52808  -0.52762  -0.52546
 Alpha  occ. eigenvalues --   -0.52395  -0.52110  -0.51762  -0.51575  -0.51470
 Alpha  occ. eigenvalues --   -0.51249  -0.51172  -0.51031  -0.50518  -0.50508
 Alpha  occ. eigenvalues --   -0.50378  -0.50252  -0.50128  -0.49990  -0.49893
 Alpha  occ. eigenvalues --   -0.49536  -0.49090  -0.48800  -0.48750  -0.48683
 Alpha  occ. eigenvalues --   -0.48352  -0.48207  -0.47911  -0.47741  -0.47571
 Alpha  occ. eigenvalues --   -0.47462  -0.47418  -0.47098  -0.46876  -0.46712
 Alpha  occ. eigenvalues --   -0.46248  -0.46227  -0.46067  -0.45845  -0.45723
 Alpha  occ. eigenvalues --   -0.45527  -0.45206  -0.45145  -0.44897  -0.44682
 Alpha  occ. eigenvalues --   -0.44665  -0.44490  -0.44413  -0.44096  -0.44070
 Alpha  occ. eigenvalues --   -0.43850  -0.43527  -0.43371  -0.43159  -0.43033
 Alpha  occ. eigenvalues --   -0.43013  -0.42858  -0.42449  -0.42176  -0.42053
 Alpha  occ. eigenvalues --   -0.41983  -0.41679  -0.41620  -0.41495  -0.40752
 Alpha  occ. eigenvalues --   -0.40565  -0.40064  -0.39755  -0.39720  -0.39306
 Alpha  occ. eigenvalues --   -0.39277  -0.39021  -0.38843  -0.38442  -0.38371
 Alpha  occ. eigenvalues --   -0.38144  -0.37457  -0.37393  -0.36487  -0.36346
 Alpha  occ. eigenvalues --   -0.36228  -0.35637  -0.35294  -0.33971  -0.32995
 Alpha  occ. eigenvalues --   -0.32287  -0.32152  -0.31509  -0.31495  -0.26021
 Alpha  occ. eigenvalues --   -0.22172
 Alpha virt. eigenvalues --   -0.06105  -0.00810   0.02065   0.04540   0.05381
 Alpha virt. eigenvalues --    0.05994   0.06988   0.07019   0.08275   0.09887
 Alpha virt. eigenvalues --    0.10172   0.11175   0.11514   0.12368   0.12594

 Mulliken charges:
               1
     1  Mg   0.968938
     2  C   -0.051756
     3  C   -0.074562
     4  C   -0.044511
     5  C   -0.112616
     6  N   -0.351388
     7  C    0.044343
     8  C   -0.153700
     9  C   -0.109543
    10  C    0.020652
    11  C    0.040916
    12  C    0.031840
    13  C    0.067703
    14  C    0.213517
    15  O   -0.297382
    16  O   -0.375524
    17  N   -0.476577
    18  C    0.166199
    19  C   -0.172813
    20  C   -0.066484
    21  C    0.163268
    22  C    0.063769
    23  C    0.037009
    24  O   -0.266444
    25  C   -0.013522
    26  N   -0.366878
    27  C    0.017100
    28  C   -0.042727
    29  C   -0.123398
    30  C    0.058992
    31  C    0.040106
    32  C   -0.053699
    33  C   -0.056956
    34  N   -0.411746
    35  C    0.189789
    36  C   -0.180196
    37  C   -0.042290
    38  C    0.155557
    39  C    0.077313
    40  C    0.131227
    41  O   -0.188061
    42  C   -0.047933
    43  C    0.249441
    44  O   -0.264514
    45  O   -0.371163
    46  C    0.126626
    47  C    0.224575
    48  C   -0.130709
    49  C   -0.214090
    50  C    0.012771
    51  C    0.051449
    52  C   -0.032339
    53  C   -0.011521
    54  C   -0.176315
    55  C    0.032983
    56  C    0.037889
    57  C   -0.066345
    58  C    0.046695
    59  C   -0.171846
    60  C   -0.019872
    61  C   -0.024655
    62  C   -0.024379
    63  C   -0.000405
    64  C   -0.232724
    65  C    0.011656
    66  C   -0.013064
    67  H   -0.012094
    68  H    0.029727
    69  H   -0.003333
    70  H    0.046032
    71  H    0.027298
    72  H    0.026602
    73  H    0.036840
    74  H    0.064892
    75  H    0.034842
    76  H    0.072217
    77  H    0.051202
    78  H    0.068277
    79  H    0.057874
    80  H    0.049336
    81  H    0.047561
    82  H    0.054468
    83  H    0.058011
    84  H    0.044004
    85  H    0.023075
    86  H    0.038683
    87  H    0.056649
    88  H    0.027997
    89  H    0.041731
    90  H    0.042935
    91  H    0.031079
    92  H    0.046276
    93  H    0.036469
    94  H    0.038476
    95  H    0.042179
    96  H    0.051863
    97  H    0.060192
    98  H    0.090278
    99  H    0.057119
   100  H    0.070142
   101  H    0.045608
   102  H    0.070440
   103  H    0.050645
   104  H    0.032048
   105  H    0.046452
   106  H    0.058150
   107  H    0.024186
   108  H    0.040290
   109  H    0.013227
   110  H    0.017050
   111  H    0.030935
   112  H    0.001136
   113  H    0.017722
   114  H    0.015815
   115  H    0.033731
   116  H    0.020641
   117  H    0.025300
   118  H    0.014990
   119  H    0.002652
   120  H    0.016311
   121  H    0.016307
   122  H    0.011189
   123  H    0.025584
   124  H    0.024687
   125  H    0.017831
   126  H    0.027770
   127  H    0.031631
   128  H    0.017942
   129  H    0.025262
   130  H    0.020923
   131  H    0.019632
   132  H    0.020716
   133  H    0.018754
   134  H    0.019144
   135  H    0.026668
   136  H    0.024890
   137  H    0.025827
   138  H    0.031293
   139  H    0.030396
   140  H    0.029649
 Sum of Mulliken charges =  -0.00000

 Dipole moment (field-independent basis, Debye):
    X=              3.1346    Y=              1.8873    Z=             -1.4186  Tot=              3.9243
 Quadrupole moment (field-independent basis, Debye-Ang):
   XX=           -365.3051   YY=           -438.8889   ZZ=           -397.0799
   XY=            -27.3336   XZ=             -3.7005   YZ=             -6.2055

 Normal termination of Gaussian 16 at Wed May  4 15:40:37 2022.
