 Gaussian 16, Revision A.03,
 Gaussian 16:  ES64L-G16RevA.03 25-Dec-2016

 --------------------
 #p ZINDO=(nstates=5)
 --------------------

 ------------------------------
 step_1851_chromophore_15 ZINDO
 ------------------------------
 Symbolic Z-matrix:
 Charge =  0 Multiplicity = 1

                         Standard orientation:
 ---------------------------------------------------------------------
 Center     Atomic      Atomic             Coordinates (Angstroms)
 Number     Number       Type             X           Y           Z
 ---------------------------------------------------------------------
      1         12           0       -4.492668    1.116017   -0.157536
      2          6           0       -4.396277   -2.313205    0.571071
      3          6           0       -1.056558    1.128224   -0.194919
      4          6           0       -4.664701    4.446977   -0.031126
      5          6           0       -7.995147    0.817541    0.596239
      6          7           0       -2.900023   -0.328293    0.230325
      7          6           0       -3.103324   -1.704181    0.438202
      8          6           0       -1.918334   -2.480702    0.032515
      9          6           0       -0.821693   -1.377709    0.301768
     10          6           0       -1.612845   -0.077618    0.065179
     11          6           0       -0.220609   -1.352214    1.797168
     12          6           0       -2.045157   -2.945343   -1.481250
     13          6           0       -1.097388   -4.103460   -1.861414
     14          6           0        0.180253   -4.217875   -1.020548
     15          8           0        0.286080   -4.884791    0.039887
     16          8           0        1.270998   -3.575104   -1.591561
     17          7           0       -3.054899    2.533160   -0.199993
     18          6           0       -1.720823    2.387371   -0.344558
     19          6           0       -1.058413    3.658271   -0.644448
     20          6           0       -2.095320    4.658525   -0.478972
     21          6           0       -3.367513    3.899754   -0.249878
     22          6           0        0.385438    3.796567   -1.031284
     23          6           0       -1.929437    6.163294   -0.568715
     24          8           0       -2.871038    6.933117   -0.285708
     25          6           0       -0.624728    6.853936   -1.005055
     26          7           0       -6.085764    2.486258    0.257565
     27          6           0       -5.935972    3.813372    0.163288
     28          6           0       -7.249131    4.509698    0.499135
     29          6           0       -8.279146    3.367739    0.507889
     30          6           0       -7.423403    2.133073    0.429216
     31          6           0       -7.265676    5.333579    1.783749
     32          6           0       -9.196070    3.360073   -0.851123
     33          6           0      -10.713751    3.097295   -0.644941
     34          7           0       -5.989164   -0.410388    0.135030
     35          6           0       -7.317408   -0.327351    0.435567
     36          6           0       -7.853704   -1.753881    0.545459
     37          6           0       -6.714741   -2.557118    0.626263
     38          6           0       -5.617403   -1.695603    0.402549
     39          6           0       -9.279029   -2.179627    0.779679
     40          6           0       -6.244882   -3.923915    0.764986
     41          8           0       -6.835720   -4.979672    0.719129
     42          6           0       -4.790645   -3.724443    1.112226
     43          6           0       -4.136371   -4.860129    0.622357
     44          8           0       -4.090374   -5.210909   -0.552649
     45          8           0       -3.574533   -5.544127    1.685329
     46          6           0       -2.789050   -6.722555    1.270241
     47          6           0        2.591169   -3.821393   -0.892785
     48          6           0        3.802796   -3.617262   -1.836955
     49          6           0        5.094896   -3.326516   -1.476809
     50          6           0        5.546077   -3.404518    0.007093
     51          6           0        6.106651   -2.870280   -2.448358
     52          6           0        5.773591   -1.502251   -3.120315
     53          6           0        7.053149   -0.707681   -3.508299
     54          6           0        7.586618    0.429577   -2.575470
     55          6           0        6.937785    1.800605   -2.669838
     56          6           0        9.028879    0.668411   -2.873770
     57          6           0        9.776566    0.591382   -1.598848
     58          6           0       11.215546    1.190936   -1.606296
     59          6           0       11.385992    2.078221   -0.385590
     60          6           0       12.750571    2.924784   -0.663042
     61          6           0       11.489583    1.222660    0.889610
     62          6           0       10.754762    1.778886    2.155431
     63          6           0       11.363851    1.259005    3.446707
     64          6           0       10.399075    0.476884    4.354153
     65          6           0        9.508296    1.381181    5.223566
     66          6           0       11.243421   -0.510506    5.279199
     67          1           0       -0.008944    0.977404   -0.461206
     68          1           0       -4.820912    5.513541   -0.205061
     69          1           0       -9.074836    0.865743    0.753709
     70          1           0       -1.795342   -3.345901    0.684341
     71          1           0       -0.045044   -1.495144   -0.454561
     72          1           0        0.850647   -1.523381    1.693079
     73          1           0       -0.452815   -2.301553    2.282082
     74          1           0       -0.456270   -0.481519    2.408484
     75          1           0       -1.767863   -2.033279   -2.011204
     76          1           0       -3.082160   -3.232107   -1.659907
     77          1           0       -0.844513   -4.041768   -2.919914
     78          1           0       -1.631185   -5.052571   -1.793716
     79          1           0        0.709079    4.439231   -0.212095
     80          1           0        0.483305    4.351363   -1.964423
     81          1           0        1.010757    2.915416   -1.174429
     82          1           0       -0.783610    7.914661   -0.808871
     83          1           0       -0.491494    6.742933   -2.081116
     84          1           0        0.276155    6.507197   -0.498559
     85          1           0       -7.615453    5.119710   -0.326088
     86          1           0       -8.918433    3.419964    1.389619
     87          1           0       -6.685843    4.820592    2.551490
     88          1           0       -8.319797    5.557657    1.949877
     89          1           0       -6.882003    6.337483    1.598996
     90          1           0       -8.915180    2.603903   -1.583680
     91          1           0       -9.177274    4.296649   -1.408315
     92          1           0      -11.198589    4.009176   -0.995100
     93          1           0      -10.874897    2.819735    0.396185
     94          1           0      -10.985710    2.260148   -1.288517
     95          1           0       -9.908344   -1.376218    1.163559
     96          1           0       -9.221599   -3.001863    1.492838
     97          1           0       -9.710059   -2.675420   -0.089657
     98          1           0       -4.756431   -3.686890    2.201671
     99          1           0       -1.749072   -6.484295    1.049525
    100          1           0       -3.216477   -7.247924    0.415511
    101          1           0       -2.700925   -7.305772    2.186293
    102          1           0        2.788355   -4.793837   -0.440606
    103          1           0        2.667550   -3.139765   -0.045726
    104          1           0        3.482890   -3.420457   -2.860925
    105          1           0        5.936127   -2.411065    0.225938
    106          1           0        6.250102   -4.222770    0.158398
    107          1           0        4.757847   -3.598837    0.734774
    108          1           0        6.297355   -3.568822   -3.263539
    109          1           0        7.076577   -2.872329   -1.949357
    110          1           0        5.189030   -0.874062   -2.448288
    111          1           0        5.187165   -1.593588   -4.034586
    112          1           0        6.651941   -0.233985   -4.404584
    113          1           0        7.823326   -1.399436   -3.848857
    114          1           0        7.360824    0.013092   -1.593898
    115          1           0        6.866821    2.147927   -1.639521
    116          1           0        5.997325    1.779776   -3.221474
    117          1           0        7.518000    2.524961   -3.242289
    118          1           0        9.264077    1.535024   -3.491263
    119          1           0        9.467457   -0.113298   -3.494276
    120          1           0        9.873821   -0.480816   -1.430066
    121          1           0        9.195401    0.975279   -0.760672
    122          1           0       11.276551    1.810490   -2.500957
    123          1           0       11.978723    0.413117   -1.610633
    124          1           0       10.560098    2.774099   -0.242851
    125          1           0       12.659146    3.918564   -0.223457
    126          1           0       12.979697    3.203092   -1.691553
    127          1           0       13.635447    2.487366   -0.200854
    128          1           0       12.541859    1.185679    1.173783
    129          1           0       11.039576    0.230978    0.854482
    130          1           0        9.733317    1.447635    1.971041
    131          1           0       10.888301    2.860199    2.191783
    132          1           0       11.738407    2.108774    4.016801
    133          1           0       12.145478    0.530602    3.233553
    134          1           0        9.794881   -0.063753    3.626579
    135          1           0        9.873958    2.407131    5.246186
    136          1           0        9.421069    1.018706    6.247531
    137          1           0        8.483016    1.385187    4.850969
    138          1           0       11.012748   -1.515965    4.927928
    139          1           0       11.027363   -0.456234    6.346054
    140          1           0       12.315269   -0.353966    5.152712
 ---------------------------------------------------------------------

 SCF Done:  E(RZINDO/S) =  -474.199625104     A.U. after   20 cycles

 Excitation energies and oscillator strengths:

 Excited State   1:      Singlet-A      1.2827 eV  966.62 nm  f=0.5532  <S**2>=0.000
     175 ->178         0.19169
     176 ->177         0.66242
 This state for optimization and/or second-order correction.
 Total Energy, E(CIS/TDA) =  -474.152488334
 Copying the excited state density for this state as the 1-particle RhoCI density.

 Excited State   2:      Singlet-A      1.8414 eV  673.31 nm  f=0.0099  <S**2>=0.000
     175 ->177        -0.42991
     176 ->178         0.53925

 Excited State   3:      Singlet-A      2.8292 eV  438.23 nm  f=0.0675  <S**2>=0.000
     176 ->178         0.10707
     176 ->179         0.63177
     176 ->181         0.20171

 Excited State   4:      Singlet-A      2.9166 eV  425.09 nm  f=1.1397  <S**2>=0.000
     175 ->177         0.48496
     176 ->178         0.40716
     176 ->179        -0.11119
     176 ->181        -0.13034

 Excited State   5:      Singlet-A      3.0099 eV  411.92 nm  f=0.0080  <S**2>=0.000
     168 ->177         0.25054
     168 ->179        -0.35309
     168 ->181         0.14035
     168 ->186        -0.19316
     170 ->177         0.14962
     170 ->179         0.15996
     170 ->181         0.27934
     170 ->186         0.11675
     170 ->187         0.14596

 The electronic state is 1-A.
 Alpha  occ. eigenvalues --   -1.85758  -1.81939  -1.79761  -1.74463  -1.71302
 Alpha  occ. eigenvalues --   -1.68341  -1.67637  -1.61729  -1.60757  -1.55802
 Alpha  occ. eigenvalues --   -1.55497  -1.51496  -1.48903  -1.47176  -1.45709
 Alpha  occ. eigenvalues --   -1.44764  -1.41003  -1.39277  -1.38670  -1.37609
 Alpha  occ. eigenvalues --   -1.36107  -1.33744  -1.32869  -1.32241  -1.29822
 Alpha  occ. eigenvalues --   -1.27462  -1.24939  -1.20810  -1.19474  -1.19215
 Alpha  occ. eigenvalues --   -1.17669  -1.15643  -1.15295  -1.15012  -1.13725
 Alpha  occ. eigenvalues --   -1.12366  -1.10702  -1.10088  -1.04608  -1.04059
 Alpha  occ. eigenvalues --   -1.01351  -1.00511  -0.98767  -0.97977  -0.96104
 Alpha  occ. eigenvalues --   -0.96046  -0.95386  -0.93473  -0.92682  -0.91944
 Alpha  occ. eigenvalues --   -0.90859  -0.90299  -0.89623  -0.88323  -0.86789
 Alpha  occ. eigenvalues --   -0.86222  -0.84797  -0.82903  -0.82684  -0.80938
 Alpha  occ. eigenvalues --   -0.80025  -0.79294  -0.77754  -0.77527  -0.75998
 Alpha  occ. eigenvalues --   -0.75420  -0.74768  -0.74363  -0.74024  -0.73018
 Alpha  occ. eigenvalues --   -0.72597  -0.72158  -0.71796  -0.71755  -0.70414
 Alpha  occ. eigenvalues --   -0.69758  -0.69131  -0.69054  -0.68318  -0.68196
 Alpha  occ. eigenvalues --   -0.67838  -0.67466  -0.66616  -0.66350  -0.65986
 Alpha  occ. eigenvalues --   -0.65873  -0.64565  -0.64281  -0.63738  -0.63035
 Alpha  occ. eigenvalues --   -0.62861  -0.62556  -0.62491  -0.62161  -0.61492
 Alpha  occ. eigenvalues --   -0.61427  -0.61054  -0.60757  -0.60377  -0.60003
 Alpha  occ. eigenvalues --   -0.59657  -0.59371  -0.58748  -0.58330  -0.58050
 Alpha  occ. eigenvalues --   -0.57785  -0.56943  -0.56866  -0.56812  -0.56355
 Alpha  occ. eigenvalues --   -0.56158  -0.56076  -0.55367  -0.54831  -0.54662
 Alpha  occ. eigenvalues --   -0.54420  -0.54078  -0.53718  -0.53360  -0.52795
 Alpha  occ. eigenvalues --   -0.52409  -0.52188  -0.51931  -0.51454  -0.51249
 Alpha  occ. eigenvalues --   -0.51002  -0.50801  -0.50637  -0.50235  -0.50066
 Alpha  occ. eigenvalues --   -0.49822  -0.49746  -0.49638  -0.49301  -0.49008
 Alpha  occ. eigenvalues --   -0.48705  -0.48620  -0.48497  -0.48345  -0.48155
 Alpha  occ. eigenvalues --   -0.47678  -0.47019  -0.46939  -0.46813  -0.46423
 Alpha  occ. eigenvalues --   -0.46391  -0.46042  -0.45871  -0.45544  -0.45428
 Alpha  occ. eigenvalues --   -0.44899  -0.44739  -0.44465  -0.44158  -0.44027
 Alpha  occ. eigenvalues --   -0.43665  -0.43616  -0.42693  -0.41959  -0.41890
 Alpha  occ. eigenvalues --   -0.41871  -0.41324  -0.40703  -0.39369  -0.38892
 Alpha  occ. eigenvalues --   -0.37978  -0.37304  -0.36131  -0.34873  -0.34319
 Alpha  occ. eigenvalues --   -0.33678  -0.32094  -0.31700  -0.31296  -0.26802
 Alpha  occ. eigenvalues --   -0.21014
 Alpha virt. eigenvalues --   -0.07567  -0.02927  -0.00888   0.01220   0.01453
 Alpha virt. eigenvalues --    0.02025   0.02456   0.03234   0.03958   0.04370
 Alpha virt. eigenvalues --    0.06422   0.06773   0.07723   0.07997   0.08199

 Mulliken charges:
               1
     1  Mg   0.422799
     2  C   -0.072261
     3  C   -0.087581
     4  C   -0.058104
     5  C   -0.074880
     6  N   -0.289288
     7  C    0.146115
     8  C    0.006014
     9  C   -0.002867
    10  C    0.120652
    11  C   -0.056565
    12  C   -0.010968
    13  C    0.012961
    14  C    0.471195
    15  O   -0.537684
    16  O   -0.267096
    17  N   -0.307004
    18  C    0.090542
    19  C   -0.015477
    20  C   -0.063298
    21  C    0.106319
    22  C   -0.041442
    23  C    0.318977
    24  O   -0.543514
    25  C   -0.031081
    26  N   -0.263343
    27  C    0.104312
    28  C    0.007461
    29  C    0.001975
    30  C    0.149216
    31  C   -0.049790
    32  C   -0.045444
    33  C   -0.065066
    34  N   -0.344684
    35  C    0.139315
    36  C    0.041706
    37  C   -0.045502
    38  C    0.138069
    39  C   -0.037736
    40  C    0.356197
    41  O   -0.496516
    42  C    0.066218
    43  C    0.505371
    44  O   -0.541700
    45  O   -0.273889
    46  C    0.068807
    47  C    0.100585
    48  C   -0.104868
    49  C   -0.000352
    50  C   -0.046868
    51  C   -0.010498
    52  C   -0.030692
    53  C   -0.050126
    54  C   -0.000725
    55  C   -0.053300
    56  C   -0.022424
    57  C   -0.038412
    58  C   -0.034745
    59  C   -0.006814
    60  C   -0.073098
    61  C   -0.042907
    62  C   -0.044628
    63  C   -0.033681
    64  C   -0.015687
    65  C   -0.055381
    66  C   -0.063513
    67  H    0.020612
    68  H    0.044268
    69  H    0.031349
    70  H    0.037574
    71  H    0.027555
    72  H    0.017690
    73  H    0.022260
    74  H    0.040640
    75  H    0.027854
    76  H    0.046062
    77  H    0.032064
    78  H    0.049681
    79  H    0.032505
    80  H    0.023751
    81  H    0.030485
    82  H    0.035295
    83  H    0.036235
    84  H    0.034026
    85  H    0.028586
    86  H    0.037929
    87  H    0.037085
    88  H    0.018022
    89  H    0.021562
    90  H    0.024882
    91  H    0.023015
    92  H    0.026936
    93  H    0.024315
    94  H    0.018761
    95  H    0.029548
    96  H    0.032584
    97  H    0.043936
    98  H    0.057221
    99  H    0.044002
   100  H    0.058313
   101  H    0.027899
   102  H    0.059459
   103  H    0.042204
   104  H    0.028462
   105  H    0.028384
   106  H    0.032228
   107  H    0.020397
   108  H    0.025282
   109  H    0.015546
   110  H    0.018488
   111  H    0.024089
   112  H    0.005297
   113  H    0.023738
   114  H    0.022581
   115  H    0.020620
   116  H    0.016798
   117  H    0.018574
   118  H    0.022404
   119  H    0.003907
   120  H    0.009503
   121  H    0.020257
   122  H    0.015574
   123  H    0.026360
   124  H    0.027789
   125  H    0.005784
   126  H    0.021872
   127  H    0.023232
   128  H    0.018861
   129  H    0.023262
   130  H    0.023552
   131  H    0.018205
   132  H    0.019979
   133  H    0.018593
   134  H    0.022822
   135  H    0.021169
   136  H    0.017576
   137  H    0.012454
   138  H    0.014174
   139  H    0.023038
   140  H    0.019681
 Sum of Mulliken charges =  -0.00000

 Dipole moment (field-independent basis, Debye):
    X=              2.2041    Y=              0.8192    Z=             -0.5710  Tot=              2.4198
 N-N= 4.398881208591D+03 E-N= 0.000000000000D+00  KE=-9.472097447275D+03
 Leave Link  601 at Wed May  4 15:53:06 2022, MaxMem=  6710886400 cpu:               0.7 elap:               0.0
 (Enter /sw/apps/gaussian-16.0/g16/l9999.exe)
 1\1\GINC-BP1-COMPUTE166\SP\RZINDO CIS\STO-3G\C55H74Mg1N4O6\OF15641\04-
 May-2022\0\\#p ZINDO=(nstates=5)\\step_1851_chromophore_15 ZINDO\\0,1\
 Mg,0,47.032,35.412,28.481\C,0,45.43,33.191,30.672\C,0,46.867,37.823,30
 .924\C,0,47.789,37.636,26.11\C,0,46.436,32.859,26.021\N,0,46.187,35.57
 6,30.489\C,0,45.64,34.503,31.215\C,0,45.758,34.732,32.666\C,0,45.721,3
 6.31,32.65\C,0,46.335,36.629,31.274\C,0,44.251,36.967,32.725\C,0,47.10
 3,34.098,33.225\C,0,47.111,33.898,34.756\C,0,46.195,34.836,35.552\O,0,

 Normal termination of Gaussian 16 at Wed May  4 15:53:06 2022.
