 Gaussian 16, Revision A.03,
 Gaussian 16:  ES64L-G16RevA.03 25-Dec-2016

 ------------------------------
 #p blyp/Def2SVP td=(nstates=5)
 ------------------------------

 ---------------------------------------------------
 step_1251_chromophore_14 TDDFT with blyp functional
 ---------------------------------------------------
 Symbolic Z-matrix:
 Charge =  0 Multiplicity = 1

                         Standard orientation:
 ---------------------------------------------------------------------
 Center     Atomic      Atomic             Coordinates (Angstroms)
 Number     Number       Type             X           Y           Z
 ---------------------------------------------------------------------
      1         12           0        5.341060    1.130247   -0.136780
      2          6           0        5.339789   -2.379095    0.232513
      3          6           0        4.412771    0.579993   -3.406935
      4          6           0        4.658641    4.328634   -0.360365
      5          6           0        5.692419    1.460114    3.446181
      6          7           0        4.894393   -0.702677   -1.419703
      7          6           0        5.004498   -2.018138   -1.020118
      8          6           0        4.601533   -2.979862   -2.134194
      9          6           0        4.447285   -1.973280   -3.373231
     10          6           0        4.691937   -0.615768   -2.724408
     11          6           0        5.399941   -2.259535   -4.552391
     12          6           0        3.267730   -3.792708   -1.930892
     13          6           0        2.110391   -3.128660   -1.056250
     14          6           0        0.726417   -3.506689   -1.608516
     15          8           0        0.410017   -4.501539   -2.216076
     16          8           0       -0.220500   -2.601433   -1.119101
     17          7           0        4.532894    2.266055   -1.656561
     18          6           0        4.224970    1.868369   -2.900194
     19          6           0        3.765455    2.996269   -3.672584
     20          6           0        3.678593    4.091069   -2.759604
     21          6           0        4.255705    3.616223   -1.499109
     22          6           0        3.264744    2.952380   -5.104874
     23          6           0        3.126012    5.416084   -3.095098
     24          8           0        2.797930    5.710958   -4.248976
     25          6           0        2.771140    6.396849   -2.000913
     26          7           0        5.008663    2.673276    1.393431
     27          6           0        5.066548    3.941197    0.914419
     28          6           0        5.515331    4.940758    1.938929
     29          6           0        5.677435    4.152880    3.240424
     30          6           0        5.443743    2.661103    2.674924
     31          6           0        6.778059    5.652607    1.549275
     32          6           0        4.658601    4.593080    4.293685
     33          6           0        5.067307    4.531442    5.804461
     34          7           0        5.472827   -0.089843    1.464687
     35          6           0        5.666055    0.137618    2.849490
     36          6           0        5.737586   -1.098194    3.569668
     37          6           0        5.554691   -2.098163    2.610951
     38          6           0        5.451680   -1.453050    1.363558
     39          6           0        5.940012   -1.321076    5.038852
     40          6           0        5.584562   -3.538303    2.406050
     41          8           0        5.593978   -4.432799    3.260269
     42          6           0        5.452338   -3.740305    0.860064
     43          6           0        6.645313   -4.539028    0.491861
     44          8           0        6.751855   -5.765504    0.336759
     45          8           0        7.713782   -3.717264    0.469103
     46          6           0        9.042911   -4.328214    0.068679
     47          6           0       -1.638024   -3.066879   -1.197638
     48          6           0       -2.597025   -2.187148   -0.530705
     49          6           0       -3.524209   -1.277201   -1.090751
     50          6           0       -3.340006   -0.743102   -2.526967
     51          6           0       -4.686912   -0.562505   -0.190534
     52          6           0       -6.112994   -0.974782   -0.552898
     53          6           0       -6.923975   -1.690526    0.502882
     54          6           0       -8.313091   -1.008811    0.652364
     55          6           0       -8.414661   -0.205758    1.943113
     56          6           0       -9.474774   -2.076991    0.457268
     57          6           0      -10.757949   -1.234948    0.029148
     58          6           0      -12.089650   -1.786164    0.386521
     59          6           0      -12.879675   -0.940785    1.419051
     60          6           0      -12.459707   -1.232235    2.898225
     61          6           0      -14.425583   -0.982177    1.251293
     62          6           0      -15.168586    0.288988    1.291720
     63          6           0      -15.292363    0.898290   -0.151868
     64          6           0      -15.884070    2.342407   -0.157117
     65          6           0      -16.810859    2.656664   -1.397666
     66          6           0      -14.798752    3.421093   -0.077826
     67          1           0        4.010436    0.416193   -4.407988
     68          1           0        4.716305    5.390141   -0.609103
     69          1           0        5.870575    1.493165    4.522927
     70          1           0        5.385657   -3.708201   -2.342607
     71          1           0        3.397229   -1.875018   -3.648511
     72          1           0        4.873788   -2.031422   -5.480147
     73          1           0        5.590282   -3.332754   -4.534065
     74          1           0        6.352694   -1.744287   -4.433930
     75          1           0        3.569800   -4.754592   -1.519040
     76          1           0        2.874674   -4.105776   -2.898872
     77          1           0        2.265739   -2.056304   -1.181804
     78          1           0        2.182284   -3.527915   -0.044047
     79          1           0        2.296789    3.434875   -5.245025
     80          1           0        3.052181    1.917903   -5.372415
     81          1           0        3.964614    3.338452   -5.846704
     82          1           0        3.633087    6.897251   -1.560693
     83          1           0        2.189711    5.768470   -1.326201
     84          1           0        2.106070    7.144137   -2.435054
     85          1           0        4.725330    5.689047    2.006817
     86          1           0        6.701309    4.111053    3.613819
     87          1           0        7.643842    5.281554    2.096068
     88          1           0        6.639827    6.730612    1.638285
     89          1           0        7.019196    5.518315    0.494281
     90          1           0        3.673551    4.161667    4.115194
     91          1           0        4.592658    5.678442    4.228288
     92          1           0        6.052202    4.071162    5.883681
     93          1           0        4.340779    3.985007    6.406427
     94          1           0        5.022260    5.489867    6.321398
     95          1           0        5.051945   -1.027549    5.597482
     96          1           0        6.768211   -0.804058    5.524016
     97          1           0        6.038285   -2.394258    5.204366
     98          1           0        4.640134   -4.411744    0.581306
     99          1           0        9.345852   -5.229335    0.603434
    100          1           0        9.877104   -3.626951    0.089817
    101          1           0        8.925805   -4.650883   -0.965687
    102          1           0       -1.636783   -4.069416   -0.768518
    103          1           0       -1.933066   -2.937769   -2.239189
    104          1           0       -2.911913   -2.483552    0.470258
    105          1           0       -2.388525   -0.912085   -3.031471
    106          1           0       -3.558871    0.324059   -2.519883
    107          1           0       -4.148041   -1.266591   -3.037162
    108          1           0       -4.480762    0.506210   -0.244423
    109          1           0       -4.470365   -0.778605    0.856054
    110          1           0       -6.120046   -1.581094   -1.458855
    111          1           0       -6.585822   -0.031587   -0.826850
    112          1           0       -6.420003   -1.684282    1.469248
    113          1           0       -7.042513   -2.689780    0.083170
    114          1           0       -8.501941   -0.320697   -0.172201
    115          1           0       -9.306844   -0.350159    2.552336
    116          1           0       -8.386518    0.864232    1.735198
    117          1           0       -7.616581   -0.381743    2.663720
    118          1           0       -9.618613   -2.678388    1.355491
    119          1           0       -9.181216   -2.766952   -0.334170
    120          1           0      -10.690267   -1.164066   -1.056885
    121          1           0      -10.656473   -0.247149    0.477507
    122          1           0      -11.957112   -2.788517    0.794636
    123          1           0      -12.744656   -1.930765   -0.471870
    124          1           0      -12.588034    0.082583    1.179325
    125          1           0      -13.294944   -1.288806    3.595856
    126          1           0      -11.687330   -0.530284    3.214718
    127          1           0      -12.031422   -2.235013    2.895140
    128          1           0      -14.873739   -1.643107    1.993235
    129          1           0      -14.617925   -1.554526    0.343545
    130          1           0      -14.582245    0.963006    1.916369
    131          1           0      -16.106578    0.091892    1.810667
    132          1           0      -16.036771    0.296400   -0.673321
    133          1           0      -14.337681    0.810252   -0.669921
    134          1           0      -16.509093    2.416289    0.733057
    135          1           0      -16.767836    1.906826   -2.188595
    136          1           0      -16.636267    3.665098   -1.771405
    137          1           0      -17.828169    2.741510   -1.015927
    138          1           0      -15.339033    4.254940    0.369733
    139          1           0      -14.431188    3.756414   -1.047216
    140          1           0      -13.971349    3.164773    0.583895
 ---------------------------------------------------------------------

 SCF Done:  E(RB-LYP) =  -3007.39958627     A.U. after   21 cycles

 Excitation energies and oscillator strengths:

 Excited State   1:      Singlet-A      1.7257 eV  718.46 nm  f=0.0007  <S**2>=0.000
     244 -> 247        0.70584
 This state for optimization and/or second-order correction.
 Total Energy, E(TD-HF/TD-DFT) =  -3007.33616792
 Copying the excited state density for this state as the 1-particle RhoCI density.

 Excited State   2:      Singlet-A      1.7794 eV  696.78 nm  f=0.2418  <S**2>=0.000
     243 -> 247        0.10981
     245 -> 248       -0.16831
     246 -> 247        0.67944
     246 <- 247       -0.15040

 Excited State   3:      Singlet-A      1.9399 eV  639.11 nm  f=0.0706  <S**2>=0.000
     243 -> 247        0.47019
     245 -> 247        0.48903
     246 -> 247       -0.11787
     246 -> 248        0.14123

 Excited State   4:      Singlet-A      2.0954 eV  591.71 nm  f=0.0476  <S**2>=0.000
     243 -> 247        0.50933
     245 -> 247       -0.42343
     246 -> 248       -0.20559

 Excited State   5:      Singlet-A      2.2421 eV  552.98 nm  f=0.0002  <S**2>=0.000
     242 -> 247        0.70668

 The electronic state is 1-A.
 Alpha  occ. eigenvalues --  -46.27943 -18.82343 -18.80305 -18.76896 -18.76110
 Alpha  occ. eigenvalues --  -18.76000 -18.75016 -14.03505 -14.03244 -14.01518
 Alpha  occ. eigenvalues --  -14.01363 -10.03644 -10.03642 -10.00108  -9.99301
 Alpha  occ. eigenvalues --   -9.98289  -9.97143  -9.97090  -9.96768  -9.96455
 Alpha  occ. eigenvalues --   -9.96350  -9.96186  -9.95803  -9.95610  -9.95046
 Alpha  occ. eigenvalues --   -9.94719  -9.94464  -9.94296  -9.94206  -9.94099
 Alpha  occ. eigenvalues --   -9.93940  -9.93873  -9.93852  -9.93763  -9.93651
 Alpha  occ. eigenvalues --   -9.93379  -9.93165  -9.93031  -9.92990  -9.92972
 Alpha  occ. eigenvalues --   -9.92837  -9.92706  -9.92606  -9.92588  -9.92561
 Alpha  occ. eigenvalues --   -9.92327  -9.92099  -9.92075  -9.91926  -9.91899
 Alpha  occ. eigenvalues --   -9.91846  -9.91692  -9.91662  -9.91584  -9.91447
 Alpha  occ. eigenvalues --   -9.91204  -9.91101  -9.91080  -9.91056  -9.91021
 Alpha  occ. eigenvalues --   -9.90931  -9.90834  -9.90824  -9.90557  -9.90437
 Alpha  occ. eigenvalues --   -9.90078  -2.92614  -1.72998  -1.72546  -1.72301
 Alpha  occ. eigenvalues --   -0.97483  -0.96553  -0.90835  -0.90651  -0.89043
 Alpha  occ. eigenvalues --   -0.88192  -0.87084  -0.86690  -0.85826  -0.85006
 Alpha  occ. eigenvalues --   -0.75876  -0.73438  -0.73432  -0.72723  -0.72378
 Alpha  occ. eigenvalues --   -0.72124  -0.71465  -0.71088  -0.70634  -0.70145
 Alpha  occ. eigenvalues --   -0.69693  -0.69054  -0.68551  -0.67838  -0.67619
 Alpha  occ. eigenvalues --   -0.66818  -0.66085  -0.65306  -0.65025  -0.64704
 Alpha  occ. eigenvalues --   -0.63971  -0.62471  -0.62251  -0.61852  -0.61420
 Alpha  occ. eigenvalues --   -0.60576  -0.60230  -0.59654  -0.59576  -0.59038
 Alpha  occ. eigenvalues --   -0.58385  -0.57592  -0.57129  -0.55664  -0.54918
 Alpha  occ. eigenvalues --   -0.54141  -0.53880  -0.53069  -0.52290  -0.51995
 Alpha  occ. eigenvalues --   -0.51435  -0.50960  -0.50701  -0.50353  -0.50040
 Alpha  occ. eigenvalues --   -0.49338  -0.49075  -0.48827  -0.48123  -0.46671
 Alpha  occ. eigenvalues --   -0.46286  -0.45715  -0.45140  -0.45009  -0.44305
 Alpha  occ. eigenvalues --   -0.44002  -0.43929  -0.43421  -0.42841  -0.42687
 Alpha  occ. eigenvalues --   -0.42098  -0.42009  -0.41716  -0.41633  -0.40879
 Alpha  occ. eigenvalues --   -0.40643  -0.40251  -0.40193  -0.40141  -0.40099
 Alpha  occ. eigenvalues --   -0.39929  -0.39627  -0.39385  -0.39195  -0.39107
 Alpha  occ. eigenvalues --   -0.38862  -0.38733  -0.38562  -0.38430  -0.38240
 Alpha  occ. eigenvalues --   -0.37960  -0.37848  -0.37516  -0.37249  -0.37123
 Alpha  occ. eigenvalues --   -0.36948  -0.36853  -0.36733  -0.36549  -0.36409
 Alpha  occ. eigenvalues --   -0.36290  -0.36214  -0.35980  -0.35769  -0.35637
 Alpha  occ. eigenvalues --   -0.35305  -0.35092  -0.35062  -0.34878  -0.34654
 Alpha  occ. eigenvalues --   -0.34421  -0.34311  -0.34154  -0.33962  -0.33947
 Alpha  occ. eigenvalues --   -0.33879  -0.33749  -0.33695  -0.33669  -0.33328
 Alpha  occ. eigenvalues --   -0.33094  -0.32973  -0.32857  -0.32758  -0.32493
 Alpha  occ. eigenvalues --   -0.32243  -0.32094  -0.31957  -0.31782  -0.31566
 Alpha  occ. eigenvalues --   -0.31395  -0.31181  -0.31103  -0.30821  -0.30547
 Alpha  occ. eigenvalues --   -0.30348  -0.30248  -0.30149  -0.30024  -0.29973
 Alpha  occ. eigenvalues --   -0.29670  -0.29495  -0.29314  -0.29269  -0.29123
 Alpha  occ. eigenvalues --   -0.29027  -0.28516  -0.28089  -0.28052  -0.27970
 Alpha  occ. eigenvalues --   -0.27472  -0.27264  -0.27030  -0.26952  -0.26463
 Alpha  occ. eigenvalues --   -0.26388  -0.26249  -0.25939  -0.25555  -0.25255
 Alpha  occ. eigenvalues --   -0.24943  -0.24708  -0.24060  -0.23928  -0.23881
 Alpha  occ. eigenvalues --   -0.23638  -0.22610  -0.22106  -0.21273  -0.21097
 Alpha  occ. eigenvalues --   -0.20754  -0.20114  -0.19140  -0.18145  -0.17617
 Alpha  occ. eigenvalues --   -0.16045
 Alpha virt. eigenvalues --   -0.11876  -0.07280  -0.06246  -0.04865  -0.04145
 Alpha virt. eigenvalues --   -0.04059  -0.02293  -0.02123  -0.01770  -0.00240
 Alpha virt. eigenvalues --    0.00904   0.01816   0.02433   0.02624   0.03110

 Mulliken charges:
               1
     1  Mg   0.703642
     2  C    0.090719
     3  C   -0.072168
     4  C   -0.067816
     5  C   -0.062192
     6  N   -0.168668
     7  C   -0.115144
     8  C    0.045553
     9  C   -0.018795
    10  C   -0.009455
    11  C    0.149858
    12  C    0.054129
    13  C    0.123469
    14  C    0.078973
    15  O   -0.176484
    16  O   -0.304243
    17  N   -0.295580
    18  C    0.135094
    19  C   -0.132939
    20  C    0.066519
    21  C    0.126409
    22  C    0.188541
    23  C   -0.112715
    24  O   -0.180071
    25  C    0.119256
    26  N   -0.190569
    27  C    0.023565
    28  C    0.022121
    29  C    0.048372
    30  C    0.006151
    31  C    0.139078
    32  C    0.098673
    33  C    0.051640
    34  N   -0.299431
    35  C    0.103374
    36  C   -0.174948
    37  C    0.103429
    38  C    0.048633
    39  C    0.166041
    40  C   -0.033917
    41  O   -0.136487
    42  C    0.069140
    43  C    0.076885
    44  O   -0.188394
    45  O   -0.274990
    46  C    0.226532
    47  C    0.345232
    48  C   -0.081483
    49  C   -0.193085
    50  C    0.127495
    51  C    0.105892
    52  C    0.064838
    53  C    0.160868
    54  C   -0.114487
    55  C    0.117770
    56  C    0.086402
    57  C    0.061426
    58  C    0.134699
    59  C   -0.106002
    60  C    0.112333
    61  C    0.119473
    62  C    0.083840
    63  C    0.089299
    64  C   -0.073567
    65  C    0.103443
    66  C    0.097446
    67  H   -0.063762
    68  H   -0.071205
    69  H   -0.056020
    70  H   -0.029040
    71  H   -0.012659
    72  H    0.001770
    73  H   -0.008938
    74  H   -0.001451
    75  H   -0.009767
    76  H   -0.011251
    77  H    0.019654
    78  H    0.030904
    79  H    0.006923
    80  H   -0.037030
    81  H    0.007332
    82  H    0.022562
    83  H    0.009927
    84  H   -0.010368
    85  H   -0.023181
    86  H   -0.026401
    87  H   -0.012817
    88  H   -0.009983
    89  H   -0.018223
    90  H   -0.006294
    91  H   -0.020052
    92  H   -0.003197
    93  H   -0.013334
    94  H   -0.010558
    95  H   -0.005458
    96  H   -0.005138
    97  H    0.004558
    98  H   -0.011194
    99  H    0.027035
   100  H    0.016704
   101  H    0.003987
   102  H   -0.000034
   103  H   -0.016719
   104  H   -0.043540
   105  H    0.015743
   106  H   -0.003356
   107  H    0.003403
   108  H   -0.015609
   109  H   -0.030733
   110  H   -0.021855
   111  H   -0.027824
   112  H   -0.026967
   113  H   -0.034382
   114  H   -0.024428
   115  H   -0.021751
   116  H   -0.019965
   117  H   -0.025660
   118  H   -0.027062
   119  H   -0.035968
   120  H   -0.028186
   121  H   -0.024686
   122  H   -0.040711
   123  H   -0.047236
   124  H   -0.041117
   125  H   -0.015359
   126  H   -0.000006
   127  H   -0.023646
   128  H   -0.056325
   129  H   -0.058898
   130  H   -0.035050
   131  H   -0.033523
   132  H   -0.038341
   133  H   -0.025532
   134  H   -0.035624
   135  H   -0.005733
   136  H   -0.026226
   137  H   -0.023993
   138  H   -0.021110
   139  H   -0.009974
   140  H   -0.018671
 Sum of Mulliken charges =  -0.00000

 Dipole moment (field-independent basis, Debye):
    X=              0.7077    Y=              5.7468    Z=              0.8785  Tot=              5.8565
 Quadrupole moment (field-independent basis, Debye-Ang):
   XX=           -347.9126   YY=           -446.1267   ZZ=           -409.8892
   XY=             30.7990   XZ=             -5.3684   YZ=             38.9845

 Normal termination of Gaussian 16 at Wed Apr 27 16:31:42 2022.
