 Gaussian 16, Revision A.03,
 Gaussian 16:  ES64L-G16RevA.03 25-Dec-2016

 -----------------------------------
 #p cam-b3lyp/Def2SVP td=(nstates=5)
 -----------------------------------

 --------------------------------------------------------
 step_1251_chromophore_14 TDDFT with cam-b3lyp functional
 --------------------------------------------------------
 Symbolic Z-matrix:
 Charge =  0 Multiplicity = 1

                         Standard orientation:
 ---------------------------------------------------------------------
 Center     Atomic      Atomic             Coordinates (Angstroms)
 Number     Number       Type             X           Y           Z
 ---------------------------------------------------------------------
      1         12           0        5.341060    1.130247   -0.136780
      2          6           0        5.339789   -2.379095    0.232513
      3          6           0        4.412771    0.579993   -3.406935
      4          6           0        4.658641    4.328634   -0.360365
      5          6           0        5.692419    1.460114    3.446181
      6          7           0        4.894393   -0.702677   -1.419703
      7          6           0        5.004498   -2.018138   -1.020118
      8          6           0        4.601533   -2.979862   -2.134194
      9          6           0        4.447285   -1.973280   -3.373231
     10          6           0        4.691937   -0.615768   -2.724408
     11          6           0        5.399941   -2.259535   -4.552391
     12          6           0        3.267730   -3.792708   -1.930892
     13          6           0        2.110391   -3.128660   -1.056250
     14          6           0        0.726417   -3.506689   -1.608516
     15          8           0        0.410017   -4.501539   -2.216076
     16          8           0       -0.220500   -2.601433   -1.119101
     17          7           0        4.532894    2.266055   -1.656561
     18          6           0        4.224970    1.868369   -2.900194
     19          6           0        3.765455    2.996269   -3.672584
     20          6           0        3.678593    4.091069   -2.759604
     21          6           0        4.255705    3.616223   -1.499109
     22          6           0        3.264744    2.952380   -5.104874
     23          6           0        3.126012    5.416084   -3.095098
     24          8           0        2.797930    5.710958   -4.248976
     25          6           0        2.771140    6.396849   -2.000913
     26          7           0        5.008663    2.673276    1.393431
     27          6           0        5.066548    3.941197    0.914419
     28          6           0        5.515331    4.940758    1.938929
     29          6           0        5.677435    4.152880    3.240424
     30          6           0        5.443743    2.661103    2.674924
     31          6           0        6.778059    5.652607    1.549275
     32          6           0        4.658601    4.593080    4.293685
     33          6           0        5.067307    4.531442    5.804461
     34          7           0        5.472827   -0.089843    1.464687
     35          6           0        5.666055    0.137618    2.849490
     36          6           0        5.737586   -1.098194    3.569668
     37          6           0        5.554691   -2.098163    2.610951
     38          6           0        5.451680   -1.453050    1.363558
     39          6           0        5.940012   -1.321076    5.038852
     40          6           0        5.584562   -3.538303    2.406050
     41          8           0        5.593978   -4.432799    3.260269
     42          6           0        5.452338   -3.740305    0.860064
     43          6           0        6.645313   -4.539028    0.491861
     44          8           0        6.751855   -5.765504    0.336759
     45          8           0        7.713782   -3.717264    0.469103
     46          6           0        9.042911   -4.328214    0.068679
     47          6           0       -1.638024   -3.066879   -1.197638
     48          6           0       -2.597025   -2.187148   -0.530705
     49          6           0       -3.524209   -1.277201   -1.090751
     50          6           0       -3.340006   -0.743102   -2.526967
     51          6           0       -4.686912   -0.562505   -0.190534
     52          6           0       -6.112994   -0.974782   -0.552898
     53          6           0       -6.923975   -1.690526    0.502882
     54          6           0       -8.313091   -1.008811    0.652364
     55          6           0       -8.414661   -0.205758    1.943113
     56          6           0       -9.474774   -2.076991    0.457268
     57          6           0      -10.757949   -1.234948    0.029148
     58          6           0      -12.089650   -1.786164    0.386521
     59          6           0      -12.879675   -0.940785    1.419051
     60          6           0      -12.459707   -1.232235    2.898225
     61          6           0      -14.425583   -0.982177    1.251293
     62          6           0      -15.168586    0.288988    1.291720
     63          6           0      -15.292363    0.898290   -0.151868
     64          6           0      -15.884070    2.342407   -0.157117
     65          6           0      -16.810859    2.656664   -1.397666
     66          6           0      -14.798752    3.421093   -0.077826
     67          1           0        4.010436    0.416193   -4.407988
     68          1           0        4.716305    5.390141   -0.609103
     69          1           0        5.870575    1.493165    4.522927
     70          1           0        5.385657   -3.708201   -2.342607
     71          1           0        3.397229   -1.875018   -3.648511
     72          1           0        4.873788   -2.031422   -5.480147
     73          1           0        5.590282   -3.332754   -4.534065
     74          1           0        6.352694   -1.744287   -4.433930
     75          1           0        3.569800   -4.754592   -1.519040
     76          1           0        2.874674   -4.105776   -2.898872
     77          1           0        2.265739   -2.056304   -1.181804
     78          1           0        2.182284   -3.527915   -0.044047
     79          1           0        2.296789    3.434875   -5.245025
     80          1           0        3.052181    1.917903   -5.372415
     81          1           0        3.964614    3.338452   -5.846704
     82          1           0        3.633087    6.897251   -1.560693
     83          1           0        2.189711    5.768470   -1.326201
     84          1           0        2.106070    7.144137   -2.435054
     85          1           0        4.725330    5.689047    2.006817
     86          1           0        6.701309    4.111053    3.613819
     87          1           0        7.643842    5.281554    2.096068
     88          1           0        6.639827    6.730612    1.638285
     89          1           0        7.019196    5.518315    0.494281
     90          1           0        3.673551    4.161667    4.115194
     91          1           0        4.592658    5.678442    4.228288
     92          1           0        6.052202    4.071162    5.883681
     93          1           0        4.340779    3.985007    6.406427
     94          1           0        5.022260    5.489867    6.321398
     95          1           0        5.051945   -1.027549    5.597482
     96          1           0        6.768211   -0.804058    5.524016
     97          1           0        6.038285   -2.394258    5.204366
     98          1           0        4.640134   -4.411744    0.581306
     99          1           0        9.345852   -5.229335    0.603434
    100          1           0        9.877104   -3.626951    0.089817
    101          1           0        8.925805   -4.650883   -0.965687
    102          1           0       -1.636783   -4.069416   -0.768518
    103          1           0       -1.933066   -2.937769   -2.239189
    104          1           0       -2.911913   -2.483552    0.470258
    105          1           0       -2.388525   -0.912085   -3.031471
    106          1           0       -3.558871    0.324059   -2.519883
    107          1           0       -4.148041   -1.266591   -3.037162
    108          1           0       -4.480762    0.506210   -0.244423
    109          1           0       -4.470365   -0.778605    0.856054
    110          1           0       -6.120046   -1.581094   -1.458855
    111          1           0       -6.585822   -0.031587   -0.826850
    112          1           0       -6.420003   -1.684282    1.469248
    113          1           0       -7.042513   -2.689780    0.083170
    114          1           0       -8.501941   -0.320697   -0.172201
    115          1           0       -9.306844   -0.350159    2.552336
    116          1           0       -8.386518    0.864232    1.735198
    117          1           0       -7.616581   -0.381743    2.663720
    118          1           0       -9.618613   -2.678388    1.355491
    119          1           0       -9.181216   -2.766952   -0.334170
    120          1           0      -10.690267   -1.164066   -1.056885
    121          1           0      -10.656473   -0.247149    0.477507
    122          1           0      -11.957112   -2.788517    0.794636
    123          1           0      -12.744656   -1.930765   -0.471870
    124          1           0      -12.588034    0.082583    1.179325
    125          1           0      -13.294944   -1.288806    3.595856
    126          1           0      -11.687330   -0.530284    3.214718
    127          1           0      -12.031422   -2.235013    2.895140
    128          1           0      -14.873739   -1.643107    1.993235
    129          1           0      -14.617925   -1.554526    0.343545
    130          1           0      -14.582245    0.963006    1.916369
    131          1           0      -16.106578    0.091892    1.810667
    132          1           0      -16.036771    0.296400   -0.673321
    133          1           0      -14.337681    0.810252   -0.669921
    134          1           0      -16.509093    2.416289    0.733057
    135          1           0      -16.767836    1.906826   -2.188595
    136          1           0      -16.636267    3.665098   -1.771405
    137          1           0      -17.828169    2.741510   -1.015927
    138          1           0      -15.339033    4.254940    0.369733
    139          1           0      -14.431188    3.756414   -1.047216
    140          1           0      -13.971349    3.164773    0.583895
 ---------------------------------------------------------------------

 SCF Done:  E(RCAM-B3LYP) =  -3007.18998333     A.U. after   19 cycles

 Excitation energies and oscillator strengths:

 Excited State   1:      Singlet-A      1.7055 eV  726.96 nm  f=0.3505  <S**2>=0.000
     245 -> 248       -0.16404
     246 -> 247        0.68766
     245 <- 248       -0.10007
 This state for optimization and/or second-order correction.
 Total Energy, E(TD-HF/TD-DFT) =  -3007.12730698
 Copying the excited state density for this state as the 1-particle RhoCI density.

 Excited State   2:      Singlet-A      2.2592 eV  548.79 nm  f=0.1103  <S**2>=0.000
     245 -> 247        0.63553
     246 -> 248        0.28956

 Excited State   3:      Singlet-A      3.3564 eV  369.40 nm  f=0.0309  <S**2>=0.000
     240 -> 248       -0.10269
     240 -> 251       -0.12075
     242 -> 247        0.53951
     242 -> 249       -0.10398
     243 -> 247       -0.28288
     246 -> 248       -0.21212

 Excited State   4:      Singlet-A      3.4489 eV  359.49 nm  f=0.1330  <S**2>=0.000
     240 -> 247        0.47867
     240 -> 248       -0.14738
     240 -> 249       -0.15605
     240 -> 250        0.10058
     240 -> 251       -0.14430
     242 -> 251       -0.10168
     243 -> 247        0.13725
     245 -> 247       -0.12208
     246 -> 248        0.30988

 Excited State   5:      Singlet-A      3.4871 eV  355.55 nm  f=0.1996  <S**2>=0.000
     241 -> 247        0.10271
     243 -> 247        0.50550
     245 -> 247        0.16559
     246 -> 248       -0.39780

 The electronic state is 1-A.
 Alpha  occ. eigenvalues --  -46.89556 -19.25156 -19.23063 -19.19852 -19.18957
 Alpha  occ. eigenvalues --  -19.18945 -19.18567 -14.42397 -14.42132 -14.40022
 Alpha  occ. eigenvalues --  -14.39751 -10.38942 -10.38907 -10.35176 -10.34771
 Alpha  occ. eigenvalues --  -10.32275 -10.31503 -10.31415 -10.31329 -10.31155
 Alpha  occ. eigenvalues --  -10.31152 -10.30440 -10.30419 -10.29564 -10.29082
 Alpha  occ. eigenvalues --  -10.29058 -10.29046 -10.28401 -10.28382 -10.28377
 Alpha  occ. eigenvalues --  -10.28076 -10.28057 -10.27922 -10.27806 -10.27704
 Alpha  occ. eigenvalues --  -10.27381 -10.27308 -10.27277 -10.26933 -10.26818
 Alpha  occ. eigenvalues --  -10.26801 -10.26791 -10.26659 -10.26453 -10.26223
 Alpha  occ. eigenvalues --  -10.26138 -10.26072 -10.25931 -10.25804 -10.25626
 Alpha  occ. eigenvalues --  -10.25565 -10.25495 -10.25314 -10.25278 -10.25164
 Alpha  occ. eigenvalues --  -10.24826 -10.24779 -10.24731 -10.24638 -10.24620
 Alpha  occ. eigenvalues --  -10.24539 -10.24435 -10.24427 -10.24123 -10.24056
 Alpha  occ. eigenvalues --  -10.23696  -3.18125  -1.92983  -1.92608  -1.92409
 Alpha  occ. eigenvalues --   -1.15872  -1.14980  -1.09355  -1.08872  -1.06783
 Alpha  occ. eigenvalues --   -1.05974  -1.04952  -1.04436  -1.03665  -1.02242
 Alpha  occ. eigenvalues --   -0.92856  -0.90264  -0.90144  -0.89494  -0.89286
 Alpha  occ. eigenvalues --   -0.88873  -0.88129  -0.87677  -0.87191  -0.86734
 Alpha  occ. eigenvalues --   -0.86416  -0.85442  -0.84856  -0.83984  -0.83744
 Alpha  occ. eigenvalues --   -0.82916  -0.82376  -0.81386  -0.80747  -0.80486
 Alpha  occ. eigenvalues --   -0.79727  -0.78050  -0.77805  -0.77573  -0.76860
 Alpha  occ. eigenvalues --   -0.75918  -0.75618  -0.74964  -0.74867  -0.74291
 Alpha  occ. eigenvalues --   -0.73383  -0.72597  -0.72095  -0.70541  -0.69469
 Alpha  occ. eigenvalues --   -0.68855  -0.68510  -0.67651  -0.66377  -0.66271
 Alpha  occ. eigenvalues --   -0.65547  -0.64995  -0.64719  -0.64457  -0.64090
 Alpha  occ. eigenvalues --   -0.63004  -0.62870  -0.62754  -0.61700  -0.60452
 Alpha  occ. eigenvalues --   -0.59761  -0.59223  -0.58587  -0.58380  -0.57740
 Alpha  occ. eigenvalues --   -0.57317  -0.57176  -0.56729  -0.56141  -0.55788
 Alpha  occ. eigenvalues --   -0.55304  -0.54898  -0.54702  -0.54360  -0.53687
 Alpha  occ. eigenvalues --   -0.53289  -0.53251  -0.53129  -0.53077  -0.52810
 Alpha  occ. eigenvalues --   -0.52592  -0.52425  -0.52066  -0.51739  -0.51699
 Alpha  occ. eigenvalues --   -0.51465  -0.51245  -0.51168  -0.50889  -0.50784
 Alpha  occ. eigenvalues --   -0.50315  -0.50234  -0.50113  -0.49563  -0.49316
 Alpha  occ. eigenvalues --   -0.49257  -0.49162  -0.49038  -0.48833  -0.48721
 Alpha  occ. eigenvalues --   -0.48536  -0.48401  -0.48297  -0.47942  -0.47739
 Alpha  occ. eigenvalues --   -0.47363  -0.47170  -0.47011  -0.46840  -0.46652
 Alpha  occ. eigenvalues --   -0.46461  -0.46358  -0.46107  -0.45769  -0.45672
 Alpha  occ. eigenvalues --   -0.45618  -0.45552  -0.45453  -0.45316  -0.45087
 Alpha  occ. eigenvalues --   -0.44831  -0.44659  -0.44384  -0.44359  -0.44034
 Alpha  occ. eigenvalues --   -0.43816  -0.43683  -0.43600  -0.43419  -0.43350
 Alpha  occ. eigenvalues --   -0.42989  -0.42759  -0.42503  -0.42305  -0.42025
 Alpha  occ. eigenvalues --   -0.41816  -0.41675  -0.41583  -0.41380  -0.41267
 Alpha  occ. eigenvalues --   -0.41117  -0.40962  -0.40550  -0.40414  -0.40226
 Alpha  occ. eigenvalues --   -0.40115  -0.39669  -0.39361  -0.39094  -0.38831
 Alpha  occ. eigenvalues --   -0.38455  -0.38268  -0.38126  -0.37689  -0.37129
 Alpha  occ. eigenvalues --   -0.37107  -0.36962  -0.36592  -0.36356  -0.36185
 Alpha  occ. eigenvalues --   -0.36167  -0.35425  -0.35196  -0.34524  -0.34379
 Alpha  occ. eigenvalues --   -0.34173  -0.34041  -0.32901  -0.31684  -0.31010
 Alpha  occ. eigenvalues --   -0.30792  -0.30474  -0.29935  -0.29620  -0.24539
 Alpha  occ. eigenvalues --   -0.21377
 Alpha virt. eigenvalues --   -0.09005  -0.02076   0.00152   0.00911   0.02069
 Alpha virt. eigenvalues --    0.03333   0.05243   0.05651   0.05854   0.06880
 Alpha virt. eigenvalues --    0.07690   0.08119   0.08839   0.08885   0.09478

 Mulliken charges:
               1
     1  Mg   0.833138
     2  C    0.062349
     3  C   -0.083527
     4  C   -0.087712
     5  C   -0.061496
     6  N   -0.237933
     7  C   -0.078054
     8  C    0.002948
     9  C   -0.079402
    10  C    0.019285
    11  C    0.090028
    12  C    0.004530
    13  C    0.055064
    14  C    0.162880
    15  O   -0.217721
    16  O   -0.369147
    17  N   -0.386970
    18  C    0.147438
    19  C   -0.129413
    20  C   -0.011069
    21  C    0.158237
    22  C    0.131886
    23  C   -0.032046
    24  O   -0.218454
    25  C    0.037216
    26  N   -0.256451
    27  C    0.047994
    28  C   -0.040105
    29  C   -0.003396
    30  C    0.017309
    31  C    0.077906
    32  C    0.039257
    33  C   -0.006763
    34  N   -0.386854
    35  C    0.102073
    36  C   -0.173663
    37  C    0.021037
    38  C    0.088500
    39  C    0.110834
    40  C    0.061679
    41  O   -0.177435
    42  C   -0.012226
    43  C    0.168199
    44  O   -0.229137
    45  O   -0.337278
    46  C    0.187938
    47  C    0.309459
    48  C   -0.101602
    49  C   -0.207085
    50  C    0.062152
    51  C    0.054232
    52  C    0.009021
    53  C    0.102464
    54  C   -0.173314
    55  C    0.059196
    56  C    0.043209
    57  C    0.005067
    58  C    0.080118
    59  C   -0.159348
    60  C    0.056385
    61  C    0.062470
    62  C    0.030087
    63  C    0.034432
    64  C   -0.132259
    65  C    0.041854
    66  C    0.038194
    67  H   -0.030424
    68  H   -0.038262
    69  H   -0.020090
    70  H    0.006253
    71  H    0.021018
    72  H    0.025757
    73  H    0.016494
    74  H    0.024552
    75  H    0.018850
    76  H    0.021755
    77  H    0.049705
    78  H    0.060174
    79  H    0.037356
    80  H   -0.009161
    81  H    0.037165
    82  H    0.049938
    83  H    0.039107
    84  H    0.026590
    85  H    0.013543
    86  H    0.008866
    87  H    0.014021
    88  H    0.015545
    89  H    0.008411
    90  H    0.022804
    91  H    0.007499
    92  H    0.017355
    93  H    0.011273
    94  H    0.013414
    95  H    0.019397
    96  H    0.018487
    97  H    0.032493
    98  H    0.029377
    99  H    0.051128
   100  H    0.040622
   101  H    0.026177
   102  H    0.029910
   103  H    0.011248
   104  H   -0.013159
   105  H    0.039878
   106  H    0.020743
   107  H    0.025477
   108  H    0.013583
   109  H   -0.000295
   110  H    0.005216
   111  H    0.000868
   112  H    0.000832
   113  H   -0.003188
   114  H    0.006729
   115  H   -0.000685
   116  H    0.004739
   117  H   -0.000148
   118  H   -0.001125
   119  H   -0.007184
   120  H    0.001543
   121  H    0.000943
   122  H   -0.012220
   123  H   -0.015400
   124  H   -0.012166
   125  H    0.009846
   126  H    0.020347
   127  H   -0.001215
   128  H   -0.024531
   129  H   -0.028064
   130  H   -0.009250
   131  H   -0.003617
   132  H   -0.009110
   133  H    0.000552
   134  H   -0.003477
   135  H    0.018123
   136  H   -0.000671
   137  H    0.000602
   138  H    0.003057
   139  H    0.013582
   140  H    0.004292
 Sum of Mulliken charges =  -0.00000

 Dipole moment (field-independent basis, Debye):
    X=              0.7224    Y=              6.6760    Z=              0.0971  Tot=              6.7156
 Quadrupole moment (field-independent basis, Debye-Ang):
   XX=           -347.6771   YY=           -442.8939   ZZ=           -408.0803
   XY=             34.2010   XZ=             -9.0273   YZ=             39.3593

 Normal termination of Gaussian 16 at Wed Apr 27 15:39:43 2022.
