 Gaussian 16, Revision A.03,
 Gaussian 16:  ES64L-G16RevA.03 25-Dec-2016

 ---------------------------------
 #p PBE1PBE/Def2SVP td=(nstates=5)
 ---------------------------------

 ------------------------------------------------------
 step_1251_chromophore_14 TDDFT with PBE1PBE functional
 ------------------------------------------------------
 Symbolic Z-matrix:
 Charge =  0 Multiplicity = 1

                         Standard orientation:
 ---------------------------------------------------------------------
 Center     Atomic      Atomic             Coordinates (Angstroms)
 Number     Number       Type             X           Y           Z
 ---------------------------------------------------------------------
      1         12           0        5.341060    1.130247   -0.136780
      2          6           0        5.339789   -2.379095    0.232513
      3          6           0        4.412771    0.579993   -3.406935
      4          6           0        4.658641    4.328634   -0.360365
      5          6           0        5.692419    1.460114    3.446181
      6          7           0        4.894393   -0.702677   -1.419703
      7          6           0        5.004498   -2.018138   -1.020118
      8          6           0        4.601533   -2.979862   -2.134194
      9          6           0        4.447285   -1.973280   -3.373231
     10          6           0        4.691937   -0.615768   -2.724408
     11          6           0        5.399941   -2.259535   -4.552391
     12          6           0        3.267730   -3.792708   -1.930892
     13          6           0        2.110391   -3.128660   -1.056250
     14          6           0        0.726417   -3.506689   -1.608516
     15          8           0        0.410017   -4.501539   -2.216076
     16          8           0       -0.220500   -2.601433   -1.119101
     17          7           0        4.532894    2.266055   -1.656561
     18          6           0        4.224970    1.868369   -2.900194
     19          6           0        3.765455    2.996269   -3.672584
     20          6           0        3.678593    4.091069   -2.759604
     21          6           0        4.255705    3.616223   -1.499109
     22          6           0        3.264744    2.952380   -5.104874
     23          6           0        3.126012    5.416084   -3.095098
     24          8           0        2.797930    5.710958   -4.248976
     25          6           0        2.771140    6.396849   -2.000913
     26          7           0        5.008663    2.673276    1.393431
     27          6           0        5.066548    3.941197    0.914419
     28          6           0        5.515331    4.940758    1.938929
     29          6           0        5.677435    4.152880    3.240424
     30          6           0        5.443743    2.661103    2.674924
     31          6           0        6.778059    5.652607    1.549275
     32          6           0        4.658601    4.593080    4.293685
     33          6           0        5.067307    4.531442    5.804461
     34          7           0        5.472827   -0.089843    1.464687
     35          6           0        5.666055    0.137618    2.849490
     36          6           0        5.737586   -1.098194    3.569668
     37          6           0        5.554691   -2.098163    2.610951
     38          6           0        5.451680   -1.453050    1.363558
     39          6           0        5.940012   -1.321076    5.038852
     40          6           0        5.584562   -3.538303    2.406050
     41          8           0        5.593978   -4.432799    3.260269
     42          6           0        5.452338   -3.740305    0.860064
     43          6           0        6.645313   -4.539028    0.491861
     44          8           0        6.751855   -5.765504    0.336759
     45          8           0        7.713782   -3.717264    0.469103
     46          6           0        9.042911   -4.328214    0.068679
     47          6           0       -1.638024   -3.066879   -1.197638
     48          6           0       -2.597025   -2.187148   -0.530705
     49          6           0       -3.524209   -1.277201   -1.090751
     50          6           0       -3.340006   -0.743102   -2.526967
     51          6           0       -4.686912   -0.562505   -0.190534
     52          6           0       -6.112994   -0.974782   -0.552898
     53          6           0       -6.923975   -1.690526    0.502882
     54          6           0       -8.313091   -1.008811    0.652364
     55          6           0       -8.414661   -0.205758    1.943113
     56          6           0       -9.474774   -2.076991    0.457268
     57          6           0      -10.757949   -1.234948    0.029148
     58          6           0      -12.089650   -1.786164    0.386521
     59          6           0      -12.879675   -0.940785    1.419051
     60          6           0      -12.459707   -1.232235    2.898225
     61          6           0      -14.425583   -0.982177    1.251293
     62          6           0      -15.168586    0.288988    1.291720
     63          6           0      -15.292363    0.898290   -0.151868
     64          6           0      -15.884070    2.342407   -0.157117
     65          6           0      -16.810859    2.656664   -1.397666
     66          6           0      -14.798752    3.421093   -0.077826
     67          1           0        4.010436    0.416193   -4.407988
     68          1           0        4.716305    5.390141   -0.609103
     69          1           0        5.870575    1.493165    4.522927
     70          1           0        5.385657   -3.708201   -2.342607
     71          1           0        3.397229   -1.875018   -3.648511
     72          1           0        4.873788   -2.031422   -5.480147
     73          1           0        5.590282   -3.332754   -4.534065
     74          1           0        6.352694   -1.744287   -4.433930
     75          1           0        3.569800   -4.754592   -1.519040
     76          1           0        2.874674   -4.105776   -2.898872
     77          1           0        2.265739   -2.056304   -1.181804
     78          1           0        2.182284   -3.527915   -0.044047
     79          1           0        2.296789    3.434875   -5.245025
     80          1           0        3.052181    1.917903   -5.372415
     81          1           0        3.964614    3.338452   -5.846704
     82          1           0        3.633087    6.897251   -1.560693
     83          1           0        2.189711    5.768470   -1.326201
     84          1           0        2.106070    7.144137   -2.435054
     85          1           0        4.725330    5.689047    2.006817
     86          1           0        6.701309    4.111053    3.613819
     87          1           0        7.643842    5.281554    2.096068
     88          1           0        6.639827    6.730612    1.638285
     89          1           0        7.019196    5.518315    0.494281
     90          1           0        3.673551    4.161667    4.115194
     91          1           0        4.592658    5.678442    4.228288
     92          1           0        6.052202    4.071162    5.883681
     93          1           0        4.340779    3.985007    6.406427
     94          1           0        5.022260    5.489867    6.321398
     95          1           0        5.051945   -1.027549    5.597482
     96          1           0        6.768211   -0.804058    5.524016
     97          1           0        6.038285   -2.394258    5.204366
     98          1           0        4.640134   -4.411744    0.581306
     99          1           0        9.345852   -5.229335    0.603434
    100          1           0        9.877104   -3.626951    0.089817
    101          1           0        8.925805   -4.650883   -0.965687
    102          1           0       -1.636783   -4.069416   -0.768518
    103          1           0       -1.933066   -2.937769   -2.239189
    104          1           0       -2.911913   -2.483552    0.470258
    105          1           0       -2.388525   -0.912085   -3.031471
    106          1           0       -3.558871    0.324059   -2.519883
    107          1           0       -4.148041   -1.266591   -3.037162
    108          1           0       -4.480762    0.506210   -0.244423
    109          1           0       -4.470365   -0.778605    0.856054
    110          1           0       -6.120046   -1.581094   -1.458855
    111          1           0       -6.585822   -0.031587   -0.826850
    112          1           0       -6.420003   -1.684282    1.469248
    113          1           0       -7.042513   -2.689780    0.083170
    114          1           0       -8.501941   -0.320697   -0.172201
    115          1           0       -9.306844   -0.350159    2.552336
    116          1           0       -8.386518    0.864232    1.735198
    117          1           0       -7.616581   -0.381743    2.663720
    118          1           0       -9.618613   -2.678388    1.355491
    119          1           0       -9.181216   -2.766952   -0.334170
    120          1           0      -10.690267   -1.164066   -1.056885
    121          1           0      -10.656473   -0.247149    0.477507
    122          1           0      -11.957112   -2.788517    0.794636
    123          1           0      -12.744656   -1.930765   -0.471870
    124          1           0      -12.588034    0.082583    1.179325
    125          1           0      -13.294944   -1.288806    3.595856
    126          1           0      -11.687330   -0.530284    3.214718
    127          1           0      -12.031422   -2.235013    2.895140
    128          1           0      -14.873739   -1.643107    1.993235
    129          1           0      -14.617925   -1.554526    0.343545
    130          1           0      -14.582245    0.963006    1.916369
    131          1           0      -16.106578    0.091892    1.810667
    132          1           0      -16.036771    0.296400   -0.673321
    133          1           0      -14.337681    0.810252   -0.669921
    134          1           0      -16.509093    2.416289    0.733057
    135          1           0      -16.767836    1.906826   -2.188595
    136          1           0      -16.636267    3.665098   -1.771405
    137          1           0      -17.828169    2.741510   -1.015927
    138          1           0      -15.339033    4.254940    0.369733
    139          1           0      -14.431188    3.756414   -1.047216
    140          1           0      -13.971349    3.164773    0.583895
 ---------------------------------------------------------------------

 SCF Done:  E(RPBE1PBE) =  -3005.37890205     A.U. after   15 cycles

 Excitation energies and oscillator strengths:

 Excited State   1:      Singlet-A      1.8400 eV  673.84 nm  f=0.3338  <S**2>=0.000
     245 -> 248       -0.15979
     246 -> 247        0.69427
     246 <- 247       -0.11184
 This state for optimization and/or second-order correction.
 Total Energy, E(TD-HF/TD-DFT) =  -3005.31128442
 Copying the excited state density for this state as the 1-particle RhoCI density.

 Excited State   2:      Singlet-A      2.2560 eV  549.58 nm  f=0.1108  <S**2>=0.000
     245 -> 247        0.64789
     246 -> 248        0.26430

 Excited State   3:      Singlet-A      2.8798 eV  430.53 nm  f=0.0003  <S**2>=0.000
     243 -> 247        0.66899
     243 -> 248       -0.12073
     243 -> 249       -0.11155
     243 -> 250       -0.10096

 Excited State   4:      Singlet-A      3.0518 eV  406.27 nm  f=0.0013  <S**2>=0.000
     241 -> 247        0.23996
     241 -> 249        0.11277
     242 -> 247        0.62786

 Excited State   5:      Singlet-A      3.1193 eV  397.47 nm  f=0.0089  <S**2>=0.000
     240 -> 247        0.26409
     241 -> 247        0.57150
     242 -> 247       -0.22812
     246 -> 248       -0.15559

 The electronic state is 1-A.
 Alpha  occ. eigenvalues --  -46.92945 -19.25855 -19.23778 -19.20123 -19.19428
 Alpha  occ. eigenvalues --  -19.19305 -19.18560 -14.41883 -14.41611 -14.39596
 Alpha  occ. eigenvalues --  -14.39530 -10.36043 -10.35953 -10.32558 -10.31683
 Alpha  occ. eigenvalues --  -10.29533 -10.29345 -10.29016 -10.28767 -10.28588
 Alpha  occ. eigenvalues --  -10.28496 -10.28290 -10.27700 -10.27691 -10.27064
 Alpha  occ. eigenvalues --  -10.26791 -10.26328 -10.26278 -10.26219 -10.26138
 Alpha  occ. eigenvalues --  -10.25795 -10.25684 -10.25670 -10.25558 -10.25442
 Alpha  occ. eigenvalues --  -10.25309 -10.24853 -10.24777 -10.24617 -10.24498
 Alpha  occ. eigenvalues --  -10.24346 -10.24337 -10.24050 -10.23877 -10.23604
 Alpha  occ. eigenvalues --  -10.23541 -10.23415 -10.23281 -10.23276 -10.23272
 Alpha  occ. eigenvalues --  -10.23142 -10.23133 -10.23028 -10.22806 -10.22754
 Alpha  occ. eigenvalues --  -10.22691 -10.22396 -10.22316 -10.22270 -10.22047
 Alpha  occ. eigenvalues --  -10.22013 -10.21829 -10.21821 -10.21598 -10.21486
 Alpha  occ. eigenvalues --  -10.21244  -3.15091  -1.87887  -1.87491  -1.87299
 Alpha  occ. eigenvalues --   -1.10697  -1.09777  -1.03851  -1.03831  -1.01671
 Alpha  occ. eigenvalues --   -1.00871  -0.99482  -0.99023  -0.98165  -0.97127
 Alpha  occ. eigenvalues --   -0.87321  -0.84454  -0.84349  -0.83586  -0.83493
 Alpha  occ. eigenvalues --   -0.83078  -0.82244  -0.82008  -0.81299  -0.80931
 Alpha  occ. eigenvalues --   -0.80776  -0.79639  -0.79024  -0.78261  -0.78061
 Alpha  occ. eigenvalues --   -0.77088  -0.76501  -0.75604  -0.75072  -0.74758
 Alpha  occ. eigenvalues --   -0.73881  -0.72368  -0.72069  -0.71759  -0.71174
 Alpha  occ. eigenvalues --   -0.70054  -0.69926  -0.69036  -0.69009  -0.68442
 Alpha  occ. eigenvalues --   -0.67861  -0.66943  -0.66477  -0.64798  -0.63870
 Alpha  occ. eigenvalues --   -0.63191  -0.62822  -0.62092  -0.60798  -0.60568
 Alpha  occ. eigenvalues --   -0.59962  -0.59561  -0.59306  -0.58644  -0.58265
 Alpha  occ. eigenvalues --   -0.57504  -0.57170  -0.56903  -0.56287  -0.54905
 Alpha  occ. eigenvalues --   -0.54419  -0.53804  -0.53035  -0.52944  -0.52279
 Alpha  occ. eigenvalues --   -0.51678  -0.51531  -0.51267  -0.50601  -0.50358
 Alpha  occ. eigenvalues --   -0.49888  -0.49427  -0.49181  -0.48701  -0.48294
 Alpha  occ. eigenvalues --   -0.47975  -0.47809  -0.47705  -0.47440  -0.47248
 Alpha  occ. eigenvalues --   -0.47036  -0.46843  -0.46596  -0.46253  -0.46206
 Alpha  occ. eigenvalues --   -0.45994  -0.45849  -0.45679  -0.45495  -0.45325
 Alpha  occ. eigenvalues --   -0.44940  -0.44756  -0.44522  -0.44192  -0.43931
 Alpha  occ. eigenvalues --   -0.43901  -0.43738  -0.43630  -0.43522  -0.43310
 Alpha  occ. eigenvalues --   -0.43102  -0.42994  -0.42957  -0.42566  -0.42419
 Alpha  occ. eigenvalues --   -0.41931  -0.41841  -0.41584  -0.41430  -0.41241
 Alpha  occ. eigenvalues --   -0.41104  -0.40980  -0.40830  -0.40499  -0.40456
 Alpha  occ. eigenvalues --   -0.40342  -0.40253  -0.40132  -0.39904  -0.39867
 Alpha  occ. eigenvalues --   -0.39644  -0.39527  -0.39191  -0.39014  -0.38899
 Alpha  occ. eigenvalues --   -0.38560  -0.38380  -0.38337  -0.38143  -0.38051
 Alpha  occ. eigenvalues --   -0.37811  -0.37582  -0.37369  -0.37144  -0.36694
 Alpha  occ. eigenvalues --   -0.36552  -0.36502  -0.36368  -0.36239  -0.36161
 Alpha  occ. eigenvalues --   -0.35923  -0.35837  -0.35460  -0.35195  -0.35159
 Alpha  occ. eigenvalues --   -0.34880  -0.34479  -0.34233  -0.33900  -0.33651
 Alpha  occ. eigenvalues --   -0.33432  -0.33273  -0.32867  -0.32453  -0.32172
 Alpha  occ. eigenvalues --   -0.31905  -0.31810  -0.31419  -0.31348  -0.31221
 Alpha  occ. eigenvalues --   -0.30996  -0.30359  -0.30119  -0.29730  -0.29350
 Alpha  occ. eigenvalues --   -0.29273  -0.28897  -0.28346  -0.27231  -0.26120
 Alpha  occ. eigenvalues --   -0.25967  -0.25719  -0.25268  -0.24992  -0.21403
 Alpha  occ. eigenvalues --   -0.18990
 Alpha virt. eigenvalues --   -0.11482  -0.05601  -0.03955  -0.02334  -0.01928
 Alpha virt. eigenvalues --   -0.01089   0.00862   0.01064   0.01244   0.02730
 Alpha virt. eigenvalues --    0.03951   0.04402   0.05283   0.05646   0.06054

 Mulliken charges:
               1
     1  Mg   0.975191
     2  C    0.047891
     3  C   -0.065966
     4  C   -0.079750
     5  C   -0.050670
     6  N   -0.342359
     7  C   -0.008253
     8  C   -0.057013
     9  C   -0.163414
    10  C    0.064535
    11  C    0.031430
    12  C   -0.040432
    13  C   -0.030716
    14  C    0.230477
    15  O   -0.249752
    16  O   -0.397674
    17  N   -0.502675
    18  C    0.164677
    19  C   -0.149741
    20  C   -0.068245
    21  C    0.185615
    22  C    0.073273
    23  C    0.023292
    24  O   -0.254235
    25  C   -0.040185
    26  N   -0.353529
    27  C    0.073989
    28  C   -0.120329
    29  C   -0.079968
    30  C    0.058979
    31  C    0.025183
    32  C   -0.021658
    33  C   -0.075329
    34  N   -0.511840
    35  C    0.121184
    36  C   -0.190889
    37  C   -0.023427
    38  C    0.143368
    39  C    0.056363
    40  C    0.152087
    41  O   -0.221213
    42  C   -0.128107
    43  C    0.264651
    44  O   -0.266726
    45  O   -0.364714
    46  C    0.131150
    47  C    0.258766
    48  C   -0.108955
    49  C   -0.245110
    50  C   -0.002183
    51  C   -0.004998
    52  C   -0.052724
    53  C    0.045478
    54  C   -0.263777
    55  C    0.000578
    56  C   -0.007412
    57  C   -0.061810
    58  C    0.028180
    59  C   -0.246699
    60  C   -0.001872
    61  C    0.011085
    62  C   -0.037637
    63  C   -0.022449
    64  C   -0.222556
    65  C   -0.019180
    66  C   -0.025516
    67  H    0.001078
    68  H   -0.003400
    69  H    0.012300
    70  H    0.043974
    71  H    0.057881
    72  H    0.052646
    73  H    0.043955
    74  H    0.051768
    75  H    0.050256
    76  H    0.053963
    77  H    0.085224
    78  H    0.091981
    79  H    0.063211
    80  H    0.017435
    81  H    0.063335
    82  H    0.073631
    83  H    0.067044
    84  H    0.053989
    85  H    0.049485
    86  H    0.044433
    87  H    0.040461
    88  H    0.042727
    89  H    0.036957
    90  H    0.054108
    91  H    0.042885
    92  H    0.043626
    93  H    0.039067
    94  H    0.040691
    95  H    0.049051
    96  H    0.046476
    97  H    0.061216
    98  H    0.068926
    99  H    0.072283
   100  H    0.062493
   101  H    0.048559
   102  H    0.056189
   103  H    0.039929
   104  H    0.017595
   105  H    0.065787
   106  H    0.048643
   107  H    0.054132
   108  H    0.045197
   109  H    0.030661
   110  H    0.037989
   111  H    0.033206
   112  H    0.031970
   113  H    0.030013
   114  H    0.044790
   115  H    0.030195
   116  H    0.032334
   117  H    0.026678
   118  H    0.030776
   119  H    0.026075
   120  H    0.035140
   121  H    0.033684
   122  H    0.020921
   123  H    0.016829
   124  H    0.027037
   125  H    0.036714
   126  H    0.047745
   127  H    0.025786
   128  H    0.008935
   129  H    0.004745
   130  H    0.025212
   131  H    0.028231
   132  H    0.025252
   133  H    0.033031
   134  H    0.034033
   135  H    0.044432
   136  H    0.026714
   137  H    0.028648
   138  H    0.032077
   139  H    0.041071
   140  H    0.032154
 Sum of Mulliken charges =  -0.00000

 Dipole moment (field-independent basis, Debye):
    X=              0.8079    Y=              6.3601    Z=              0.6342  Tot=              6.4425
 Quadrupole moment (field-independent basis, Debye-Ang):
   XX=           -342.9859   YY=           -440.2639   ZZ=           -403.6727
   XY=             33.0175   XZ=             -6.1973   YZ=             40.8520

 Normal termination of Gaussian 16 at Wed Apr 27 15:57:07 2022.
