 Gaussian 16, Revision A.03,
 Gaussian 16:  ES64L-G16RevA.03 25-Dec-2016

 --------------------------------
 #p wB97XD/Def2SVP td=(nstates=5)
 --------------------------------

 -----------------------------------------------------
 step_1251_chromophore_14 TDDFT with wB97XD functional
 -----------------------------------------------------
 Symbolic Z-matrix:
 Charge =  0 Multiplicity = 1

                         Standard orientation:
 ---------------------------------------------------------------------
 Center     Atomic      Atomic             Coordinates (Angstroms)
 Number     Number       Type             X           Y           Z
 ---------------------------------------------------------------------
      1         12           0        5.341060    1.130247   -0.136780
      2          6           0        5.339789   -2.379095    0.232513
      3          6           0        4.412771    0.579993   -3.406935
      4          6           0        4.658641    4.328634   -0.360365
      5          6           0        5.692419    1.460114    3.446181
      6          7           0        4.894393   -0.702677   -1.419703
      7          6           0        5.004498   -2.018138   -1.020118
      8          6           0        4.601533   -2.979862   -2.134194
      9          6           0        4.447285   -1.973280   -3.373231
     10          6           0        4.691937   -0.615768   -2.724408
     11          6           0        5.399941   -2.259535   -4.552391
     12          6           0        3.267730   -3.792708   -1.930892
     13          6           0        2.110391   -3.128660   -1.056250
     14          6           0        0.726417   -3.506689   -1.608516
     15          8           0        0.410017   -4.501539   -2.216076
     16          8           0       -0.220500   -2.601433   -1.119101
     17          7           0        4.532894    2.266055   -1.656561
     18          6           0        4.224970    1.868369   -2.900194
     19          6           0        3.765455    2.996269   -3.672584
     20          6           0        3.678593    4.091069   -2.759604
     21          6           0        4.255705    3.616223   -1.499109
     22          6           0        3.264744    2.952380   -5.104874
     23          6           0        3.126012    5.416084   -3.095098
     24          8           0        2.797930    5.710958   -4.248976
     25          6           0        2.771140    6.396849   -2.000913
     26          7           0        5.008663    2.673276    1.393431
     27          6           0        5.066548    3.941197    0.914419
     28          6           0        5.515331    4.940758    1.938929
     29          6           0        5.677435    4.152880    3.240424
     30          6           0        5.443743    2.661103    2.674924
     31          6           0        6.778059    5.652607    1.549275
     32          6           0        4.658601    4.593080    4.293685
     33          6           0        5.067307    4.531442    5.804461
     34          7           0        5.472827   -0.089843    1.464687
     35          6           0        5.666055    0.137618    2.849490
     36          6           0        5.737586   -1.098194    3.569668
     37          6           0        5.554691   -2.098163    2.610951
     38          6           0        5.451680   -1.453050    1.363558
     39          6           0        5.940012   -1.321076    5.038852
     40          6           0        5.584562   -3.538303    2.406050
     41          8           0        5.593978   -4.432799    3.260269
     42          6           0        5.452338   -3.740305    0.860064
     43          6           0        6.645313   -4.539028    0.491861
     44          8           0        6.751855   -5.765504    0.336759
     45          8           0        7.713782   -3.717264    0.469103
     46          6           0        9.042911   -4.328214    0.068679
     47          6           0       -1.638024   -3.066879   -1.197638
     48          6           0       -2.597025   -2.187148   -0.530705
     49          6           0       -3.524209   -1.277201   -1.090751
     50          6           0       -3.340006   -0.743102   -2.526967
     51          6           0       -4.686912   -0.562505   -0.190534
     52          6           0       -6.112994   -0.974782   -0.552898
     53          6           0       -6.923975   -1.690526    0.502882
     54          6           0       -8.313091   -1.008811    0.652364
     55          6           0       -8.414661   -0.205758    1.943113
     56          6           0       -9.474774   -2.076991    0.457268
     57          6           0      -10.757949   -1.234948    0.029148
     58          6           0      -12.089650   -1.786164    0.386521
     59          6           0      -12.879675   -0.940785    1.419051
     60          6           0      -12.459707   -1.232235    2.898225
     61          6           0      -14.425583   -0.982177    1.251293
     62          6           0      -15.168586    0.288988    1.291720
     63          6           0      -15.292363    0.898290   -0.151868
     64          6           0      -15.884070    2.342407   -0.157117
     65          6           0      -16.810859    2.656664   -1.397666
     66          6           0      -14.798752    3.421093   -0.077826
     67          1           0        4.010436    0.416193   -4.407988
     68          1           0        4.716305    5.390141   -0.609103
     69          1           0        5.870575    1.493165    4.522927
     70          1           0        5.385657   -3.708201   -2.342607
     71          1           0        3.397229   -1.875018   -3.648511
     72          1           0        4.873788   -2.031422   -5.480147
     73          1           0        5.590282   -3.332754   -4.534065
     74          1           0        6.352694   -1.744287   -4.433930
     75          1           0        3.569800   -4.754592   -1.519040
     76          1           0        2.874674   -4.105776   -2.898872
     77          1           0        2.265739   -2.056304   -1.181804
     78          1           0        2.182284   -3.527915   -0.044047
     79          1           0        2.296789    3.434875   -5.245025
     80          1           0        3.052181    1.917903   -5.372415
     81          1           0        3.964614    3.338452   -5.846704
     82          1           0        3.633087    6.897251   -1.560693
     83          1           0        2.189711    5.768470   -1.326201
     84          1           0        2.106070    7.144137   -2.435054
     85          1           0        4.725330    5.689047    2.006817
     86          1           0        6.701309    4.111053    3.613819
     87          1           0        7.643842    5.281554    2.096068
     88          1           0        6.639827    6.730612    1.638285
     89          1           0        7.019196    5.518315    0.494281
     90          1           0        3.673551    4.161667    4.115194
     91          1           0        4.592658    5.678442    4.228288
     92          1           0        6.052202    4.071162    5.883681
     93          1           0        4.340779    3.985007    6.406427
     94          1           0        5.022260    5.489867    6.321398
     95          1           0        5.051945   -1.027549    5.597482
     96          1           0        6.768211   -0.804058    5.524016
     97          1           0        6.038285   -2.394258    5.204366
     98          1           0        4.640134   -4.411744    0.581306
     99          1           0        9.345852   -5.229335    0.603434
    100          1           0        9.877104   -3.626951    0.089817
    101          1           0        8.925805   -4.650883   -0.965687
    102          1           0       -1.636783   -4.069416   -0.768518
    103          1           0       -1.933066   -2.937769   -2.239189
    104          1           0       -2.911913   -2.483552    0.470258
    105          1           0       -2.388525   -0.912085   -3.031471
    106          1           0       -3.558871    0.324059   -2.519883
    107          1           0       -4.148041   -1.266591   -3.037162
    108          1           0       -4.480762    0.506210   -0.244423
    109          1           0       -4.470365   -0.778605    0.856054
    110          1           0       -6.120046   -1.581094   -1.458855
    111          1           0       -6.585822   -0.031587   -0.826850
    112          1           0       -6.420003   -1.684282    1.469248
    113          1           0       -7.042513   -2.689780    0.083170
    114          1           0       -8.501941   -0.320697   -0.172201
    115          1           0       -9.306844   -0.350159    2.552336
    116          1           0       -8.386518    0.864232    1.735198
    117          1           0       -7.616581   -0.381743    2.663720
    118          1           0       -9.618613   -2.678388    1.355491
    119          1           0       -9.181216   -2.766952   -0.334170
    120          1           0      -10.690267   -1.164066   -1.056885
    121          1           0      -10.656473   -0.247149    0.477507
    122          1           0      -11.957112   -2.788517    0.794636
    123          1           0      -12.744656   -1.930765   -0.471870
    124          1           0      -12.588034    0.082583    1.179325
    125          1           0      -13.294944   -1.288806    3.595856
    126          1           0      -11.687330   -0.530284    3.214718
    127          1           0      -12.031422   -2.235013    2.895140
    128          1           0      -14.873739   -1.643107    1.993235
    129          1           0      -14.617925   -1.554526    0.343545
    130          1           0      -14.582245    0.963006    1.916369
    131          1           0      -16.106578    0.091892    1.810667
    132          1           0      -16.036771    0.296400   -0.673321
    133          1           0      -14.337681    0.810252   -0.669921
    134          1           0      -16.509093    2.416289    0.733057
    135          1           0      -16.767836    1.906826   -2.188595
    136          1           0      -16.636267    3.665098   -1.771405
    137          1           0      -17.828169    2.741510   -1.015927
    138          1           0      -15.339033    4.254940    0.369733
    139          1           0      -14.431188    3.756414   -1.047216
    140          1           0      -13.971349    3.164773    0.583895
 ---------------------------------------------------------------------

 SCF Done:  E(RwB97XD) =  -3007.88719353     A.U. after   19 cycles

 Excitation energies and oscillator strengths:

 Excited State   1:      Singlet-A      1.6626 eV  745.73 nm  f=0.3498  <S**2>=0.000
     245 -> 248       -0.16877
     246 -> 247        0.68581
     245 <- 248       -0.10814
 This state for optimization and/or second-order correction.
 Total Energy, E(TD-HF/TD-DFT) =  -3007.82609493
 Copying the excited state density for this state as the 1-particle RhoCI density.

 Excited State   2:      Singlet-A      2.2094 eV  561.17 nm  f=0.1088  <S**2>=0.000
     245 -> 247        0.63390
     246 -> 248        0.29074

 Excited State   3:      Singlet-A      3.3608 eV  368.91 nm  f=0.0247  <S**2>=0.000
     240 -> 251       -0.11758
     242 -> 247        0.54954
     242 -> 248       -0.12373
     242 -> 249       -0.17927
     242 -> 251       -0.10554
     243 -> 247       -0.22391
     246 -> 248       -0.19183

 Excited State   4:      Singlet-A      3.4501 eV  359.36 nm  f=0.1093  <S**2>=0.000
     240 -> 247        0.50153
     240 -> 248       -0.11689
     240 -> 249       -0.16744
     240 -> 251       -0.10527
     242 -> 248       -0.11726
     242 -> 249       -0.12557
     242 -> 251       -0.13779
     243 -> 247        0.15972
     245 -> 247       -0.10401
     246 -> 248        0.28559

 Excited State   5:      Singlet-A      3.5253 eV  351.70 nm  f=0.2603  <S**2>=0.000
     243 -> 247        0.49979
     245 -> 247        0.18406
     246 -> 248       -0.42467

 The electronic state is 1-A.
 Alpha  occ. eigenvalues --  -46.95905 -19.30336 -19.28321 -19.24774 -19.23936
 Alpha  occ. eigenvalues --  -19.23902 -19.23646 -14.46973 -14.46723 -14.44649
 Alpha  occ. eigenvalues --  -14.44318 -10.42764 -10.42708 -10.39151 -10.38773
 Alpha  occ. eigenvalues --  -10.36002 -10.35569 -10.35559 -10.35302 -10.35215
 Alpha  occ. eigenvalues --  -10.35033 -10.34532 -10.34423 -10.33515 -10.33295
 Alpha  occ. eigenvalues --  -10.33120 -10.33025 -10.32449 -10.32416 -10.32404
 Alpha  occ. eigenvalues --  -10.32135 -10.31958 -10.31939 -10.31886 -10.31736
 Alpha  occ. eigenvalues --  -10.31550 -10.31396 -10.31293 -10.30928 -10.30885
 Alpha  occ. eigenvalues --  -10.30732 -10.30731 -10.30540 -10.30326 -10.30063
 Alpha  occ. eigenvalues --  -10.30055 -10.30041 -10.29803 -10.29732 -10.29564
 Alpha  occ. eigenvalues --  -10.29500 -10.29315 -10.29298 -10.29184 -10.29111
 Alpha  occ. eigenvalues --  -10.28751 -10.28693 -10.28650 -10.28595 -10.28446
 Alpha  occ. eigenvalues --  -10.28428 -10.28268 -10.28237 -10.27967 -10.27924
 Alpha  occ. eigenvalues --  -10.27605  -3.21924  -1.95468  -1.95072  -1.94874
 Alpha  occ. eigenvalues --   -1.18013  -1.17133  -1.11613  -1.11047  -1.08996
 Alpha  occ. eigenvalues --   -1.08150  -1.06973  -1.06436  -1.05748  -1.04222
 Alpha  occ. eigenvalues --   -0.94786  -0.92021  -0.92016  -0.91266  -0.91247
 Alpha  occ. eigenvalues --   -0.90722  -0.89930  -0.89600  -0.88969  -0.88778
 Alpha  occ. eigenvalues --   -0.88314  -0.87306  -0.86689  -0.85840  -0.85635
 Alpha  occ. eigenvalues --   -0.84753  -0.84319  -0.83332  -0.82654  -0.82373
 Alpha  occ. eigenvalues --   -0.81547  -0.79962  -0.79741  -0.79489  -0.78754
 Alpha  occ. eigenvalues --   -0.77741  -0.77583  -0.76739  -0.76692  -0.76110
 Alpha  occ. eigenvalues --   -0.75328  -0.74545  -0.74069  -0.72471  -0.71375
 Alpha  occ. eigenvalues --   -0.70818  -0.70424  -0.69674  -0.68279  -0.68166
 Alpha  occ. eigenvalues --   -0.67492  -0.67009  -0.66707  -0.66295  -0.65918
 Alpha  occ. eigenvalues --   -0.64833  -0.64820  -0.64564  -0.63708  -0.62482
 Alpha  occ. eigenvalues --   -0.61752  -0.61212  -0.60483  -0.60349  -0.59733
 Alpha  occ. eigenvalues --   -0.59199  -0.59047  -0.58700  -0.58032  -0.57701
 Alpha  occ. eigenvalues --   -0.57298  -0.56804  -0.56582  -0.56197  -0.55614
 Alpha  occ. eigenvalues --   -0.55283  -0.55129  -0.55066  -0.55022  -0.54709
 Alpha  occ. eigenvalues --   -0.54466  -0.54277  -0.53994  -0.53682  -0.53583
 Alpha  occ. eigenvalues --   -0.53413  -0.53114  -0.53034  -0.52763  -0.52682
 Alpha  occ. eigenvalues --   -0.52292  -0.52124  -0.52015  -0.51465  -0.51281
 Alpha  occ. eigenvalues --   -0.51169  -0.51054  -0.50938  -0.50727  -0.50644
 Alpha  occ. eigenvalues --   -0.50456  -0.50290  -0.50160  -0.49835  -0.49669
 Alpha  occ. eigenvalues --   -0.49300  -0.49102  -0.48910  -0.48731  -0.48550
 Alpha  occ. eigenvalues --   -0.48364  -0.48250  -0.48050  -0.47713  -0.47606
 Alpha  occ. eigenvalues --   -0.47471  -0.47442  -0.47339  -0.47147  -0.47003
 Alpha  occ. eigenvalues --   -0.46725  -0.46580  -0.46293  -0.46202  -0.45941
 Alpha  occ. eigenvalues --   -0.45734  -0.45545  -0.45496  -0.45354  -0.45239
 Alpha  occ. eigenvalues --   -0.44918  -0.44727  -0.44429  -0.44186  -0.44094
 Alpha  occ. eigenvalues --   -0.43650  -0.43623  -0.43450  -0.43265  -0.43162
 Alpha  occ. eigenvalues --   -0.42980  -0.42895  -0.42477  -0.42273  -0.42104
 Alpha  occ. eigenvalues --   -0.41969  -0.41539  -0.41262  -0.40951  -0.40670
 Alpha  occ. eigenvalues --   -0.40378  -0.40186  -0.39936  -0.39525  -0.39295
 Alpha  occ. eigenvalues --   -0.38945  -0.38823  -0.38427  -0.38357  -0.38092
 Alpha  occ. eigenvalues --   -0.38003  -0.37409  -0.37021  -0.36493  -0.36268
 Alpha  occ. eigenvalues --   -0.36183  -0.35925  -0.35065  -0.33883  -0.33079
 Alpha  occ. eigenvalues --   -0.32728  -0.32617  -0.32034  -0.31663  -0.26466
 Alpha  occ. eigenvalues --   -0.23198
 Alpha virt. eigenvalues --   -0.07341  -0.00142   0.02331   0.04004   0.04171
 Alpha virt. eigenvalues --    0.05562   0.07689   0.07905   0.08157   0.09419
 Alpha virt. eigenvalues --    0.10628   0.10860   0.11928   0.12370   0.12808

 Mulliken charges:
               1
     1  Mg   0.966237
     2  C    0.048336
     3  C   -0.088871
     4  C   -0.098589
     5  C   -0.066201
     6  N   -0.305656
     7  C   -0.041517
     8  C   -0.035795
     9  C   -0.135044
    10  C    0.049044
    11  C    0.040747
    12  C   -0.033309
    13  C   -0.007912
    14  C    0.221396
    15  O   -0.248003
    16  O   -0.397757
    17  N   -0.471873
    18  C    0.164748
    19  C   -0.142369
    20  C   -0.058330
    21  C    0.184448
    22  C    0.084570
    23  C    0.016264
    24  O   -0.248120
    25  C   -0.026152
    26  N   -0.322103
    27  C    0.071298
    28  C   -0.095788
    29  C   -0.049899
    30  C    0.037186
    31  C    0.032362
    32  C   -0.010174
    33  C   -0.059566
    34  N   -0.476325
    35  C    0.112159
    36  C   -0.188553
    37  C   -0.021134
    38  C    0.122680
    39  C    0.065753
    40  C    0.132064
    41  O   -0.212943
    42  C   -0.081906
    43  C    0.238361
    44  O   -0.261393
    45  O   -0.365535
    46  C    0.147033
    47  C    0.278143
    48  C   -0.119756
    49  C   -0.233169
    50  C    0.009352
    51  C    0.013423
    52  C   -0.037132
    53  C    0.059981
    54  C   -0.225673
    55  C    0.010933
    56  C    0.003802
    57  C   -0.039592
    58  C    0.042242
    59  C   -0.213256
    60  C    0.009703
    61  C    0.025688
    62  C   -0.017761
    63  C   -0.008458
    64  C   -0.194348
    65  C   -0.007908
    66  C   -0.012304
    67  H   -0.006879
    68  H   -0.015862
    69  H    0.008162
    70  H    0.034174
    71  H    0.046854
    72  H    0.047902
    73  H    0.038554
    74  H    0.046848
    75  H    0.043472
    76  H    0.045667
    77  H    0.074084
    78  H    0.086558
    79  H    0.060629
    80  H    0.013179
    81  H    0.061851
    82  H    0.071931
    83  H    0.060793
    84  H    0.053396
    85  H    0.039895
    86  H    0.032998
    87  H    0.036178
    88  H    0.038378
    89  H    0.029280
    90  H    0.048220
    91  H    0.031737
    92  H    0.036953
    93  H    0.033170
    94  H    0.035157
    95  H    0.042309
    96  H    0.040463
    97  H    0.056286
    98  H    0.058792
    99  H    0.068682
   100  H    0.059517
   101  H    0.043421
   102  H    0.052876
   103  H    0.032139
   104  H    0.012848
   105  H    0.061781
   106  H    0.043233
   107  H    0.046874
   108  H    0.038383
   109  H    0.022362
   110  H    0.029382
   111  H    0.024290
   112  H    0.022095
   113  H    0.021981
   114  H    0.027929
   115  H    0.019124
   116  H    0.027237
   117  H    0.021339
   118  H    0.021502
   119  H    0.017730
   120  H    0.028106
   121  H    0.018662
   122  H    0.010189
   123  H    0.008890
   124  H    0.008817
   125  H    0.031761
   126  H    0.041278
   127  H    0.018086
   128  H    0.000915
   129  H   -0.006250
   130  H    0.012626
   131  H    0.022374
   132  H    0.015287
   133  H    0.023521
   134  H    0.023352
   135  H    0.039347
   136  H    0.020682
   137  H    0.022930
   138  H    0.025221
   139  H    0.034798
   140  H    0.025777
 Sum of Mulliken charges =  -0.00000

 Dipole moment (field-independent basis, Debye):
    X=              0.7162    Y=              6.8891    Z=             -0.0572  Tot=              6.9265
 Quadrupole moment (field-independent basis, Debye-Ang):
   XX=           -343.6937   YY=           -439.0498   ZZ=           -403.5758
   XY=             34.9316   XZ=             -9.5105   YZ=             39.5340

 Normal termination of Gaussian 16 at Wed Apr 27 16:20:50 2022.
