 Gaussian 16, Revision A.03,
 Gaussian 16:  ES64L-G16RevA.03 25-Dec-2016

 --------------------
 #p ZINDO=(nstates=5)
 --------------------

 ------------------------------
 step_1251_chromophore_14 ZINDO
 ------------------------------
 Symbolic Z-matrix:
 Charge =  0 Multiplicity = 1

                         Standard orientation:
 ---------------------------------------------------------------------
 Center     Atomic      Atomic             Coordinates (Angstroms)
 Number     Number       Type             X           Y           Z
 ---------------------------------------------------------------------
      1         12           0        5.341060    1.130247   -0.136780
      2          6           0        5.339789   -2.379095    0.232513
      3          6           0        4.412771    0.579993   -3.406935
      4          6           0        4.658641    4.328634   -0.360365
      5          6           0        5.692419    1.460114    3.446181
      6          7           0        4.894393   -0.702677   -1.419703
      7          6           0        5.004498   -2.018138   -1.020118
      8          6           0        4.601533   -2.979862   -2.134194
      9          6           0        4.447285   -1.973280   -3.373231
     10          6           0        4.691937   -0.615768   -2.724408
     11          6           0        5.399941   -2.259535   -4.552391
     12          6           0        3.267730   -3.792708   -1.930892
     13          6           0        2.110391   -3.128660   -1.056250
     14          6           0        0.726417   -3.506689   -1.608516
     15          8           0        0.410017   -4.501539   -2.216076
     16          8           0       -0.220500   -2.601433   -1.119101
     17          7           0        4.532894    2.266055   -1.656561
     18          6           0        4.224970    1.868369   -2.900194
     19          6           0        3.765455    2.996269   -3.672584
     20          6           0        3.678593    4.091069   -2.759604
     21          6           0        4.255705    3.616223   -1.499109
     22          6           0        3.264744    2.952380   -5.104874
     23          6           0        3.126012    5.416084   -3.095098
     24          8           0        2.797930    5.710958   -4.248976
     25          6           0        2.771140    6.396849   -2.000913
     26          7           0        5.008663    2.673276    1.393431
     27          6           0        5.066548    3.941197    0.914419
     28          6           0        5.515331    4.940758    1.938929
     29          6           0        5.677435    4.152880    3.240424
     30          6           0        5.443743    2.661103    2.674924
     31          6           0        6.778059    5.652607    1.549275
     32          6           0        4.658601    4.593080    4.293685
     33          6           0        5.067307    4.531442    5.804461
     34          7           0        5.472827   -0.089843    1.464687
     35          6           0        5.666055    0.137618    2.849490
     36          6           0        5.737586   -1.098194    3.569668
     37          6           0        5.554691   -2.098163    2.610951
     38          6           0        5.451680   -1.453050    1.363558
     39          6           0        5.940012   -1.321076    5.038852
     40          6           0        5.584562   -3.538303    2.406050
     41          8           0        5.593978   -4.432799    3.260269
     42          6           0        5.452338   -3.740305    0.860064
     43          6           0        6.645313   -4.539028    0.491861
     44          8           0        6.751855   -5.765504    0.336759
     45          8           0        7.713782   -3.717264    0.469103
     46          6           0        9.042911   -4.328214    0.068679
     47          6           0       -1.638024   -3.066879   -1.197638
     48          6           0       -2.597025   -2.187148   -0.530705
     49          6           0       -3.524209   -1.277201   -1.090751
     50          6           0       -3.340006   -0.743102   -2.526967
     51          6           0       -4.686912   -0.562505   -0.190534
     52          6           0       -6.112994   -0.974782   -0.552898
     53          6           0       -6.923975   -1.690526    0.502882
     54          6           0       -8.313091   -1.008811    0.652364
     55          6           0       -8.414661   -0.205758    1.943113
     56          6           0       -9.474774   -2.076991    0.457268
     57          6           0      -10.757949   -1.234948    0.029148
     58          6           0      -12.089650   -1.786164    0.386521
     59          6           0      -12.879675   -0.940785    1.419051
     60          6           0      -12.459707   -1.232235    2.898225
     61          6           0      -14.425583   -0.982177    1.251293
     62          6           0      -15.168586    0.288988    1.291720
     63          6           0      -15.292363    0.898290   -0.151868
     64          6           0      -15.884070    2.342407   -0.157117
     65          6           0      -16.810859    2.656664   -1.397666
     66          6           0      -14.798752    3.421093   -0.077826
     67          1           0        4.010436    0.416193   -4.407988
     68          1           0        4.716305    5.390141   -0.609103
     69          1           0        5.870575    1.493165    4.522927
     70          1           0        5.385657   -3.708201   -2.342607
     71          1           0        3.397229   -1.875018   -3.648511
     72          1           0        4.873788   -2.031422   -5.480147
     73          1           0        5.590282   -3.332754   -4.534065
     74          1           0        6.352694   -1.744287   -4.433930
     75          1           0        3.569800   -4.754592   -1.519040
     76          1           0        2.874674   -4.105776   -2.898872
     77          1           0        2.265739   -2.056304   -1.181804
     78          1           0        2.182284   -3.527915   -0.044047
     79          1           0        2.296789    3.434875   -5.245025
     80          1           0        3.052181    1.917903   -5.372415
     81          1           0        3.964614    3.338452   -5.846704
     82          1           0        3.633087    6.897251   -1.560693
     83          1           0        2.189711    5.768470   -1.326201
     84          1           0        2.106070    7.144137   -2.435054
     85          1           0        4.725330    5.689047    2.006817
     86          1           0        6.701309    4.111053    3.613819
     87          1           0        7.643842    5.281554    2.096068
     88          1           0        6.639827    6.730612    1.638285
     89          1           0        7.019196    5.518315    0.494281
     90          1           0        3.673551    4.161667    4.115194
     91          1           0        4.592658    5.678442    4.228288
     92          1           0        6.052202    4.071162    5.883681
     93          1           0        4.340779    3.985007    6.406427
     94          1           0        5.022260    5.489867    6.321398
     95          1           0        5.051945   -1.027549    5.597482
     96          1           0        6.768211   -0.804058    5.524016
     97          1           0        6.038285   -2.394258    5.204366
     98          1           0        4.640134   -4.411744    0.581306
     99          1           0        9.345852   -5.229335    0.603434
    100          1           0        9.877104   -3.626951    0.089817
    101          1           0        8.925805   -4.650883   -0.965687
    102          1           0       -1.636783   -4.069416   -0.768518
    103          1           0       -1.933066   -2.937769   -2.239189
    104          1           0       -2.911913   -2.483552    0.470258
    105          1           0       -2.388525   -0.912085   -3.031471
    106          1           0       -3.558871    0.324059   -2.519883
    107          1           0       -4.148041   -1.266591   -3.037162
    108          1           0       -4.480762    0.506210   -0.244423
    109          1           0       -4.470365   -0.778605    0.856054
    110          1           0       -6.120046   -1.581094   -1.458855
    111          1           0       -6.585822   -0.031587   -0.826850
    112          1           0       -6.420003   -1.684282    1.469248
    113          1           0       -7.042513   -2.689780    0.083170
    114          1           0       -8.501941   -0.320697   -0.172201
    115          1           0       -9.306844   -0.350159    2.552336
    116          1           0       -8.386518    0.864232    1.735198
    117          1           0       -7.616581   -0.381743    2.663720
    118          1           0       -9.618613   -2.678388    1.355491
    119          1           0       -9.181216   -2.766952   -0.334170
    120          1           0      -10.690267   -1.164066   -1.056885
    121          1           0      -10.656473   -0.247149    0.477507
    122          1           0      -11.957112   -2.788517    0.794636
    123          1           0      -12.744656   -1.930765   -0.471870
    124          1           0      -12.588034    0.082583    1.179325
    125          1           0      -13.294944   -1.288806    3.595856
    126          1           0      -11.687330   -0.530284    3.214718
    127          1           0      -12.031422   -2.235013    2.895140
    128          1           0      -14.873739   -1.643107    1.993235
    129          1           0      -14.617925   -1.554526    0.343545
    130          1           0      -14.582245    0.963006    1.916369
    131          1           0      -16.106578    0.091892    1.810667
    132          1           0      -16.036771    0.296400   -0.673321
    133          1           0      -14.337681    0.810252   -0.669921
    134          1           0      -16.509093    2.416289    0.733057
    135          1           0      -16.767836    1.906826   -2.188595
    136          1           0      -16.636267    3.665098   -1.771405
    137          1           0      -17.828169    2.741510   -1.015927
    138          1           0      -15.339033    4.254940    0.369733
    139          1           0      -14.431188    3.756414   -1.047216
    140          1           0      -13.971349    3.164773    0.583895
 ---------------------------------------------------------------------

 SCF Done:  E(RZINDO/S) =  -474.233202585     A.U. after   19 cycles

 Excitation energies and oscillator strengths:

 Excited State   1:      Singlet-A      1.3085 eV  947.51 nm  f=0.5256  <S**2>=0.000
     175 ->178         0.15913
     176 ->177         0.67072
 This state for optimization and/or second-order correction.
 Total Energy, E(CIS/TDA) =  -474.185115129
 Copying the excited state density for this state as the 1-particle RhoCI density.

 Excited State   2:      Singlet-A      1.9586 eV  633.01 nm  f=0.0386  <S**2>=0.000
     175 ->177         0.53692
     176 ->178        -0.41889

 Excited State   3:      Singlet-A      2.8711 eV  431.84 nm  f=0.0087  <S**2>=0.000
     168 ->177         0.32486
     168 ->178        -0.24564
     168 ->179        -0.35465
     168 ->181         0.27227
     168 ->184        -0.14187
     168 ->186         0.19658
     168 ->191        -0.11576

 Excited State   4:      Singlet-A      2.9001 eV  427.52 nm  f=0.3182  <S**2>=0.000
     175 ->177         0.20970
     176 ->178         0.33044
     176 ->179         0.32854
     176 ->180         0.45054

 Excited State   5:      Singlet-A      3.0025 eV  412.94 nm  f=0.7492  <S**2>=0.000
     175 ->177         0.33668
     176 ->178         0.39930
     176 ->179        -0.34737
     176 ->180        -0.21689
     176 ->181        -0.13603

 The electronic state is 1-A.
 Alpha  occ. eigenvalues --   -1.84244  -1.82567  -1.81382  -1.73422  -1.71417
 Alpha  occ. eigenvalues --   -1.70600  -1.65661  -1.60761  -1.60352  -1.56197
 Alpha  occ. eigenvalues --   -1.53964  -1.50554  -1.47982  -1.47088  -1.46255
 Alpha  occ. eigenvalues --   -1.43196  -1.42553  -1.41575  -1.39807  -1.39353
 Alpha  occ. eigenvalues --   -1.36391  -1.33365  -1.32792  -1.31495  -1.29487
 Alpha  occ. eigenvalues --   -1.27068  -1.26335  -1.23699  -1.21213  -1.18923
 Alpha  occ. eigenvalues --   -1.16353  -1.15430  -1.14290  -1.14260  -1.13204
 Alpha  occ. eigenvalues --   -1.13012  -1.11393  -1.10849  -1.06157  -1.05543
 Alpha  occ. eigenvalues --   -1.03690  -1.02147  -1.01267  -0.98576  -0.97123
 Alpha  occ. eigenvalues --   -0.97046  -0.95056  -0.93935  -0.92662  -0.91162
 Alpha  occ. eigenvalues --   -0.90297  -0.89064  -0.88915  -0.88544  -0.87354
 Alpha  occ. eigenvalues --   -0.86062  -0.83905  -0.83101  -0.82038  -0.80570
 Alpha  occ. eigenvalues --   -0.78556  -0.78107  -0.77894  -0.77465  -0.77206
 Alpha  occ. eigenvalues --   -0.76883  -0.76708  -0.74608  -0.74029  -0.73621
 Alpha  occ. eigenvalues --   -0.73222  -0.72857  -0.72067  -0.71968  -0.70894
 Alpha  occ. eigenvalues --   -0.70074  -0.69405  -0.69246  -0.68343  -0.67652
 Alpha  occ. eigenvalues --   -0.67330  -0.66888  -0.66715  -0.66348  -0.65777
 Alpha  occ. eigenvalues --   -0.65201  -0.64603  -0.64287  -0.63825  -0.63417
 Alpha  occ. eigenvalues --   -0.62919  -0.62558  -0.62527  -0.61513  -0.61408
 Alpha  occ. eigenvalues --   -0.61322  -0.60960  -0.60776  -0.60359  -0.60252
 Alpha  occ. eigenvalues --   -0.59937  -0.59606  -0.59210  -0.59019  -0.58319
 Alpha  occ. eigenvalues --   -0.58045  -0.57711  -0.57491  -0.56920  -0.56818
 Alpha  occ. eigenvalues --   -0.56178  -0.56048  -0.55691  -0.55521  -0.55066
 Alpha  occ. eigenvalues --   -0.54766  -0.54518  -0.53790  -0.53507  -0.52783
 Alpha  occ. eigenvalues --   -0.52667  -0.52296  -0.52180  -0.52111  -0.51454
 Alpha  occ. eigenvalues --   -0.51273  -0.51172  -0.50849  -0.50817  -0.50516
 Alpha  occ. eigenvalues --   -0.50142  -0.49886  -0.49504  -0.49396  -0.49129
 Alpha  occ. eigenvalues --   -0.49077  -0.48849  -0.48779  -0.48256  -0.47846
 Alpha  occ. eigenvalues --   -0.47754  -0.47578  -0.47337  -0.47223  -0.46585
 Alpha  occ. eigenvalues --   -0.46526  -0.46179  -0.45902  -0.45756  -0.45675
 Alpha  occ. eigenvalues --   -0.45206  -0.44785  -0.44568  -0.44526  -0.44019
 Alpha  occ. eigenvalues --   -0.44012  -0.43866  -0.42965  -0.42523  -0.42162
 Alpha  occ. eigenvalues --   -0.42051  -0.41815  -0.41258  -0.39567  -0.39290
 Alpha  occ. eigenvalues --   -0.38027  -0.37807  -0.36274  -0.34948  -0.34600
 Alpha  occ. eigenvalues --   -0.34401  -0.33301  -0.32477  -0.31888  -0.27470
 Alpha  occ. eigenvalues --   -0.22431
 Alpha virt. eigenvalues --   -0.08866  -0.02678  -0.01081   0.00143   0.00753
 Alpha virt. eigenvalues --    0.01935   0.02357   0.03032   0.03679   0.04375
 Alpha virt. eigenvalues --    0.05911   0.06342   0.07000   0.07510   0.07704

 Mulliken charges:
               1
     1  Mg   0.443885
     2  C   -0.033967
     3  C   -0.101907
     4  C   -0.089696
     5  C   -0.067155
     6  N   -0.293010
     7  C    0.099244
     8  C   -0.004440
     9  C   -0.004393
    10  C    0.184094
    11  C   -0.045971
    12  C   -0.035156
    13  C    0.007098
    14  C    0.462490
    15  O   -0.500453
    16  O   -0.291601
    17  N   -0.337450
    18  C    0.158238
    19  C    0.057062
    20  C   -0.036649
    21  C    0.139715
    22  C   -0.033608
    23  C    0.326904
    24  O   -0.528293
    25  C   -0.030749
    26  N   -0.264644
    27  C    0.170823
    28  C    0.017829
    29  C    0.003956
    30  C    0.067895
    31  C   -0.047256
    32  C   -0.030149
    33  C   -0.062438
    34  N   -0.323001
    35  C    0.052186
    36  C    0.017858
    37  C   -0.064765
    38  C    0.093748
    39  C   -0.039454
    40  C    0.334432
    41  O   -0.521335
    42  C    0.063209
    43  C    0.490434
    44  O   -0.532649
    45  O   -0.267829
    46  C    0.071442
    47  C    0.112350
    48  C   -0.103662
    49  C   -0.015027
    50  C   -0.043607
    51  C   -0.020566
    52  C   -0.024527
    53  C   -0.031962
    54  C   -0.013543
    55  C   -0.054497
    56  C   -0.043483
    57  C   -0.034764
    58  C   -0.028463
    59  C   -0.015650
    60  C   -0.059671
    61  C   -0.032013
    62  C   -0.028773
    63  C   -0.033709
    64  C   -0.014541
    65  C   -0.062994
    66  C   -0.055399
    67  H    0.023463
    68  H    0.020350
    69  H    0.039470
    70  H    0.036164
    71  H    0.040146
    72  H    0.024869
    73  H    0.021609
    74  H    0.030954
    75  H    0.023190
    76  H    0.030207
    77  H    0.047491
    78  H    0.061874
    79  H    0.043328
    80  H    0.013830
    81  H    0.044884
    82  H    0.046069
    83  H    0.035944
    84  H    0.036492
    85  H    0.030380
    86  H    0.036741
    87  H    0.027457
    88  H    0.018975
    89  H    0.014934
    90  H    0.032929
    91  H    0.011063
    92  H    0.023524
    93  H    0.016776
    94  H    0.020469
    95  H    0.024193
    96  H    0.027190
    97  H    0.030882
    98  H    0.055957
    99  H    0.054553
   100  H    0.035335
   101  H    0.032299
   102  H    0.057255
   103  H    0.048212
   104  H    0.015934
   105  H    0.034458
   106  H    0.022796
   107  H    0.029876
   108  H    0.023822
   109  H    0.020200
   110  H    0.020149
   111  H    0.015068
   112  H    0.028993
   113  H    0.021634
   114  H    0.022045
   115  H    0.017358
   116  H    0.012320
   117  H    0.015780
   118  H    0.024344
   119  H    0.018309
   120  H    0.016254
   121  H    0.024005
   122  H    0.013824
   123  H    0.014790
   124  H    0.013639
   125  H    0.023540
   126  H    0.021044
   127  H    0.014963
   128  H    0.005895
   129  H    0.009361
   130  H    0.016124
   131  H    0.022720
   132  H    0.013174
   133  H    0.028466
   134  H    0.020462
   135  H    0.027568
   136  H    0.018907
   137  H    0.012110
   138  H    0.010197
   139  H    0.023680
   140  H    0.016709
 Sum of Mulliken charges =  -0.00000

 Dipole moment (field-independent basis, Debye):
    X=              0.8935    Y=             10.3177    Z=             -2.4367  Tot=             10.6391
 N-N= 4.267114220272D+03 E-N= 0.000000000000D+00  KE=-9.207847100314D+03
 Leave Link  601 at Wed Apr 27 16:31:49 2022, MaxMem=  6710886400 cpu:               0.8 elap:               0.1
 (Enter /sw/apps/gaussian-16.0/g16/l9999.exe)
 1\1\GINC-BP1-COMPUTE146\SP\RZINDO CIS\STO-3G\C55H74Mg1N4O6\OF15641\27-
 Apr-2022\0\\#p ZINDO=(nstates=5)\\step_1251_chromophore_14 ZINDO\\0,1\
 Mg,0,45.735,44.564,43.839\C,0,42.39,43.458,43.64\C,0,46.633,41.336,43.
 044\C,0,48.783,45.659,43.333\C,0,44.547,47.973,44.032\N,0,44.621,42.63
 1,43.362\C,0,43.253,42.457,43.385\C,0,42.86,41.037,42.988\C,0,44.293,4
 0.318,42.946\C,0,45.247,41.473,43.228\C,0,44.451,39.148,43.939\C,0,42.
 126,40.857,41.606\C,0,42.45,41.9,40.443\C,0,42.424,41.209,39.07\O,0,41

 Normal termination of Gaussian 16 at Wed Apr 27 16:31:49 2022.
