 Gaussian 16, Revision A.03,
 Gaussian 16:  ES64L-G16RevA.03 25-Dec-2016

 ------------------------------
 #p blyp/Def2SVP td=(nstates=5)
 ------------------------------

 -------------------------------------------------
 step_901_chromophore_9 TDDFT with blyp functional
 -------------------------------------------------
 Symbolic Z-matrix:
 Charge =  0 Multiplicity = 1

                         Standard orientation:
 ---------------------------------------------------------------------
 Center     Atomic      Atomic             Coordinates (Angstroms)
 Number     Number       Type             X           Y           Z
 ---------------------------------------------------------------------
      1         12           0       -5.019061    0.752464   -0.237587
      2          6           0       -3.788793   -2.618715    0.064641
      3          6           0       -1.719934    1.752712   -0.263436
      4          6           0       -6.068226    3.904644    0.050726
      5          6           0       -8.252787   -0.512476    0.437744
      6          7           0       -3.055149   -0.289339   -0.021568
      7          6           0       -2.773133   -1.656413   -0.080823
      8          6           0       -1.314304   -1.973994   -0.238668
      9          6           0       -0.614647   -0.514861    0.088334
     10          6           0       -1.838863    0.356042   -0.076015
     11          6           0        0.140473   -0.420925    1.429063
     12          6           0       -1.045795   -2.506811   -1.579800
     13          6           0        0.298320   -3.209636   -1.758171
     14          6           0        1.413201   -3.088884   -0.722822
     15          8           0        1.751499   -3.951637    0.184837
     16          8           0        2.125013   -1.904743   -0.945552
     17          7           0       -4.067160    2.656700   -0.399571
     18          6           0       -2.697080    2.811866   -0.297632
     19          6           0       -2.407713    4.268923   -0.276177
     20          6           0       -3.710343    4.925119   -0.248732
     21          6           0       -4.687919    3.811178   -0.122245
     22          6           0       -1.026901    4.784825   -0.272775
     23          6           0       -4.002144    6.347682   -0.141204
     24          8           0       -5.117885    6.836855   -0.049176
     25          6           0       -2.857069    7.323163   -0.095753
     26          7           0       -6.940050    1.562274    0.012990
     27          6           0       -7.071561    2.914136    0.067064
     28          6           0       -8.581247    3.324785    0.184143
     29          6           0       -9.281993    1.905426    0.317116
     30          6           0       -8.078750    0.899793    0.295807
     31          6           0       -8.809706    4.353737    1.400425
     32          6           0      -10.289870    1.700809   -0.809638
     33          6           0       -9.797866    1.137505   -2.123391
     34          7           0       -5.888347   -1.139486    0.264706
     35          6           0       -7.256071   -1.488190    0.399342
     36          6           0       -7.365804   -2.941004    0.537384
     37          6           0       -6.026470   -3.360882    0.393586
     38          6           0       -5.152665   -2.279441    0.272959
     39          6           0       -8.620352   -3.726074    0.840724
     40          6           0       -5.238370   -4.602419    0.388033
     41          8           0       -5.678958   -5.777201    0.561019
     42          6           0       -3.754366   -4.177220    0.142408
     43          6           0       -2.946644   -4.736283    1.280823
     44          8           0       -3.123970   -4.435755    2.474183
     45          8           0       -1.883870   -5.446752    0.791160
     46          6           0       -1.111161   -6.113839    1.873942
     47          6           0        3.189467   -1.651101    0.006182
     48          6           0        4.445613   -1.421229   -0.748285
     49          6           0        5.531729   -2.250870   -0.946333
     50          6           0        5.658145   -3.709547   -0.680161
     51          6           0        6.835621   -1.545845   -1.391294
     52          6           0        6.612991   -0.672962   -2.640683
     53          6           0        7.526451   -1.099327   -3.859670
     54          6           0        8.559950    0.024728   -4.227286
     55          6           0        8.887853   -0.069981   -5.744226
     56          6           0        9.861257    0.033674   -3.355233
     57          6           0        9.794124    1.238501   -2.337436
     58          6           0       10.942295    1.333466   -1.394983
     59          6           0       10.637383    2.201806   -0.186469
     60          6           0       11.663424    3.405751    0.003972
     61          6           0       10.707251    1.303025    1.110878
     62          6           0        9.976191    1.791966    2.445140
     63          6           0       10.848265    1.963321    3.711056
     64          6           0       10.289673    1.184465    4.920442
     65          6           0       11.035406    1.590915    6.188401
     66          6           0       10.498429   -0.345904    4.651609
     67          1           0       -0.690747    2.098526   -0.381405
     68          1           0       -6.406063    4.922601    0.256413
     69          1           0       -9.270784   -0.890794    0.547323
     70          1           0       -1.022652   -2.688385    0.531671
     71          1           0        0.116765   -0.275795   -0.683097
     72          1           0        1.138269    0.008309    1.352505
     73          1           0        0.151869   -1.333095    2.025661
     74          1           0       -0.391749    0.275910    2.077226
     75          1           0       -1.134567   -1.719478   -2.329717
     76          1           0       -1.795606   -3.188515   -1.980408
     77          1           0        0.617825   -3.060663   -2.789305
     78          1           0        0.014737   -4.259511   -1.692337
     79          1           0       -0.829260    5.348695   -1.184805
     80          1           0       -0.320681    3.959472   -0.183112
     81          1           0       -0.846403    5.515826    0.515144
     82          1           0       -2.289735    7.379372    0.832920
     83          1           0       -3.151019    8.344110   -0.339436
     84          1           0       -2.190237    7.088554   -0.926191
     85          1           0       -8.823556    3.852544   -0.738749
     86          1           0       -9.879943    1.747301    1.214493
     87          1           0       -8.984379    5.324813    0.936420
     88          1           0       -7.974623    4.461778    2.092297
     89          1           0       -9.712186    4.194186    1.991566
     90          1           0      -10.745407    2.671282   -1.008689
     91          1           0      -11.086507    1.070978   -0.413785
     92          1           0       -8.715441    1.009482   -2.160475
     93          1           0      -10.077059    1.737742   -2.989121
     94          1           0      -10.127056    0.105967   -2.244012
     95          1           0       -9.426879   -3.015883    1.024809
     96          1           0       -8.494584   -4.384707    1.698976
     97          1           0       -8.883783   -4.350492   -0.013250
     98          1           0       -3.415955   -4.542401   -0.827124
     99          1           0       -1.756361   -6.667611    2.556384
    100          1           0       -0.507654   -5.358389    2.377532
    101          1           0       -0.501892   -6.768432    1.251902
    102          1           0        3.318173   -2.280142    0.886014
    103          1           0        2.994723   -0.671973    0.444440
    104          1           0        4.536214   -0.366993   -1.011403
    105          1           0        5.889970   -4.095413   -1.672859
    106          1           0        4.816558   -4.191160   -0.181855
    107          1           0        6.546200   -3.937501   -0.089438
    108          1           0        7.594047   -2.300591   -1.600186
    109          1           0        7.165308   -0.889232   -0.586315
    110          1           0        6.649303    0.404808   -2.484519
    111          1           0        5.566639   -0.825731   -2.903959
    112          1           0        6.883094   -1.545682   -4.617652
    113          1           0        8.155605   -1.904467   -3.478616
    114          1           0        8.109717    1.002988   -4.057521
    115          1           0        8.023183    0.316952   -6.284354
    116          1           0        8.991592   -1.136910   -5.939876
    117          1           0        9.763238    0.488010   -6.075221
    118          1           0       10.773704    0.174629   -3.936133
    119          1           0        9.921684   -0.864350   -2.741611
    120          1           0        8.824326    1.344144   -1.850556
    121          1           0        9.852476    2.069991   -3.040029
    122          1           0       11.692049    1.822473   -2.016048
    123          1           0       11.372067    0.367293   -1.132288
    124          1           0        9.657709    2.675206   -0.252589
    125          1           0       12.479901    3.357388   -0.716450
    126          1           0       11.925757    3.524500    1.054517
    127          1           0       11.115582    4.284392   -0.337408
    128          1           0       11.737024    0.991965    1.281908
    129          1           0       10.165471    0.399468    0.830483
    130          1           0        9.248900    1.010446    2.666994
    131          1           0        9.424661    2.713091    2.258704
    132          1           0       10.661106    3.024497    3.875900
    133          1           0       11.879517    1.702348    3.472605
    134          1           0        9.202612    1.226087    4.981409
    135          1           0       10.871291    0.778674    6.897062
    136          1           0       10.416100    2.439714    6.478072
    137          1           0       12.073611    1.913333    6.107544
    138          1           0        9.585839   -0.814325    5.019847
    139          1           0       11.309400   -0.820463    5.204514
    140          1           0       10.538211   -0.522264    3.576393
 ---------------------------------------------------------------------

 SCF Done:  E(RB-LYP) =  -3007.39326417     A.U. after   22 cycles

 Excitation energies and oscillator strengths:

 Excited State   1:      Singlet-A      1.7823 eV  695.63 nm  f=0.2698  <S**2>=0.000
     244 -> 247       -0.17563
     245 -> 248       -0.17984
     246 -> 247        0.66202
     246 <- 247       -0.14581
 This state for optimization and/or second-order correction.
 Total Energy, E(TD-HF/TD-DFT) =  -3007.32776441
 Copying the excited state density for this state as the 1-particle RhoCI density.

 Excited State   2:      Singlet-A      1.7883 eV  693.29 nm  f=0.0379  <S**2>=0.000
     243 -> 247        0.47137
     244 -> 247        0.43152
     245 -> 247       -0.23544
     246 -> 247        0.17822

 Excited State   3:      Singlet-A      1.8038 eV  687.35 nm  f=0.0055  <S**2>=0.000
     243 -> 247       -0.47028
     244 -> 247        0.51630

 Excited State   4:      Singlet-A      1.9946 eV  621.60 nm  f=0.0670  <S**2>=0.000
     243 -> 247        0.22051
     244 -> 247        0.11911
     245 -> 247        0.59737
     246 -> 248        0.24206

 Excited State   5:      Singlet-A      2.2758 eV  544.80 nm  f=0.0003  <S**2>=0.000
     241 -> 247        0.69725
     242 -> 247       -0.11629

 The electronic state is 1-A.
 Alpha  occ. eigenvalues --  -46.27812 -18.83435 -18.82354 -18.78060 -18.76446
 Alpha  occ. eigenvalues --  -18.75378 -18.74913 -14.03847 -14.03589 -14.01457
 Alpha  occ. eigenvalues --  -14.00555 -10.05806 -10.03807  -9.99421  -9.99083
 Alpha  occ. eigenvalues --   -9.97653  -9.97209  -9.96970  -9.96936  -9.96923
 Alpha  occ. eigenvalues --   -9.96742  -9.96371  -9.95777  -9.95555  -9.94692
 Alpha  occ. eigenvalues --   -9.94636  -9.94496  -9.94322  -9.94320  -9.94223
 Alpha  occ. eigenvalues --   -9.94218  -9.94082  -9.93971  -9.93853  -9.93647
 Alpha  occ. eigenvalues --   -9.93612  -9.93340  -9.93276  -9.93233  -9.92792
 Alpha  occ. eigenvalues --   -9.92697  -9.92616  -9.92441  -9.92402  -9.92342
 Alpha  occ. eigenvalues --   -9.92218  -9.92204  -9.92103  -9.92079  -9.92044
 Alpha  occ. eigenvalues --   -9.91839  -9.91678  -9.91603  -9.91524  -9.91442
 Alpha  occ. eigenvalues --   -9.91340  -9.91275  -9.91272  -9.91164  -9.91067
 Alpha  occ. eigenvalues --   -9.90961  -9.90943  -9.90908  -9.90804  -9.90682
 Alpha  occ. eigenvalues --   -9.90542  -2.92281  -1.72727  -1.72144  -1.71997
 Alpha  occ. eigenvalues --   -0.97332  -0.97127  -0.91253  -0.89000  -0.88398
 Alpha  occ. eigenvalues --   -0.88129  -0.86310  -0.85700  -0.85302  -0.84338
 Alpha  occ. eigenvalues --   -0.74993  -0.74197  -0.73711  -0.73065  -0.72198
 Alpha  occ. eigenvalues --   -0.72108  -0.71608  -0.70989  -0.70607  -0.70491
 Alpha  occ. eigenvalues --   -0.69442  -0.69289  -0.68094  -0.67371  -0.67089
 Alpha  occ. eigenvalues --   -0.66516  -0.65723  -0.65481  -0.64998  -0.64415
 Alpha  occ. eigenvalues --   -0.64275  -0.63024  -0.62597  -0.61527  -0.60609
 Alpha  occ. eigenvalues --   -0.60454  -0.60153  -0.59944  -0.59713  -0.59153
 Alpha  occ. eigenvalues --   -0.58604  -0.57467  -0.57106  -0.55823  -0.55074
 Alpha  occ. eigenvalues --   -0.53889  -0.53668  -0.52699  -0.52580  -0.51809
 Alpha  occ. eigenvalues --   -0.50954  -0.50892  -0.50515  -0.50273  -0.50120
 Alpha  occ. eigenvalues --   -0.50056  -0.48990  -0.48755  -0.47854  -0.46919
 Alpha  occ. eigenvalues --   -0.46702  -0.46500  -0.45535  -0.44999  -0.44422
 Alpha  occ. eigenvalues --   -0.43926  -0.43312  -0.42843  -0.42811  -0.42507
 Alpha  occ. eigenvalues --   -0.42011  -0.41957  -0.41666  -0.41564  -0.41329
 Alpha  occ. eigenvalues --   -0.41000  -0.40930  -0.40497  -0.40227  -0.39896
 Alpha  occ. eigenvalues --   -0.39810  -0.39591  -0.39515  -0.39392  -0.39317
 Alpha  occ. eigenvalues --   -0.39158  -0.39006  -0.38566  -0.38474  -0.38144
 Alpha  occ. eigenvalues --   -0.37989  -0.37942  -0.37683  -0.37560  -0.37189
 Alpha  occ. eigenvalues --   -0.36820  -0.36731  -0.36681  -0.36604  -0.36475
 Alpha  occ. eigenvalues --   -0.36268  -0.36078  -0.35910  -0.35757  -0.35475
 Alpha  occ. eigenvalues --   -0.35305  -0.35188  -0.35057  -0.34921  -0.34593
 Alpha  occ. eigenvalues --   -0.34551  -0.34466  -0.34245  -0.34158  -0.34004
 Alpha  occ. eigenvalues --   -0.33932  -0.33685  -0.33562  -0.33128  -0.32989
 Alpha  occ. eigenvalues --   -0.32955  -0.32820  -0.32607  -0.32547  -0.32299
 Alpha  occ. eigenvalues --   -0.32170  -0.32029  -0.31903  -0.31606  -0.31415
 Alpha  occ. eigenvalues --   -0.31370  -0.31148  -0.30942  -0.30790  -0.30668
 Alpha  occ. eigenvalues --   -0.30636  -0.30332  -0.30217  -0.30130  -0.29881
 Alpha  occ. eigenvalues --   -0.29562  -0.29487  -0.29474  -0.29333  -0.29217
 Alpha  occ. eigenvalues --   -0.28817  -0.28641  -0.28230  -0.27869  -0.27698
 Alpha  occ. eigenvalues --   -0.27479  -0.27199  -0.27108  -0.26776  -0.26607
 Alpha  occ. eigenvalues --   -0.26462  -0.26207  -0.26057  -0.25719  -0.25199
 Alpha  occ. eigenvalues --   -0.24951  -0.24917  -0.24681  -0.24167  -0.23883
 Alpha  occ. eigenvalues --   -0.23179  -0.22704  -0.22258  -0.21467  -0.20566
 Alpha  occ. eigenvalues --   -0.20088  -0.20001  -0.18261  -0.18234  -0.17389
 Alpha  occ. eigenvalues --   -0.15910
 Alpha virt. eigenvalues --   -0.11724  -0.07252  -0.06333  -0.05644  -0.04780
 Alpha virt. eigenvalues --   -0.03512  -0.03098  -0.02613  -0.01629   0.00169
 Alpha virt. eigenvalues --    0.01226   0.01617   0.01869   0.02192   0.02511

 Mulliken charges:
               1
     1  Mg   0.681703
     2  C   -0.047129
     3  C   -0.068069
     4  C   -0.030467
     5  C   -0.062376
     6  N   -0.217598
     7  C   -0.056315
     8  C    0.002829
     9  C   -0.002105
    10  C    0.032744
    11  C    0.140183
    12  C    0.130207
    13  C    0.161486
    14  C    0.122721
    15  O   -0.250599
    16  O   -0.272393
    17  N   -0.276498
    18  C    0.133523
    19  C   -0.129068
    20  C    0.059805
    21  C    0.087621
    22  C    0.179323
    23  C   -0.097303
    24  O   -0.164468
    25  C    0.117840
    26  N   -0.224654
    27  C    0.035456
    28  C    0.009151
    29  C    0.064408
    30  C    0.018830
    31  C    0.094538
    32  C    0.056193
    33  C    0.080645
    34  N   -0.270293
    35  C    0.111834
    36  C   -0.162331
    37  C    0.080377
    38  C    0.097158
    39  C    0.186285
    40  C   -0.041673
    41  O   -0.178349
    42  C    0.124422
    43  C    0.121609
    44  O   -0.204027
    45  O   -0.275379
    46  C    0.223686
    47  C    0.358758
    48  C   -0.133954
    49  C   -0.167406
    50  C    0.160420
    51  C    0.131705
    52  C    0.036553
    53  C    0.107653
    54  C   -0.057270
    55  C    0.097790
    56  C    0.106446
    57  C   -0.032200
    58  C    0.179882
    59  C   -0.066230
    60  C    0.102320
    61  C    0.047865
    62  C    0.058742
    63  C    0.114335
    64  C   -0.117567
    65  C    0.140488
    66  C    0.077851
    67  H   -0.068715
    68  H   -0.042665
    69  H   -0.062716
    70  H   -0.003839
    71  H   -0.020152
    72  H   -0.009259
    73  H    0.005964
    74  H   -0.019675
    75  H   -0.038395
    76  H   -0.021774
    77  H    0.000415
    78  H   -0.004389
    79  H    0.006546
    80  H   -0.018103
    81  H   -0.002830
    82  H    0.017797
    83  H   -0.019653
    84  H   -0.019609
    85  H   -0.002804
    86  H   -0.032165
    87  H   -0.003715
    88  H    0.008863
    89  H   -0.011028
    90  H   -0.023026
    91  H   -0.027961
    92  H   -0.006496
    93  H   -0.008558
    94  H   -0.014778
    95  H   -0.023248
    96  H    0.017784
    97  H    0.008368
    98  H   -0.007923
    99  H    0.029425
   100  H    0.024606
   101  H    0.015993
   102  H    0.003568
   103  H   -0.037272
   104  H   -0.031998
   105  H    0.001241
   106  H    0.008277
   107  H   -0.004772
   108  H   -0.037144
   109  H   -0.002936
   110  H   -0.026504
   111  H   -0.026397
   112  H   -0.026147
   113  H   -0.036422
   114  H   -0.034634
   115  H   -0.018687
   116  H   -0.012505
   117  H   -0.016801
   118  H   -0.030640
   119  H   -0.032191
   120  H   -0.019366
   121  H   -0.030135
   122  H   -0.052275
   123  H   -0.032248
   124  H   -0.036818
   125  H   -0.016140
   126  H   -0.002436
   127  H   -0.029057
   128  H   -0.023676
   129  H   -0.035290
   130  H   -0.033849
   131  H   -0.031812
   132  H   -0.038079
   133  H   -0.020316
   134  H   -0.031064
   135  H   -0.019807
   136  H   -0.023709
   137  H   -0.000872
   138  H   -0.027059
   139  H   -0.012661
   140  H   -0.013315
 Sum of Mulliken charges =  -0.00000

 Dipole moment (field-independent basis, Debye):
    X=              4.0161    Y=              2.4310    Z=             -2.7415  Tot=              5.4364
 Quadrupole moment (field-independent basis, Debye-Ang):
   XX=           -385.5536   YY=           -444.8709   ZZ=           -407.3505
   XY=             -9.9857   XZ=              7.8584   YZ=              9.4246

 Normal termination of Gaussian 16 at Sat Apr 30 23:39:58 2022.
