 Gaussian 16, Revision A.03,
 Gaussian 16:  ES64L-G16RevA.03 25-Dec-2016

 -----------------------------------
 #p cam-b3lyp/Def2SVP td=(nstates=5)
 -----------------------------------

 ------------------------------------------------------
 step_901_chromophore_9 TDDFT with cam-b3lyp functional
 ------------------------------------------------------
 Symbolic Z-matrix:
 Charge =  0 Multiplicity = 1

                         Standard orientation:
 ---------------------------------------------------------------------
 Center     Atomic      Atomic             Coordinates (Angstroms)
 Number     Number       Type             X           Y           Z
 ---------------------------------------------------------------------
      1         12           0       -5.019061    0.752464   -0.237587
      2          6           0       -3.788793   -2.618715    0.064641
      3          6           0       -1.719934    1.752712   -0.263436
      4          6           0       -6.068226    3.904644    0.050726
      5          6           0       -8.252787   -0.512476    0.437744
      6          7           0       -3.055149   -0.289339   -0.021568
      7          6           0       -2.773133   -1.656413   -0.080823
      8          6           0       -1.314304   -1.973994   -0.238668
      9          6           0       -0.614647   -0.514861    0.088334
     10          6           0       -1.838863    0.356042   -0.076015
     11          6           0        0.140473   -0.420925    1.429063
     12          6           0       -1.045795   -2.506811   -1.579800
     13          6           0        0.298320   -3.209636   -1.758171
     14          6           0        1.413201   -3.088884   -0.722822
     15          8           0        1.751499   -3.951637    0.184837
     16          8           0        2.125013   -1.904743   -0.945552
     17          7           0       -4.067160    2.656700   -0.399571
     18          6           0       -2.697080    2.811866   -0.297632
     19          6           0       -2.407713    4.268923   -0.276177
     20          6           0       -3.710343    4.925119   -0.248732
     21          6           0       -4.687919    3.811178   -0.122245
     22          6           0       -1.026901    4.784825   -0.272775
     23          6           0       -4.002144    6.347682   -0.141204
     24          8           0       -5.117885    6.836855   -0.049176
     25          6           0       -2.857069    7.323163   -0.095753
     26          7           0       -6.940050    1.562274    0.012990
     27          6           0       -7.071561    2.914136    0.067064
     28          6           0       -8.581247    3.324785    0.184143
     29          6           0       -9.281993    1.905426    0.317116
     30          6           0       -8.078750    0.899793    0.295807
     31          6           0       -8.809706    4.353737    1.400425
     32          6           0      -10.289870    1.700809   -0.809638
     33          6           0       -9.797866    1.137505   -2.123391
     34          7           0       -5.888347   -1.139486    0.264706
     35          6           0       -7.256071   -1.488190    0.399342
     36          6           0       -7.365804   -2.941004    0.537384
     37          6           0       -6.026470   -3.360882    0.393586
     38          6           0       -5.152665   -2.279441    0.272959
     39          6           0       -8.620352   -3.726074    0.840724
     40          6           0       -5.238370   -4.602419    0.388033
     41          8           0       -5.678958   -5.777201    0.561019
     42          6           0       -3.754366   -4.177220    0.142408
     43          6           0       -2.946644   -4.736283    1.280823
     44          8           0       -3.123970   -4.435755    2.474183
     45          8           0       -1.883870   -5.446752    0.791160
     46          6           0       -1.111161   -6.113839    1.873942
     47          6           0        3.189467   -1.651101    0.006182
     48          6           0        4.445613   -1.421229   -0.748285
     49          6           0        5.531729   -2.250870   -0.946333
     50          6           0        5.658145   -3.709547   -0.680161
     51          6           0        6.835621   -1.545845   -1.391294
     52          6           0        6.612991   -0.672962   -2.640683
     53          6           0        7.526451   -1.099327   -3.859670
     54          6           0        8.559950    0.024728   -4.227286
     55          6           0        8.887853   -0.069981   -5.744226
     56          6           0        9.861257    0.033674   -3.355233
     57          6           0        9.794124    1.238501   -2.337436
     58          6           0       10.942295    1.333466   -1.394983
     59          6           0       10.637383    2.201806   -0.186469
     60          6           0       11.663424    3.405751    0.003972
     61          6           0       10.707251    1.303025    1.110878
     62          6           0        9.976191    1.791966    2.445140
     63          6           0       10.848265    1.963321    3.711056
     64          6           0       10.289673    1.184465    4.920442
     65          6           0       11.035406    1.590915    6.188401
     66          6           0       10.498429   -0.345904    4.651609
     67          1           0       -0.690747    2.098526   -0.381405
     68          1           0       -6.406063    4.922601    0.256413
     69          1           0       -9.270784   -0.890794    0.547323
     70          1           0       -1.022652   -2.688385    0.531671
     71          1           0        0.116765   -0.275795   -0.683097
     72          1           0        1.138269    0.008309    1.352505
     73          1           0        0.151869   -1.333095    2.025661
     74          1           0       -0.391749    0.275910    2.077226
     75          1           0       -1.134567   -1.719478   -2.329717
     76          1           0       -1.795606   -3.188515   -1.980408
     77          1           0        0.617825   -3.060663   -2.789305
     78          1           0        0.014737   -4.259511   -1.692337
     79          1           0       -0.829260    5.348695   -1.184805
     80          1           0       -0.320681    3.959472   -0.183112
     81          1           0       -0.846403    5.515826    0.515144
     82          1           0       -2.289735    7.379372    0.832920
     83          1           0       -3.151019    8.344110   -0.339436
     84          1           0       -2.190237    7.088554   -0.926191
     85          1           0       -8.823556    3.852544   -0.738749
     86          1           0       -9.879943    1.747301    1.214493
     87          1           0       -8.984379    5.324813    0.936420
     88          1           0       -7.974623    4.461778    2.092297
     89          1           0       -9.712186    4.194186    1.991566
     90          1           0      -10.745407    2.671282   -1.008689
     91          1           0      -11.086507    1.070978   -0.413785
     92          1           0       -8.715441    1.009482   -2.160475
     93          1           0      -10.077059    1.737742   -2.989121
     94          1           0      -10.127056    0.105967   -2.244012
     95          1           0       -9.426879   -3.015883    1.024809
     96          1           0       -8.494584   -4.384707    1.698976
     97          1           0       -8.883783   -4.350492   -0.013250
     98          1           0       -3.415955   -4.542401   -0.827124
     99          1           0       -1.756361   -6.667611    2.556384
    100          1           0       -0.507654   -5.358389    2.377532
    101          1           0       -0.501892   -6.768432    1.251902
    102          1           0        3.318173   -2.280142    0.886014
    103          1           0        2.994723   -0.671973    0.444440
    104          1           0        4.536214   -0.366993   -1.011403
    105          1           0        5.889970   -4.095413   -1.672859
    106          1           0        4.816558   -4.191160   -0.181855
    107          1           0        6.546200   -3.937501   -0.089438
    108          1           0        7.594047   -2.300591   -1.600186
    109          1           0        7.165308   -0.889232   -0.586315
    110          1           0        6.649303    0.404808   -2.484519
    111          1           0        5.566639   -0.825731   -2.903959
    112          1           0        6.883094   -1.545682   -4.617652
    113          1           0        8.155605   -1.904467   -3.478616
    114          1           0        8.109717    1.002988   -4.057521
    115          1           0        8.023183    0.316952   -6.284354
    116          1           0        8.991592   -1.136910   -5.939876
    117          1           0        9.763238    0.488010   -6.075221
    118          1           0       10.773704    0.174629   -3.936133
    119          1           0        9.921684   -0.864350   -2.741611
    120          1           0        8.824326    1.344144   -1.850556
    121          1           0        9.852476    2.069991   -3.040029
    122          1           0       11.692049    1.822473   -2.016048
    123          1           0       11.372067    0.367293   -1.132288
    124          1           0        9.657709    2.675206   -0.252589
    125          1           0       12.479901    3.357388   -0.716450
    126          1           0       11.925757    3.524500    1.054517
    127          1           0       11.115582    4.284392   -0.337408
    128          1           0       11.737024    0.991965    1.281908
    129          1           0       10.165471    0.399468    0.830483
    130          1           0        9.248900    1.010446    2.666994
    131          1           0        9.424661    2.713091    2.258704
    132          1           0       10.661106    3.024497    3.875900
    133          1           0       11.879517    1.702348    3.472605
    134          1           0        9.202612    1.226087    4.981409
    135          1           0       10.871291    0.778674    6.897062
    136          1           0       10.416100    2.439714    6.478072
    137          1           0       12.073611    1.913333    6.107544
    138          1           0        9.585839   -0.814325    5.019847
    139          1           0       11.309400   -0.820463    5.204514
    140          1           0       10.538211   -0.522264    3.576393
 ---------------------------------------------------------------------

 SCF Done:  E(RCAM-B3LYP) =  -3007.17183886     A.U. after   17 cycles

 Excitation energies and oscillator strengths:

 Excited State   1:      Singlet-A      1.6601 eV  746.84 nm  f=0.3835  <S**2>=0.000
     245 -> 248       -0.17862
     246 -> 247        0.68557
     245 <- 248       -0.10870
 This state for optimization and/or second-order correction.
 Total Energy, E(TD-HF/TD-DFT) =  -3007.11083091
 Copying the excited state density for this state as the 1-particle RhoCI density.

 Excited State   2:      Singlet-A      2.2018 eV  563.09 nm  f=0.0958  <S**2>=0.000
     245 -> 247        0.63173
     246 -> 248        0.30278

 Excited State   3:      Singlet-A      3.2567 eV  380.70 nm  f=0.0008  <S**2>=0.000
     244 -> 247        0.67262

 Excited State   4:      Singlet-A      3.3817 eV  366.63 nm  f=0.0014  <S**2>=0.000
     241 -> 247        0.50277
     241 -> 249       -0.27474
     241 -> 251        0.20458
     242 -> 247        0.27922

 Excited State   5:      Singlet-A      3.4094 eV  363.66 nm  f=0.2138  <S**2>=0.000
     241 -> 247        0.20151
     242 -> 247       -0.44168
     245 -> 247       -0.16956
     246 -> 248        0.44863

 The electronic state is 1-A.
 Alpha  occ. eigenvalues --  -46.89395 -19.26333 -19.25316 -19.21090 -19.19525
 Alpha  occ. eigenvalues --  -19.18610 -19.18180 -14.42726 -14.42493 -14.39964
 Alpha  occ. eigenvalues --  -14.38922 -10.41441 -10.39289 -10.34868 -10.34310
 Alpha  occ. eigenvalues --  -10.31683 -10.31483 -10.31478 -10.31363 -10.31226
 Alpha  occ. eigenvalues --  -10.31223 -10.30845 -10.30181 -10.29760 -10.29444
 Alpha  occ. eigenvalues --  -10.28958 -10.28757 -10.28632 -10.28386 -10.28339
 Alpha  occ. eigenvalues --  -10.28224 -10.28218 -10.28156 -10.28085 -10.27757
 Alpha  occ. eigenvalues --  -10.27563 -10.27448 -10.27447 -10.27205 -10.27200
 Alpha  occ. eigenvalues --  -10.26332 -10.26259 -10.26156 -10.26141 -10.26131
 Alpha  occ. eigenvalues --  -10.26114 -10.25977 -10.25856 -10.25814 -10.25774
 Alpha  occ. eigenvalues --  -10.25551 -10.25517 -10.25414 -10.25334 -10.25213
 Alpha  occ. eigenvalues --  -10.25189 -10.25071 -10.24832 -10.24806 -10.24761
 Alpha  occ. eigenvalues --  -10.24731 -10.24572 -10.24530 -10.24498 -10.24417
 Alpha  occ. eigenvalues --  -10.24142  -3.17761  -1.92686  -1.92201  -1.92058
 Alpha  occ. eigenvalues --   -1.15674  -1.15632  -1.09731  -1.07182  -1.06484
 Alpha  occ. eigenvalues --   -1.05966  -1.04017  -1.03364  -1.02894  -1.01812
 Alpha  occ. eigenvalues --   -0.92087  -0.91090  -0.90553  -0.89859  -0.88909
 Alpha  occ. eigenvalues --   -0.88841  -0.88280  -0.87572  -0.87240  -0.87101
 Alpha  occ. eigenvalues --   -0.85907  -0.85657  -0.84316  -0.83559  -0.83248
 Alpha  occ. eigenvalues --   -0.82595  -0.81679  -0.81538  -0.80842  -0.80263
 Alpha  occ. eigenvalues --   -0.80150  -0.78773  -0.78408  -0.77006  -0.76039
 Alpha  occ. eigenvalues --   -0.75758  -0.75497  -0.75204  -0.75027  -0.74412
 Alpha  occ. eigenvalues --   -0.73665  -0.72446  -0.72006  -0.70612  -0.69712
 Alpha  occ. eigenvalues --   -0.68586  -0.68258  -0.67159  -0.66978  -0.66037
 Alpha  occ. eigenvalues --   -0.65096  -0.64897  -0.64469  -0.64207  -0.64146
 Alpha  occ. eigenvalues --   -0.64024  -0.62911  -0.62641  -0.61598  -0.60569
 Alpha  occ. eigenvalues --   -0.60372  -0.59980  -0.58997  -0.58390  -0.58071
 Alpha  occ. eigenvalues --   -0.57192  -0.56644  -0.56076  -0.55932  -0.55498
 Alpha  occ. eigenvalues --   -0.55110  -0.54868  -0.54683  -0.54393  -0.54379
 Alpha  occ. eigenvalues --   -0.53966  -0.53554  -0.53344  -0.53050  -0.52643
 Alpha  occ. eigenvalues --   -0.52450  -0.52316  -0.52289  -0.52143  -0.51863
 Alpha  occ. eigenvalues --   -0.51740  -0.51444  -0.51054  -0.50978  -0.50536
 Alpha  occ. eigenvalues --   -0.50280  -0.50169  -0.50128  -0.49886  -0.49616
 Alpha  occ. eigenvalues --   -0.49450  -0.49015  -0.48846  -0.48770  -0.48620
 Alpha  occ. eigenvalues --   -0.48452  -0.48323  -0.48151  -0.48042  -0.47826
 Alpha  occ. eigenvalues --   -0.47467  -0.47209  -0.46948  -0.46869  -0.46546
 Alpha  occ. eigenvalues --   -0.46369  -0.46235  -0.46084  -0.46004  -0.45865
 Alpha  occ. eigenvalues --   -0.45623  -0.45553  -0.45399  -0.44875  -0.44754
 Alpha  occ. eigenvalues --   -0.44591  -0.44573  -0.44433  -0.44160  -0.43962
 Alpha  occ. eigenvalues --   -0.43898  -0.43665  -0.43565  -0.43354  -0.43020
 Alpha  occ. eigenvalues --   -0.42883  -0.42582  -0.42508  -0.42343  -0.42163
 Alpha  occ. eigenvalues --   -0.42048  -0.41931  -0.41774  -0.41377  -0.41275
 Alpha  occ. eigenvalues --   -0.41026  -0.40693  -0.40502  -0.40466  -0.40422
 Alpha  occ. eigenvalues --   -0.39896  -0.39629  -0.39134  -0.38744  -0.38552
 Alpha  occ. eigenvalues --   -0.38518  -0.38036  -0.37950  -0.37555  -0.37351
 Alpha  occ. eigenvalues --   -0.37268  -0.37067  -0.36894  -0.36595  -0.36420
 Alpha  occ. eigenvalues --   -0.36249  -0.35461  -0.35120  -0.35046  -0.34622
 Alpha  occ. eigenvalues --   -0.34210  -0.34141  -0.33073  -0.31288  -0.30653
 Alpha  occ. eigenvalues --   -0.30480  -0.29873  -0.29634  -0.29216  -0.24205
 Alpha  occ. eigenvalues --   -0.21107
 Alpha virt. eigenvalues --   -0.08875  -0.02099   0.00086   0.01832   0.02169
 Alpha virt. eigenvalues --    0.02508   0.03878   0.04737   0.05355   0.06521
 Alpha virt. eigenvalues --    0.07860   0.08072   0.08365   0.08775   0.09100

 Mulliken charges:
               1
     1  Mg   0.811363
     2  C   -0.072389
     3  C   -0.085361
     4  C   -0.051019
     5  C   -0.067009
     6  N   -0.286403
     7  C   -0.017936
     8  C   -0.053218
     9  C   -0.053339
    10  C    0.051800
    11  C    0.080543
    12  C    0.081655
    13  C    0.095081
    14  C    0.197519
    15  O   -0.292239
    16  O   -0.334841
    17  N   -0.359575
    18  C    0.141250
    19  C   -0.135063
    20  C   -0.006853
    21  C    0.112239
    22  C    0.118643
    23  C   -0.018827
    24  O   -0.205987
    25  C    0.036689
    26  N   -0.297778
    27  C    0.057430
    28  C   -0.044474
    29  C    0.014086
    30  C    0.029568
    31  C    0.034911
    32  C    0.001906
    33  C    0.016415
    34  N   -0.357191
    35  C    0.113260
    36  C   -0.158873
    37  C   -0.000452
    38  C    0.137195
    39  C    0.139264
    40  C    0.057418
    41  O   -0.217137
    42  C    0.051157
    43  C    0.207090
    44  O   -0.241162
    45  O   -0.338992
    46  C    0.183277
    47  C    0.316687
    48  C   -0.153352
    49  C   -0.182431
    50  C    0.095042
    51  C    0.078831
    52  C   -0.025206
    53  C    0.056833
    54  C   -0.115150
    55  C    0.042410
    56  C    0.057905
    57  C   -0.076367
    58  C    0.118737
    59  C   -0.120956
    60  C    0.047486
    61  C   -0.001628
    62  C    0.006539
    63  C    0.056036
    64  C   -0.174193
    65  C    0.075827
    66  C    0.019316
    67  H   -0.034852
    68  H   -0.000909
    69  H   -0.027241
    70  H    0.027890
    71  H    0.017137
    72  H    0.012636
    73  H    0.030923
    74  H    0.009423
    75  H   -0.005371
    76  H    0.009680
    77  H    0.035372
    78  H    0.028876
    79  H    0.033748
    80  H    0.010588
    81  H    0.024320
    82  H    0.045634
    83  H    0.016703
    84  H    0.007712
    85  H    0.030329
    86  H    0.003805
    87  H    0.019762
    88  H    0.033593
    89  H    0.014056
    90  H    0.005962
    91  H    0.000567
    92  H    0.016001
    93  H    0.016449
    94  H    0.009478
    95  H    0.000055
    96  H    0.044341
    97  H    0.034453
    98  H    0.035712
    99  H    0.052795
   100  H    0.047270
   101  H    0.040442
   102  H    0.037341
   103  H   -0.009991
   104  H   -0.001437
   105  H    0.023999
   106  H    0.033693
   107  H    0.019994
   108  H   -0.008099
   109  H    0.024597
   110  H   -0.000067
   111  H    0.006966
   112  H    0.004413
   113  H   -0.009892
   114  H   -0.003716
   115  H    0.005856
   116  H    0.009687
   117  H    0.007436
   118  H   -0.001608
   119  H   -0.006985
   120  H    0.002508
   121  H   -0.003535
   122  H   -0.021298
   123  H   -0.002811
   124  H   -0.004955
   125  H    0.007842
   126  H    0.018821
   127  H   -0.004591
   128  H    0.002804
   129  H   -0.008337
   130  H   -0.005715
   131  H   -0.003558
   132  H   -0.008144
   133  H    0.006978
   134  H    0.001067
   135  H    0.004998
   136  H    0.001255
   137  H    0.023527
   138  H   -0.002423
   139  H    0.012371
   140  H    0.007661
 Sum of Mulliken charges =  -0.00000

 Dipole moment (field-independent basis, Debye):
    X=              4.1854    Y=              2.8815    Z=             -2.9162  Tot=              5.8588
 Quadrupole moment (field-independent basis, Debye-Ang):
   XX=           -386.1698   YY=           -440.8140   ZZ=           -407.5991
   XY=            -10.6466   XZ=              7.8282   YZ=              9.7840

 Normal termination of Gaussian 16 at Sat Apr 30 22:20:36 2022.
