 Gaussian 16, Revision A.03,
 Gaussian 16:  ES64L-G16RevA.03 25-Dec-2016

 ---------------------------------
 #p PBE1PBE/Def2SVP td=(nstates=5)
 ---------------------------------

 ----------------------------------------------------
 step_901_chromophore_9 TDDFT with PBE1PBE functional
 ----------------------------------------------------
 Symbolic Z-matrix:
 Charge =  0 Multiplicity = 1

                         Standard orientation:
 ---------------------------------------------------------------------
 Center     Atomic      Atomic             Coordinates (Angstroms)
 Number     Number       Type             X           Y           Z
 ---------------------------------------------------------------------
      1         12           0       -5.019061    0.752464   -0.237587
      2          6           0       -3.788793   -2.618715    0.064641
      3          6           0       -1.719934    1.752712   -0.263436
      4          6           0       -6.068226    3.904644    0.050726
      5          6           0       -8.252787   -0.512476    0.437744
      6          7           0       -3.055149   -0.289339   -0.021568
      7          6           0       -2.773133   -1.656413   -0.080823
      8          6           0       -1.314304   -1.973994   -0.238668
      9          6           0       -0.614647   -0.514861    0.088334
     10          6           0       -1.838863    0.356042   -0.076015
     11          6           0        0.140473   -0.420925    1.429063
     12          6           0       -1.045795   -2.506811   -1.579800
     13          6           0        0.298320   -3.209636   -1.758171
     14          6           0        1.413201   -3.088884   -0.722822
     15          8           0        1.751499   -3.951637    0.184837
     16          8           0        2.125013   -1.904743   -0.945552
     17          7           0       -4.067160    2.656700   -0.399571
     18          6           0       -2.697080    2.811866   -0.297632
     19          6           0       -2.407713    4.268923   -0.276177
     20          6           0       -3.710343    4.925119   -0.248732
     21          6           0       -4.687919    3.811178   -0.122245
     22          6           0       -1.026901    4.784825   -0.272775
     23          6           0       -4.002144    6.347682   -0.141204
     24          8           0       -5.117885    6.836855   -0.049176
     25          6           0       -2.857069    7.323163   -0.095753
     26          7           0       -6.940050    1.562274    0.012990
     27          6           0       -7.071561    2.914136    0.067064
     28          6           0       -8.581247    3.324785    0.184143
     29          6           0       -9.281993    1.905426    0.317116
     30          6           0       -8.078750    0.899793    0.295807
     31          6           0       -8.809706    4.353737    1.400425
     32          6           0      -10.289870    1.700809   -0.809638
     33          6           0       -9.797866    1.137505   -2.123391
     34          7           0       -5.888347   -1.139486    0.264706
     35          6           0       -7.256071   -1.488190    0.399342
     36          6           0       -7.365804   -2.941004    0.537384
     37          6           0       -6.026470   -3.360882    0.393586
     38          6           0       -5.152665   -2.279441    0.272959
     39          6           0       -8.620352   -3.726074    0.840724
     40          6           0       -5.238370   -4.602419    0.388033
     41          8           0       -5.678958   -5.777201    0.561019
     42          6           0       -3.754366   -4.177220    0.142408
     43          6           0       -2.946644   -4.736283    1.280823
     44          8           0       -3.123970   -4.435755    2.474183
     45          8           0       -1.883870   -5.446752    0.791160
     46          6           0       -1.111161   -6.113839    1.873942
     47          6           0        3.189467   -1.651101    0.006182
     48          6           0        4.445613   -1.421229   -0.748285
     49          6           0        5.531729   -2.250870   -0.946333
     50          6           0        5.658145   -3.709547   -0.680161
     51          6           0        6.835621   -1.545845   -1.391294
     52          6           0        6.612991   -0.672962   -2.640683
     53          6           0        7.526451   -1.099327   -3.859670
     54          6           0        8.559950    0.024728   -4.227286
     55          6           0        8.887853   -0.069981   -5.744226
     56          6           0        9.861257    0.033674   -3.355233
     57          6           0        9.794124    1.238501   -2.337436
     58          6           0       10.942295    1.333466   -1.394983
     59          6           0       10.637383    2.201806   -0.186469
     60          6           0       11.663424    3.405751    0.003972
     61          6           0       10.707251    1.303025    1.110878
     62          6           0        9.976191    1.791966    2.445140
     63          6           0       10.848265    1.963321    3.711056
     64          6           0       10.289673    1.184465    4.920442
     65          6           0       11.035406    1.590915    6.188401
     66          6           0       10.498429   -0.345904    4.651609
     67          1           0       -0.690747    2.098526   -0.381405
     68          1           0       -6.406063    4.922601    0.256413
     69          1           0       -9.270784   -0.890794    0.547323
     70          1           0       -1.022652   -2.688385    0.531671
     71          1           0        0.116765   -0.275795   -0.683097
     72          1           0        1.138269    0.008309    1.352505
     73          1           0        0.151869   -1.333095    2.025661
     74          1           0       -0.391749    0.275910    2.077226
     75          1           0       -1.134567   -1.719478   -2.329717
     76          1           0       -1.795606   -3.188515   -1.980408
     77          1           0        0.617825   -3.060663   -2.789305
     78          1           0        0.014737   -4.259511   -1.692337
     79          1           0       -0.829260    5.348695   -1.184805
     80          1           0       -0.320681    3.959472   -0.183112
     81          1           0       -0.846403    5.515826    0.515144
     82          1           0       -2.289735    7.379372    0.832920
     83          1           0       -3.151019    8.344110   -0.339436
     84          1           0       -2.190237    7.088554   -0.926191
     85          1           0       -8.823556    3.852544   -0.738749
     86          1           0       -9.879943    1.747301    1.214493
     87          1           0       -8.984379    5.324813    0.936420
     88          1           0       -7.974623    4.461778    2.092297
     89          1           0       -9.712186    4.194186    1.991566
     90          1           0      -10.745407    2.671282   -1.008689
     91          1           0      -11.086507    1.070978   -0.413785
     92          1           0       -8.715441    1.009482   -2.160475
     93          1           0      -10.077059    1.737742   -2.989121
     94          1           0      -10.127056    0.105967   -2.244012
     95          1           0       -9.426879   -3.015883    1.024809
     96          1           0       -8.494584   -4.384707    1.698976
     97          1           0       -8.883783   -4.350492   -0.013250
     98          1           0       -3.415955   -4.542401   -0.827124
     99          1           0       -1.756361   -6.667611    2.556384
    100          1           0       -0.507654   -5.358389    2.377532
    101          1           0       -0.501892   -6.768432    1.251902
    102          1           0        3.318173   -2.280142    0.886014
    103          1           0        2.994723   -0.671973    0.444440
    104          1           0        4.536214   -0.366993   -1.011403
    105          1           0        5.889970   -4.095413   -1.672859
    106          1           0        4.816558   -4.191160   -0.181855
    107          1           0        6.546200   -3.937501   -0.089438
    108          1           0        7.594047   -2.300591   -1.600186
    109          1           0        7.165308   -0.889232   -0.586315
    110          1           0        6.649303    0.404808   -2.484519
    111          1           0        5.566639   -0.825731   -2.903959
    112          1           0        6.883094   -1.545682   -4.617652
    113          1           0        8.155605   -1.904467   -3.478616
    114          1           0        8.109717    1.002988   -4.057521
    115          1           0        8.023183    0.316952   -6.284354
    116          1           0        8.991592   -1.136910   -5.939876
    117          1           0        9.763238    0.488010   -6.075221
    118          1           0       10.773704    0.174629   -3.936133
    119          1           0        9.921684   -0.864350   -2.741611
    120          1           0        8.824326    1.344144   -1.850556
    121          1           0        9.852476    2.069991   -3.040029
    122          1           0       11.692049    1.822473   -2.016048
    123          1           0       11.372067    0.367293   -1.132288
    124          1           0        9.657709    2.675206   -0.252589
    125          1           0       12.479901    3.357388   -0.716450
    126          1           0       11.925757    3.524500    1.054517
    127          1           0       11.115582    4.284392   -0.337408
    128          1           0       11.737024    0.991965    1.281908
    129          1           0       10.165471    0.399468    0.830483
    130          1           0        9.248900    1.010446    2.666994
    131          1           0        9.424661    2.713091    2.258704
    132          1           0       10.661106    3.024497    3.875900
    133          1           0       11.879517    1.702348    3.472605
    134          1           0        9.202612    1.226087    4.981409
    135          1           0       10.871291    0.778674    6.897062
    136          1           0       10.416100    2.439714    6.478072
    137          1           0       12.073611    1.913333    6.107544
    138          1           0        9.585839   -0.814325    5.019847
    139          1           0       11.309400   -0.820463    5.204514
    140          1           0       10.538211   -0.522264    3.576393
 ---------------------------------------------------------------------

 SCF Done:  E(RPBE1PBE) =  -3005.36218048     A.U. after   16 cycles

 Excitation energies and oscillator strengths:

 Excited State   1:      Singlet-A      1.8252 eV  679.28 nm  f=0.3707  <S**2>=0.000
     245 -> 248       -0.17094
     246 -> 247        0.69301
     246 <- 247       -0.10963
 This state for optimization and/or second-order correction.
 Total Energy, E(TD-HF/TD-DFT) =  -3005.29510435
 Copying the excited state density for this state as the 1-particle RhoCI density.

 Excited State   2:      Singlet-A      2.2070 eV  561.78 nm  f=0.0972  <S**2>=0.000
     245 -> 247        0.64532
     246 -> 248        0.27042

 Excited State   3:      Singlet-A      2.8515 eV  434.80 nm  f=0.0015  <S**2>=0.000
     241 -> 247        0.39456
     241 -> 249        0.13069
     244 -> 247        0.54150

 Excited State   4:      Singlet-A      2.9220 eV  424.31 nm  f=0.0024  <S**2>=0.000
     240 -> 247       -0.18542
     241 -> 247       -0.12416
     242 -> 247        0.63539
     242 -> 249       -0.11406

 Excited State   5:      Singlet-A      2.9503 eV  420.24 nm  f=0.0015  <S**2>=0.000
     241 -> 247        0.53438
     244 -> 247       -0.42900

 The electronic state is 1-A.
 Alpha  occ. eigenvalues --  -46.92787 -19.27011 -19.25967 -19.21404 -19.19782
 Alpha  occ. eigenvalues --  -19.18877 -19.18354 -14.42295 -14.41973 -14.39581
 Alpha  occ. eigenvalues --  -14.38640 -10.38499 -10.36320 -10.32060 -10.31348
 Alpha  occ. eigenvalues --  -10.29230 -10.29191 -10.29171 -10.29086 -10.28974
 Alpha  occ. eigenvalues --  -10.28524 -10.28446 -10.27837 -10.27548 -10.27067
 Alpha  occ. eigenvalues --  -10.26579 -10.26567 -10.26326 -10.26219 -10.26178
 Alpha  occ. eigenvalues --  -10.26075 -10.25850 -10.25790 -10.25701 -10.25408
 Alpha  occ. eigenvalues --  -10.25331 -10.25152 -10.25047 -10.24890 -10.24594
 Alpha  occ. eigenvalues --  -10.23871 -10.23788 -10.23781 -10.23727 -10.23696
 Alpha  occ. eigenvalues --  -10.23651 -10.23549 -10.23481 -10.23478 -10.23294
 Alpha  occ. eigenvalues --  -10.23182 -10.23138 -10.22916 -10.22830 -10.22787
 Alpha  occ. eigenvalues --  -10.22645 -10.22631 -10.22519 -10.22375 -10.22282
 Alpha  occ. eigenvalues --  -10.22209 -10.21979 -10.21964 -10.21936 -10.21881
 Alpha  occ. eigenvalues --  -10.21546  -3.14739  -1.87604  -1.87098  -1.86957
 Alpha  occ. eigenvalues --   -1.10460  -1.10403  -1.04413  -1.01915  -1.01282
 Alpha  occ. eigenvalues --   -1.00771  -0.98622  -0.97958  -0.97554  -0.96506
 Alpha  occ. eigenvalues --   -0.86425  -0.85311  -0.84699  -0.83971  -0.83099
 Alpha  occ. eigenvalues --   -0.83007  -0.82545  -0.81702  -0.81507  -0.81411
 Alpha  occ. eigenvalues --   -0.80235  -0.79931  -0.78554  -0.77802  -0.77504
 Alpha  occ. eigenvalues --   -0.76829  -0.75885  -0.75714  -0.75133  -0.74480
 Alpha  occ. eigenvalues --   -0.74381  -0.73021  -0.72675  -0.71320  -0.70358
 Alpha  occ. eigenvalues --   -0.69970  -0.69578  -0.69546  -0.69148  -0.68584
 Alpha  occ. eigenvalues --   -0.67995  -0.66888  -0.66446  -0.64951  -0.64057
 Alpha  occ. eigenvalues --   -0.62964  -0.62478  -0.61657  -0.61207  -0.60525
 Alpha  occ. eigenvalues --   -0.59474  -0.59254  -0.58977  -0.58704  -0.58567
 Alpha  occ. eigenvalues --   -0.58326  -0.57052  -0.56854  -0.56174  -0.55043
 Alpha  occ. eigenvalues --   -0.54892  -0.54390  -0.53599  -0.53019  -0.52481
 Alpha  occ. eigenvalues --   -0.51706  -0.51184  -0.50634  -0.50509  -0.50010
 Alpha  occ. eigenvalues --   -0.49631  -0.49355  -0.49106  -0.48857  -0.48742
 Alpha  occ. eigenvalues --   -0.48526  -0.48066  -0.47922  -0.47628  -0.47247
 Alpha  occ. eigenvalues --   -0.46981  -0.46807  -0.46740  -0.46634  -0.46482
 Alpha  occ. eigenvalues --   -0.46255  -0.45975  -0.45661  -0.45508  -0.45097
 Alpha  occ. eigenvalues --   -0.44842  -0.44691  -0.44651  -0.44492  -0.44158
 Alpha  occ. eigenvalues --   -0.44023  -0.43591  -0.43460  -0.43358  -0.43203
 Alpha  occ. eigenvalues --   -0.43076  -0.42949  -0.42806  -0.42658  -0.42443
 Alpha  occ. eigenvalues --   -0.42097  -0.41927  -0.41612  -0.41536  -0.41280
 Alpha  occ. eigenvalues --   -0.41080  -0.40858  -0.40784  -0.40711  -0.40572
 Alpha  occ. eigenvalues --   -0.40326  -0.40240  -0.40123  -0.39605  -0.39524
 Alpha  occ. eigenvalues --   -0.39322  -0.39257  -0.39181  -0.38876  -0.38736
 Alpha  occ. eigenvalues --   -0.38724  -0.38437  -0.38344  -0.38130  -0.37772
 Alpha  occ. eigenvalues --   -0.37733  -0.37357  -0.37235  -0.37159  -0.37000
 Alpha  occ. eigenvalues --   -0.36834  -0.36700  -0.36605  -0.36179  -0.36056
 Alpha  occ. eigenvalues --   -0.35828  -0.35543  -0.35345  -0.35290  -0.35260
 Alpha  occ. eigenvalues --   -0.34843  -0.34453  -0.33961  -0.33518  -0.33471
 Alpha  occ. eigenvalues --   -0.33285  -0.32936  -0.32838  -0.32414  -0.32297
 Alpha  occ. eigenvalues --   -0.32134  -0.32127  -0.31850  -0.31656  -0.31379
 Alpha  occ. eigenvalues --   -0.31262  -0.30381  -0.30077  -0.29796  -0.29532
 Alpha  occ. eigenvalues --   -0.29461  -0.29014  -0.28570  -0.26922  -0.25660
 Alpha  occ. eigenvalues --   -0.25348  -0.25214  -0.24986  -0.24836  -0.21129
 Alpha  occ. eigenvalues --   -0.18804
 Alpha virt. eigenvalues --   -0.11332  -0.05607  -0.04080  -0.02690  -0.02237
 Alpha virt. eigenvalues --   -0.00608  -0.00377   0.00122   0.01047   0.03038
 Alpha virt. eigenvalues --    0.04097   0.04402   0.04817   0.05120   0.05414

 Mulliken charges:
               1
     1  Mg   0.955085
     2  C   -0.072765
     3  C   -0.078478
     4  C   -0.044241
     5  C   -0.059962
     6  N   -0.385475
     7  C    0.039149
     8  C   -0.129824
     9  C   -0.123656
    10  C    0.083132
    11  C    0.024701
    12  C    0.036863
    13  C    0.026889
    14  C    0.250852
    15  O   -0.322972
    16  O   -0.360492
    17  N   -0.468083
    18  C    0.164128
    19  C   -0.167414
    20  C   -0.048526
    21  C    0.141998
    22  C    0.057164
    23  C    0.030396
    24  O   -0.244894
    25  C   -0.035929
    26  N   -0.407046
    27  C    0.093266
    28  C   -0.119646
    29  C   -0.055330
    30  C    0.063778
    31  C   -0.023934
    32  C   -0.058849
    33  C   -0.056546
    34  N   -0.478813
    35  C    0.132735
    36  C   -0.173779
    37  C   -0.058062
    38  C    0.197697
    39  C    0.085137
    40  C    0.151621
    41  O   -0.261203
    42  C   -0.056535
    43  C    0.294246
    44  O   -0.273332
    45  O   -0.370209
    46  C    0.127571
    47  C    0.268931
    48  C   -0.163001
    49  C   -0.223883
    50  C    0.029447
    51  C    0.018213
    52  C   -0.086067
    53  C    0.003297
    54  C   -0.203779
    55  C   -0.019983
    56  C    0.010656
    57  C   -0.144338
    58  C    0.064932
    59  C   -0.205105
    60  C   -0.011843
    61  C   -0.058168
    62  C   -0.052231
    63  C   -0.001305
    64  C   -0.268543
    65  C    0.012369
    66  C   -0.041449
    67  H   -0.001641
    68  H    0.030662
    69  H    0.004418
    70  H    0.069739
    71  H    0.053568
    72  H    0.040155
    73  H    0.056813
    74  H    0.038176
    75  H    0.027407
    76  H    0.042938
    77  H    0.065995
    78  H    0.061360
    79  H    0.061511
    80  H    0.038357
    81  H    0.052612
    82  H    0.071154
    83  H    0.044568
    84  H    0.035307
    85  H    0.066254
    86  H    0.040248
    87  H    0.047098
    88  H    0.060685
    89  H    0.041969
    90  H    0.039780
    91  H    0.032794
    92  H    0.047317
    93  H    0.044194
    94  H    0.037527
    95  H    0.027777
    96  H    0.071133
    97  H    0.062064
    98  H    0.072936
    99  H    0.074249
   100  H    0.068803
   101  H    0.061683
   102  H    0.062861
   103  H    0.019743
   104  H    0.027831
   105  H    0.053385
   106  H    0.060641
   107  H    0.047882
   108  H    0.022769
   109  H    0.058490
   110  H    0.029885
   111  H    0.041391
   112  H    0.035387
   113  H    0.023358
   114  H    0.034576
   115  H    0.034853
   116  H    0.037915
   117  H    0.034906
   118  H    0.030084
   119  H    0.025869
   120  H    0.036272
   121  H    0.031662
   122  H    0.012737
   123  H    0.027669
   124  H    0.031206
   125  H    0.034464
   126  H    0.047521
   127  H    0.023696
   128  H    0.034131
   129  H    0.026323
   130  H    0.027113
   131  H    0.028463
   132  H    0.026177
   133  H    0.037926
   134  H    0.037151
   135  H    0.033520
   136  H    0.030914
   137  H    0.049880
   138  H    0.026139
   139  H    0.039760
   140  H    0.037279
 Sum of Mulliken charges =  -0.00000

 Dipole moment (field-independent basis, Debye):
    X=              4.1582    Y=              2.8273    Z=             -2.9378  Tot=              5.8237
 Quadrupole moment (field-independent basis, Debye-Ang):
   XX=           -379.7791   YY=           -438.4953   ZZ=           -405.0499
   XY=            -10.9197   XZ=              7.4519   YZ=              9.7752

 Normal termination of Gaussian 16 at Sat Apr 30 22:42:45 2022.
