 Gaussian 16, Revision A.03,
 Gaussian 16:  ES64L-G16RevA.03 25-Dec-2016

 --------------------------------
 #p wB97XD/Def2SVP td=(nstates=5)
 --------------------------------

 ---------------------------------------------------
 step_901_chromophore_9 TDDFT with wB97XD functional
 ---------------------------------------------------
 Symbolic Z-matrix:
 Charge =  0 Multiplicity = 1

                         Standard orientation:
 ---------------------------------------------------------------------
 Center     Atomic      Atomic             Coordinates (Angstroms)
 Number     Number       Type             X           Y           Z
 ---------------------------------------------------------------------
      1         12           0       -5.019061    0.752464   -0.237587
      2          6           0       -3.788793   -2.618715    0.064641
      3          6           0       -1.719934    1.752712   -0.263436
      4          6           0       -6.068226    3.904644    0.050726
      5          6           0       -8.252787   -0.512476    0.437744
      6          7           0       -3.055149   -0.289339   -0.021568
      7          6           0       -2.773133   -1.656413   -0.080823
      8          6           0       -1.314304   -1.973994   -0.238668
      9          6           0       -0.614647   -0.514861    0.088334
     10          6           0       -1.838863    0.356042   -0.076015
     11          6           0        0.140473   -0.420925    1.429063
     12          6           0       -1.045795   -2.506811   -1.579800
     13          6           0        0.298320   -3.209636   -1.758171
     14          6           0        1.413201   -3.088884   -0.722822
     15          8           0        1.751499   -3.951637    0.184837
     16          8           0        2.125013   -1.904743   -0.945552
     17          7           0       -4.067160    2.656700   -0.399571
     18          6           0       -2.697080    2.811866   -0.297632
     19          6           0       -2.407713    4.268923   -0.276177
     20          6           0       -3.710343    4.925119   -0.248732
     21          6           0       -4.687919    3.811178   -0.122245
     22          6           0       -1.026901    4.784825   -0.272775
     23          6           0       -4.002144    6.347682   -0.141204
     24          8           0       -5.117885    6.836855   -0.049176
     25          6           0       -2.857069    7.323163   -0.095753
     26          7           0       -6.940050    1.562274    0.012990
     27          6           0       -7.071561    2.914136    0.067064
     28          6           0       -8.581247    3.324785    0.184143
     29          6           0       -9.281993    1.905426    0.317116
     30          6           0       -8.078750    0.899793    0.295807
     31          6           0       -8.809706    4.353737    1.400425
     32          6           0      -10.289870    1.700809   -0.809638
     33          6           0       -9.797866    1.137505   -2.123391
     34          7           0       -5.888347   -1.139486    0.264706
     35          6           0       -7.256071   -1.488190    0.399342
     36          6           0       -7.365804   -2.941004    0.537384
     37          6           0       -6.026470   -3.360882    0.393586
     38          6           0       -5.152665   -2.279441    0.272959
     39          6           0       -8.620352   -3.726074    0.840724
     40          6           0       -5.238370   -4.602419    0.388033
     41          8           0       -5.678958   -5.777201    0.561019
     42          6           0       -3.754366   -4.177220    0.142408
     43          6           0       -2.946644   -4.736283    1.280823
     44          8           0       -3.123970   -4.435755    2.474183
     45          8           0       -1.883870   -5.446752    0.791160
     46          6           0       -1.111161   -6.113839    1.873942
     47          6           0        3.189467   -1.651101    0.006182
     48          6           0        4.445613   -1.421229   -0.748285
     49          6           0        5.531729   -2.250870   -0.946333
     50          6           0        5.658145   -3.709547   -0.680161
     51          6           0        6.835621   -1.545845   -1.391294
     52          6           0        6.612991   -0.672962   -2.640683
     53          6           0        7.526451   -1.099327   -3.859670
     54          6           0        8.559950    0.024728   -4.227286
     55          6           0        8.887853   -0.069981   -5.744226
     56          6           0        9.861257    0.033674   -3.355233
     57          6           0        9.794124    1.238501   -2.337436
     58          6           0       10.942295    1.333466   -1.394983
     59          6           0       10.637383    2.201806   -0.186469
     60          6           0       11.663424    3.405751    0.003972
     61          6           0       10.707251    1.303025    1.110878
     62          6           0        9.976191    1.791966    2.445140
     63          6           0       10.848265    1.963321    3.711056
     64          6           0       10.289673    1.184465    4.920442
     65          6           0       11.035406    1.590915    6.188401
     66          6           0       10.498429   -0.345904    4.651609
     67          1           0       -0.690747    2.098526   -0.381405
     68          1           0       -6.406063    4.922601    0.256413
     69          1           0       -9.270784   -0.890794    0.547323
     70          1           0       -1.022652   -2.688385    0.531671
     71          1           0        0.116765   -0.275795   -0.683097
     72          1           0        1.138269    0.008309    1.352505
     73          1           0        0.151869   -1.333095    2.025661
     74          1           0       -0.391749    0.275910    2.077226
     75          1           0       -1.134567   -1.719478   -2.329717
     76          1           0       -1.795606   -3.188515   -1.980408
     77          1           0        0.617825   -3.060663   -2.789305
     78          1           0        0.014737   -4.259511   -1.692337
     79          1           0       -0.829260    5.348695   -1.184805
     80          1           0       -0.320681    3.959472   -0.183112
     81          1           0       -0.846403    5.515826    0.515144
     82          1           0       -2.289735    7.379372    0.832920
     83          1           0       -3.151019    8.344110   -0.339436
     84          1           0       -2.190237    7.088554   -0.926191
     85          1           0       -8.823556    3.852544   -0.738749
     86          1           0       -9.879943    1.747301    1.214493
     87          1           0       -8.984379    5.324813    0.936420
     88          1           0       -7.974623    4.461778    2.092297
     89          1           0       -9.712186    4.194186    1.991566
     90          1           0      -10.745407    2.671282   -1.008689
     91          1           0      -11.086507    1.070978   -0.413785
     92          1           0       -8.715441    1.009482   -2.160475
     93          1           0      -10.077059    1.737742   -2.989121
     94          1           0      -10.127056    0.105967   -2.244012
     95          1           0       -9.426879   -3.015883    1.024809
     96          1           0       -8.494584   -4.384707    1.698976
     97          1           0       -8.883783   -4.350492   -0.013250
     98          1           0       -3.415955   -4.542401   -0.827124
     99          1           0       -1.756361   -6.667611    2.556384
    100          1           0       -0.507654   -5.358389    2.377532
    101          1           0       -0.501892   -6.768432    1.251902
    102          1           0        3.318173   -2.280142    0.886014
    103          1           0        2.994723   -0.671973    0.444440
    104          1           0        4.536214   -0.366993   -1.011403
    105          1           0        5.889970   -4.095413   -1.672859
    106          1           0        4.816558   -4.191160   -0.181855
    107          1           0        6.546200   -3.937501   -0.089438
    108          1           0        7.594047   -2.300591   -1.600186
    109          1           0        7.165308   -0.889232   -0.586315
    110          1           0        6.649303    0.404808   -2.484519
    111          1           0        5.566639   -0.825731   -2.903959
    112          1           0        6.883094   -1.545682   -4.617652
    113          1           0        8.155605   -1.904467   -3.478616
    114          1           0        8.109717    1.002988   -4.057521
    115          1           0        8.023183    0.316952   -6.284354
    116          1           0        8.991592   -1.136910   -5.939876
    117          1           0        9.763238    0.488010   -6.075221
    118          1           0       10.773704    0.174629   -3.936133
    119          1           0        9.921684   -0.864350   -2.741611
    120          1           0        8.824326    1.344144   -1.850556
    121          1           0        9.852476    2.069991   -3.040029
    122          1           0       11.692049    1.822473   -2.016048
    123          1           0       11.372067    0.367293   -1.132288
    124          1           0        9.657709    2.675206   -0.252589
    125          1           0       12.479901    3.357388   -0.716450
    126          1           0       11.925757    3.524500    1.054517
    127          1           0       11.115582    4.284392   -0.337408
    128          1           0       11.737024    0.991965    1.281908
    129          1           0       10.165471    0.399468    0.830483
    130          1           0        9.248900    1.010446    2.666994
    131          1           0        9.424661    2.713091    2.258704
    132          1           0       10.661106    3.024497    3.875900
    133          1           0       11.879517    1.702348    3.472605
    134          1           0        9.202612    1.226087    4.981409
    135          1           0       10.871291    0.778674    6.897062
    136          1           0       10.416100    2.439714    6.478072
    137          1           0       12.073611    1.913333    6.107544
    138          1           0        9.585839   -0.814325    5.019847
    139          1           0       11.309400   -0.820463    5.204514
    140          1           0       10.538211   -0.522264    3.576393
 ---------------------------------------------------------------------

 SCF Done:  E(RwB97XD) =  -3007.87332787     A.U. after   20 cycles

 Excitation energies and oscillator strengths:

 Excited State   1:      Singlet-A      1.5992 eV  775.30 nm  f=0.3817  <S**2>=0.000
     245 -> 248       -0.18513
     246 -> 247        0.68323
     245 <- 248       -0.11873
 This state for optimization and/or second-order correction.
 Total Energy, E(TD-HF/TD-DFT) =  -3007.81455921
 Copying the excited state density for this state as the 1-particle RhoCI density.

 Excited State   2:      Singlet-A      2.1441 eV  578.25 nm  f=0.0925  <S**2>=0.000
     245 -> 247        0.62953
     246 -> 248        0.30593

 Excited State   3:      Singlet-A      3.2800 eV  378.00 nm  f=0.0001  <S**2>=0.000
     244 -> 247        0.66560

 Excited State   4:      Singlet-A      3.4074 eV  363.87 nm  f=0.0087  <S**2>=0.000
     241 -> 247        0.45747
     241 -> 249       -0.28279
     241 -> 251       -0.18554
     242 -> 247        0.34075

 Excited State   5:      Singlet-A      3.4257 eV  361.92 nm  f=0.2545  <S**2>=0.000
     241 -> 247        0.25465
     241 -> 249       -0.11181
     242 -> 247       -0.37412
     245 -> 247       -0.17970
     246 -> 248        0.45990

 The electronic state is 1-A.
 Alpha  occ. eigenvalues --  -46.95730 -19.31554 -19.30529 -19.26045 -19.24484
 Alpha  occ. eigenvalues --  -19.23703 -19.23216 -14.47333 -14.47082 -14.44560
 Alpha  occ. eigenvalues --  -14.43534 -10.45294 -10.43146 -10.38924 -10.38261
 Alpha  occ. eigenvalues --  -10.35585 -10.35519 -10.35516 -10.35367 -10.35251
 Alpha  occ. eigenvalues --  -10.34954 -10.34913 -10.34206 -10.33784 -10.33619
 Alpha  occ. eigenvalues --  -10.33009 -10.32830 -10.32628 -10.32470 -10.32442
 Alpha  occ. eigenvalues --  -10.32275 -10.32223 -10.32167 -10.32114 -10.31705
 Alpha  occ. eigenvalues --  -10.31592 -10.31513 -10.31497 -10.31319 -10.31146
 Alpha  occ. eigenvalues --  -10.30229 -10.30204 -10.30139 -10.30076 -10.30071
 Alpha  occ. eigenvalues --  -10.29989 -10.29966 -10.29761 -10.29749 -10.29650
 Alpha  occ. eigenvalues --  -10.29517 -10.29472 -10.29281 -10.29279 -10.29177
 Alpha  occ. eigenvalues --  -10.29139 -10.28993 -10.28806 -10.28750 -10.28643
 Alpha  occ. eigenvalues --  -10.28605 -10.28412 -10.28355 -10.28332 -10.28305
 Alpha  occ. eigenvalues --  -10.27958  -3.21556  -1.95167  -1.94659  -1.94519
 Alpha  occ. eigenvalues --   -1.17843  -1.17805  -1.11948  -1.09402  -1.08701
 Alpha  occ. eigenvalues --   -1.08142  -1.06011  -1.05358  -1.04934  -1.03850
 Alpha  occ. eigenvalues --   -0.94046  -0.92945  -0.92354  -0.91631  -0.90739
 Alpha  occ. eigenvalues --   -0.90668  -0.90157  -0.89362  -0.89184  -0.89023
 Alpha  occ. eigenvalues --   -0.87852  -0.87557  -0.86197  -0.85444  -0.85141
 Alpha  occ. eigenvalues --   -0.84472  -0.83567  -0.83399  -0.82776  -0.82127
 Alpha  occ. eigenvalues --   -0.82046  -0.80686  -0.80362  -0.78920  -0.77985
 Alpha  occ. eigenvalues --   -0.77619  -0.77274  -0.77125  -0.76837  -0.76247
 Alpha  occ. eigenvalues --   -0.75588  -0.74427  -0.73978  -0.72544  -0.71611
 Alpha  occ. eigenvalues --   -0.70570  -0.70126  -0.69175  -0.68845  -0.68019
 Alpha  occ. eigenvalues --   -0.66923  -0.66885  -0.66441  -0.66169  -0.66042
 Alpha  occ. eigenvalues --   -0.65962  -0.64723  -0.64481  -0.63588  -0.62513
 Alpha  occ. eigenvalues --   -0.62371  -0.61883  -0.60993  -0.60385  -0.60017
 Alpha  occ. eigenvalues --   -0.59128  -0.58608  -0.58036  -0.57891  -0.57417
 Alpha  occ. eigenvalues --   -0.57028  -0.56792  -0.56574  -0.56292  -0.56208
 Alpha  occ. eigenvalues --   -0.55893  -0.55446  -0.55272  -0.54977  -0.54567
 Alpha  occ. eigenvalues --   -0.54378  -0.54238  -0.54185  -0.54084  -0.53763
 Alpha  occ. eigenvalues --   -0.53626  -0.53329  -0.52999  -0.52870  -0.52428
 Alpha  occ. eigenvalues --   -0.52182  -0.52067  -0.51983  -0.51797  -0.51578
 Alpha  occ. eigenvalues --   -0.51415  -0.50944  -0.50764  -0.50661  -0.50509
 Alpha  occ. eigenvalues --   -0.50357  -0.50246  -0.50110  -0.49986  -0.49700
 Alpha  occ. eigenvalues --   -0.49424  -0.49120  -0.48829  -0.48751  -0.48483
 Alpha  occ. eigenvalues --   -0.48279  -0.48092  -0.47971  -0.47927  -0.47788
 Alpha  occ. eigenvalues --   -0.47505  -0.47431  -0.47303  -0.46770  -0.46655
 Alpha  occ. eigenvalues --   -0.46483  -0.46429  -0.46346  -0.46033  -0.45862
 Alpha  occ. eigenvalues --   -0.45816  -0.45586  -0.45462  -0.45271  -0.44923
 Alpha  occ. eigenvalues --   -0.44812  -0.44488  -0.44388  -0.44287  -0.44149
 Alpha  occ. eigenvalues --   -0.43955  -0.43816  -0.43756  -0.43321  -0.43169
 Alpha  occ. eigenvalues --   -0.42896  -0.42595  -0.42393  -0.42336  -0.42304
 Alpha  occ. eigenvalues --   -0.41777  -0.41491  -0.41010  -0.40574  -0.40433
 Alpha  occ. eigenvalues --   -0.40344  -0.39882  -0.39869  -0.39402  -0.39289
 Alpha  occ. eigenvalues --   -0.39200  -0.39108  -0.38807  -0.38521  -0.38461
 Alpha  occ. eigenvalues --   -0.38202  -0.37302  -0.36953  -0.36927  -0.36456
 Alpha  occ. eigenvalues --   -0.36227  -0.36085  -0.35308  -0.33498  -0.32637
 Alpha  occ. eigenvalues --   -0.32455  -0.32040  -0.31672  -0.31383  -0.26123
 Alpha  occ. eigenvalues --   -0.22899
 Alpha virt. eigenvalues --   -0.07235  -0.00192   0.02139   0.04039   0.04311
 Alpha virt. eigenvalues --    0.05599   0.06142   0.06887   0.07713   0.09372
 Alpha virt. eigenvalues --    0.10662   0.11142   0.11585   0.11918   0.12213

 Mulliken charges:
               1
     1  Mg   0.945928
     2  C   -0.083727
     3  C   -0.094827
     4  C   -0.058619
     5  C   -0.075335
     6  N   -0.355390
     7  C    0.018189
     8  C   -0.096342
     9  C   -0.100153
    10  C    0.072746
    11  C    0.033277
    12  C    0.042114
    13  C    0.040048
    14  C    0.240507
    15  O   -0.319846
    16  O   -0.359156
    17  N   -0.437757
    18  C    0.156478
    19  C   -0.154692
    20  C   -0.046041
    21  C    0.134257
    22  C    0.069343
    23  C    0.027575
    24  O   -0.238441
    25  C   -0.023693
    26  N   -0.371425
    27  C    0.079539
    28  C   -0.096553
    29  C   -0.033368
    30  C    0.049477
    31  C   -0.013149
    32  C   -0.045809
    33  C   -0.038489
    34  N   -0.442484
    35  C    0.126299
    36  C   -0.172339
    37  C   -0.048879
    38  C    0.177324
    39  C    0.098447
    40  C    0.131219
    41  O   -0.251241
    42  C   -0.016427
    43  C    0.271263
    44  O   -0.268992
    45  O   -0.369286
    46  C    0.141846
    47  C    0.282724
    48  C   -0.171854
    49  C   -0.207840
    50  C    0.043563
    51  C    0.036093
    52  C   -0.071122
    53  C    0.020547
    54  C   -0.170668
    55  C   -0.005796
    56  C    0.018853
    57  C   -0.115727
    58  C    0.077594
    59  C   -0.178572
    60  C    0.001419
    61  C   -0.039667
    62  C   -0.037065
    63  C    0.012082
    64  C   -0.235348
    65  C    0.022828
    66  C   -0.030511
    67  H   -0.010016
    68  H    0.024211
    69  H   -0.001145
    70  H    0.051995
    71  H    0.042458
    72  H    0.032747
    73  H    0.052746
    74  H    0.032692
    75  H    0.020033
    76  H    0.033889
    77  H    0.062661
    78  H    0.056379
    79  H    0.056603
    80  H    0.034720
    81  H    0.046820
    82  H    0.067536
    83  H    0.043360
    84  H    0.027419
    85  H    0.056220
    86  H    0.031843
    87  H    0.041278
    88  H    0.054445
    89  H    0.036831
    90  H    0.031018
    91  H    0.025986
    92  H    0.035274
    93  H    0.039992
    94  H    0.031680
    95  H    0.021236
    96  H    0.067308
    97  H    0.057384
    98  H    0.066220
    99  H    0.070206
   100  H    0.065876
   101  H    0.058977
   102  H    0.058878
   103  H    0.012097
   104  H    0.023005
   105  H    0.045963
   106  H    0.056944
   107  H    0.042323
   108  H    0.012687
   109  H    0.050444
   110  H    0.021323
   111  H    0.030479
   112  H    0.029989
   113  H    0.009501
   114  H    0.019474
   115  H    0.028738
   116  H    0.030439
   117  H    0.029642
   118  H    0.022657
   119  H    0.014623
   120  H    0.020481
   121  H    0.020434
   122  H    0.003062
   123  H    0.019518
   124  H    0.019742
   125  H    0.028421
   126  H    0.040019
   127  H    0.017627
   128  H    0.024321
   129  H    0.014806
   130  H    0.016416
   131  H    0.021268
   132  H    0.017251
   133  H    0.028774
   134  H    0.027383
   135  H    0.027523
   136  H    0.023945
   137  H    0.045533
   138  H    0.020210
   139  H    0.034606
   140  H    0.027625
 Sum of Mulliken charges =  -0.00000

 Dipole moment (field-independent basis, Debye):
    X=              4.2512    Y=              2.9472    Z=             -2.9762  Tot=              5.9680
 Quadrupole moment (field-independent basis, Debye-Ang):
   XX=           -381.2518   YY=           -436.5034   ZZ=           -404.5517
   XY=            -10.6581   XZ=              7.7638   YZ=              9.8084

 Normal termination of Gaussian 16 at Sat Apr 30 23:20:04 2022.
