 Gaussian 16, Revision A.03,
 Gaussian 16:  ES64L-G16RevA.03 25-Dec-2016

 --------------------
 #p ZINDO=(nstates=5)
 --------------------

 ----------------------------
 step_901_chromophore_9 ZINDO
 ----------------------------
 Symbolic Z-matrix:
 Charge =  0 Multiplicity = 1

                         Standard orientation:
 ---------------------------------------------------------------------
 Center     Atomic      Atomic             Coordinates (Angstroms)
 Number     Number       Type             X           Y           Z
 ---------------------------------------------------------------------
      1         12           0       -5.019061    0.752464   -0.237587
      2          6           0       -3.788793   -2.618715    0.064641
      3          6           0       -1.719934    1.752712   -0.263436
      4          6           0       -6.068226    3.904644    0.050726
      5          6           0       -8.252787   -0.512476    0.437744
      6          7           0       -3.055149   -0.289339   -0.021568
      7          6           0       -2.773133   -1.656413   -0.080823
      8          6           0       -1.314304   -1.973994   -0.238668
      9          6           0       -0.614647   -0.514861    0.088334
     10          6           0       -1.838863    0.356042   -0.076015
     11          6           0        0.140473   -0.420925    1.429063
     12          6           0       -1.045795   -2.506811   -1.579800
     13          6           0        0.298320   -3.209636   -1.758171
     14          6           0        1.413201   -3.088884   -0.722822
     15          8           0        1.751499   -3.951637    0.184837
     16          8           0        2.125013   -1.904743   -0.945552
     17          7           0       -4.067160    2.656700   -0.399571
     18          6           0       -2.697080    2.811866   -0.297632
     19          6           0       -2.407713    4.268923   -0.276177
     20          6           0       -3.710343    4.925119   -0.248732
     21          6           0       -4.687919    3.811178   -0.122245
     22          6           0       -1.026901    4.784825   -0.272775
     23          6           0       -4.002144    6.347682   -0.141204
     24          8           0       -5.117885    6.836855   -0.049176
     25          6           0       -2.857069    7.323163   -0.095753
     26          7           0       -6.940050    1.562274    0.012990
     27          6           0       -7.071561    2.914136    0.067064
     28          6           0       -8.581247    3.324785    0.184143
     29          6           0       -9.281993    1.905426    0.317116
     30          6           0       -8.078750    0.899793    0.295807
     31          6           0       -8.809706    4.353737    1.400425
     32          6           0      -10.289870    1.700809   -0.809638
     33          6           0       -9.797866    1.137505   -2.123391
     34          7           0       -5.888347   -1.139486    0.264706
     35          6           0       -7.256071   -1.488190    0.399342
     36          6           0       -7.365804   -2.941004    0.537384
     37          6           0       -6.026470   -3.360882    0.393586
     38          6           0       -5.152665   -2.279441    0.272959
     39          6           0       -8.620352   -3.726074    0.840724
     40          6           0       -5.238370   -4.602419    0.388033
     41          8           0       -5.678958   -5.777201    0.561019
     42          6           0       -3.754366   -4.177220    0.142408
     43          6           0       -2.946644   -4.736283    1.280823
     44          8           0       -3.123970   -4.435755    2.474183
     45          8           0       -1.883870   -5.446752    0.791160
     46          6           0       -1.111161   -6.113839    1.873942
     47          6           0        3.189467   -1.651101    0.006182
     48          6           0        4.445613   -1.421229   -0.748285
     49          6           0        5.531729   -2.250870   -0.946333
     50          6           0        5.658145   -3.709547   -0.680161
     51          6           0        6.835621   -1.545845   -1.391294
     52          6           0        6.612991   -0.672962   -2.640683
     53          6           0        7.526451   -1.099327   -3.859670
     54          6           0        8.559950    0.024728   -4.227286
     55          6           0        8.887853   -0.069981   -5.744226
     56          6           0        9.861257    0.033674   -3.355233
     57          6           0        9.794124    1.238501   -2.337436
     58          6           0       10.942295    1.333466   -1.394983
     59          6           0       10.637383    2.201806   -0.186469
     60          6           0       11.663424    3.405751    0.003972
     61          6           0       10.707251    1.303025    1.110878
     62          6           0        9.976191    1.791966    2.445140
     63          6           0       10.848265    1.963321    3.711056
     64          6           0       10.289673    1.184465    4.920442
     65          6           0       11.035406    1.590915    6.188401
     66          6           0       10.498429   -0.345904    4.651609
     67          1           0       -0.690747    2.098526   -0.381405
     68          1           0       -6.406063    4.922601    0.256413
     69          1           0       -9.270784   -0.890794    0.547323
     70          1           0       -1.022652   -2.688385    0.531671
     71          1           0        0.116765   -0.275795   -0.683097
     72          1           0        1.138269    0.008309    1.352505
     73          1           0        0.151869   -1.333095    2.025661
     74          1           0       -0.391749    0.275910    2.077226
     75          1           0       -1.134567   -1.719478   -2.329717
     76          1           0       -1.795606   -3.188515   -1.980408
     77          1           0        0.617825   -3.060663   -2.789305
     78          1           0        0.014737   -4.259511   -1.692337
     79          1           0       -0.829260    5.348695   -1.184805
     80          1           0       -0.320681    3.959472   -0.183112
     81          1           0       -0.846403    5.515826    0.515144
     82          1           0       -2.289735    7.379372    0.832920
     83          1           0       -3.151019    8.344110   -0.339436
     84          1           0       -2.190237    7.088554   -0.926191
     85          1           0       -8.823556    3.852544   -0.738749
     86          1           0       -9.879943    1.747301    1.214493
     87          1           0       -8.984379    5.324813    0.936420
     88          1           0       -7.974623    4.461778    2.092297
     89          1           0       -9.712186    4.194186    1.991566
     90          1           0      -10.745407    2.671282   -1.008689
     91          1           0      -11.086507    1.070978   -0.413785
     92          1           0       -8.715441    1.009482   -2.160475
     93          1           0      -10.077059    1.737742   -2.989121
     94          1           0      -10.127056    0.105967   -2.244012
     95          1           0       -9.426879   -3.015883    1.024809
     96          1           0       -8.494584   -4.384707    1.698976
     97          1           0       -8.883783   -4.350492   -0.013250
     98          1           0       -3.415955   -4.542401   -0.827124
     99          1           0       -1.756361   -6.667611    2.556384
    100          1           0       -0.507654   -5.358389    2.377532
    101          1           0       -0.501892   -6.768432    1.251902
    102          1           0        3.318173   -2.280142    0.886014
    103          1           0        2.994723   -0.671973    0.444440
    104          1           0        4.536214   -0.366993   -1.011403
    105          1           0        5.889970   -4.095413   -1.672859
    106          1           0        4.816558   -4.191160   -0.181855
    107          1           0        6.546200   -3.937501   -0.089438
    108          1           0        7.594047   -2.300591   -1.600186
    109          1           0        7.165308   -0.889232   -0.586315
    110          1           0        6.649303    0.404808   -2.484519
    111          1           0        5.566639   -0.825731   -2.903959
    112          1           0        6.883094   -1.545682   -4.617652
    113          1           0        8.155605   -1.904467   -3.478616
    114          1           0        8.109717    1.002988   -4.057521
    115          1           0        8.023183    0.316952   -6.284354
    116          1           0        8.991592   -1.136910   -5.939876
    117          1           0        9.763238    0.488010   -6.075221
    118          1           0       10.773704    0.174629   -3.936133
    119          1           0        9.921684   -0.864350   -2.741611
    120          1           0        8.824326    1.344144   -1.850556
    121          1           0        9.852476    2.069991   -3.040029
    122          1           0       11.692049    1.822473   -2.016048
    123          1           0       11.372067    0.367293   -1.132288
    124          1           0        9.657709    2.675206   -0.252589
    125          1           0       12.479901    3.357388   -0.716450
    126          1           0       11.925757    3.524500    1.054517
    127          1           0       11.115582    4.284392   -0.337408
    128          1           0       11.737024    0.991965    1.281908
    129          1           0       10.165471    0.399468    0.830483
    130          1           0        9.248900    1.010446    2.666994
    131          1           0        9.424661    2.713091    2.258704
    132          1           0       10.661106    3.024497    3.875900
    133          1           0       11.879517    1.702348    3.472605
    134          1           0        9.202612    1.226087    4.981409
    135          1           0       10.871291    0.778674    6.897062
    136          1           0       10.416100    2.439714    6.478072
    137          1           0       12.073611    1.913333    6.107544
    138          1           0        9.585839   -0.814325    5.019847
    139          1           0       11.309400   -0.820463    5.204514
    140          1           0       10.538211   -0.522264    3.576393
 ---------------------------------------------------------------------

 SCF Done:  E(RZINDO/S) =  -473.964266611     A.U. after   20 cycles

 Excitation energies and oscillator strengths:

 Excited State   1:      Singlet-A      1.2056 eV 1028.38 nm  f=0.6212  <S**2>=0.000
     175 ->178        -0.19343
     176 ->177         0.66184
 This state for optimization and/or second-order correction.
 Total Energy, E(CIS/TDA) =  -473.919960504
 Copying the excited state density for this state as the 1-particle RhoCI density.

 Excited State   2:      Singlet-A      1.9057 eV  650.59 nm  f=0.0202  <S**2>=0.000
     175 ->177         0.52406
     176 ->178         0.45191

 Excited State   3:      Singlet-A      2.8872 eV  429.43 nm  f=0.0077  <S**2>=0.000
     168 ->177         0.20924
     168 ->179        -0.21561
     168 ->181        -0.21650
     168 ->186        -0.13425
     168 ->187        -0.13195
     169 ->177         0.20722
     169 ->179        -0.20172
     169 ->181        -0.21961
     169 ->186        -0.12830
     169 ->187        -0.12232
     173 ->177         0.13111
     176 ->179        -0.16713

 Excited State   4:      Singlet-A      2.9335 eV  422.65 nm  f=0.2296  <S**2>=0.000
     168 ->179        -0.12907
     169 ->177         0.11243
     170 ->181        -0.10399
     175 ->177        -0.18582
     176 ->178         0.22636
     176 ->179         0.53167
     176 ->180         0.14179

 Excited State   5:      Singlet-A      2.9656 eV  418.07 nm  f=0.0963  <S**2>=0.000
     168 ->177         0.22993
     168 ->179         0.20943
     168 ->181        -0.20622
     168 ->183         0.11146
     168 ->186         0.11620
     169 ->177        -0.14910
     169 ->179        -0.20916
     169 ->181         0.13419
     169 ->186        -0.11585
     170 ->177        -0.16016
     170 ->179        -0.18462
     170 ->181         0.11983
     170 ->186        -0.10112
     175 ->177        -0.12052
     176 ->178         0.14961

 The electronic state is 1-A.
 Alpha  occ. eigenvalues --   -1.82172  -1.79805  -1.78919  -1.72299  -1.71128
 Alpha  occ. eigenvalues --   -1.69224  -1.64866  -1.61062  -1.59392  -1.56332
 Alpha  occ. eigenvalues --   -1.56230  -1.51306  -1.48857  -1.46708  -1.45763
 Alpha  occ. eigenvalues --   -1.42937  -1.42477  -1.40562  -1.38226  -1.37877
 Alpha  occ. eigenvalues --   -1.35791  -1.32631  -1.32066  -1.31160  -1.27959
 Alpha  occ. eigenvalues --   -1.27297  -1.25071  -1.23710  -1.21434  -1.18497
 Alpha  occ. eigenvalues --   -1.17166  -1.15746  -1.15357  -1.14073  -1.13413
 Alpha  occ. eigenvalues --   -1.13061  -1.11557  -1.11048  -1.04641  -1.03582
 Alpha  occ. eigenvalues --   -1.02679  -1.00731  -0.98447  -0.98038  -0.97681
 Alpha  occ. eigenvalues --   -0.96212  -0.94555  -0.94153  -0.93479  -0.93071
 Alpha  occ. eigenvalues --   -0.89685  -0.89124  -0.87852  -0.87508  -0.86220
 Alpha  occ. eigenvalues --   -0.85651  -0.85209  -0.83444  -0.81978  -0.80290
 Alpha  occ. eigenvalues --   -0.79406  -0.78948  -0.77868  -0.77325  -0.76359
 Alpha  occ. eigenvalues --   -0.75705  -0.75170  -0.74907  -0.74226  -0.74031
 Alpha  occ. eigenvalues --   -0.72996  -0.72579  -0.72284  -0.71497  -0.71032
 Alpha  occ. eigenvalues --   -0.70188  -0.69732  -0.69319  -0.68597  -0.68118
 Alpha  occ. eigenvalues --   -0.67168  -0.66977  -0.66587  -0.66346  -0.65963
 Alpha  occ. eigenvalues --   -0.65681  -0.65507  -0.65011  -0.63998  -0.63397
 Alpha  occ. eigenvalues --   -0.63284  -0.62706  -0.62578  -0.61872  -0.61520
 Alpha  occ. eigenvalues --   -0.61340  -0.60645  -0.60582  -0.60183  -0.60029
 Alpha  occ. eigenvalues --   -0.59944  -0.59731  -0.59184  -0.58895  -0.58735
 Alpha  occ. eigenvalues --   -0.57832  -0.57743  -0.57118  -0.56394  -0.55808
 Alpha  occ. eigenvalues --   -0.55447  -0.55211  -0.55084  -0.54657  -0.54405
 Alpha  occ. eigenvalues --   -0.54189  -0.53878  -0.53643  -0.53148  -0.53037
 Alpha  occ. eigenvalues --   -0.52599  -0.52486  -0.52304  -0.51963  -0.51835
 Alpha  occ. eigenvalues --   -0.51345  -0.51042  -0.50900  -0.50695  -0.50557
 Alpha  occ. eigenvalues --   -0.50373  -0.49942  -0.49651  -0.49234  -0.49034
 Alpha  occ. eigenvalues --   -0.48652  -0.48153  -0.47835  -0.47797  -0.47691
 Alpha  occ. eigenvalues --   -0.47400  -0.47286  -0.47174  -0.46659  -0.46485
 Alpha  occ. eigenvalues --   -0.46413  -0.46158  -0.45983  -0.45718  -0.45542
 Alpha  occ. eigenvalues --   -0.45056  -0.44655  -0.44448  -0.44409  -0.44071
 Alpha  occ. eigenvalues --   -0.43982  -0.43437  -0.42749  -0.42736  -0.42369
 Alpha  occ. eigenvalues --   -0.42259  -0.41678  -0.41352  -0.39997  -0.38896
 Alpha  occ. eigenvalues --   -0.38241  -0.37317  -0.34984  -0.34862  -0.34699
 Alpha  occ. eigenvalues --   -0.32771  -0.32582  -0.32128  -0.31472  -0.26839
 Alpha  occ. eigenvalues --   -0.21571
 Alpha virt. eigenvalues --   -0.08639  -0.02364  -0.00846  -0.00376   0.01066
 Alpha virt. eigenvalues --    0.01932   0.02290   0.02679   0.03958   0.04786
 Alpha virt. eigenvalues --    0.06180   0.06822   0.07231   0.07624   0.07964

 Mulliken charges:
               1
     1  Mg   0.429378
     2  C   -0.058242
     3  C   -0.093837
     4  C   -0.058899
     5  C   -0.054354
     6  N   -0.300344
     7  C    0.133039
     8  C    0.012352
     9  C    0.005418
    10  C    0.141282
    11  C   -0.048375
    12  C   -0.001750
    13  C    0.004236
    14  C    0.468322
    15  O   -0.532542
    16  O   -0.255556
    17  N   -0.312758
    18  C    0.100716
    19  C    0.012473
    20  C   -0.057925
    21  C    0.142083
    22  C   -0.035471
    23  C    0.334542
    24  O   -0.532535
    25  C   -0.034266
    26  N   -0.246749
    27  C    0.127950
    28  C   -0.003071
    29  C    0.005337
    30  C    0.122056
    31  C   -0.057281
    32  C   -0.020544
    33  C   -0.053566
    34  N   -0.343975
    35  C    0.088507
    36  C    0.039352
    37  C   -0.047075
    38  C    0.128522
    39  C   -0.031008
    40  C    0.323604
    41  O   -0.536725
    42  C    0.063261
    43  C    0.489494
    44  O   -0.522075
    45  O   -0.270458
    46  C    0.075609
    47  C    0.106006
    48  C   -0.105078
    49  C    0.005675
    50  C   -0.035697
    51  C   -0.021649
    52  C   -0.044649
    53  C   -0.041116
    54  C   -0.011683
    55  C   -0.060816
    56  C   -0.038715
    57  C   -0.039885
    58  C   -0.024947
    59  C   -0.014125
    60  C   -0.068870
    61  C   -0.044676
    62  C   -0.047033
    63  C   -0.034821
    64  C   -0.013005
    65  C   -0.058440
    66  C   -0.068720
    67  H    0.020286
    68  H    0.046724
    69  H    0.031127
    70  H    0.043191
    71  H    0.029667
    72  H    0.025444
    73  H    0.032826
    74  H    0.015774
    75  H    0.016775
    76  H    0.022979
    77  H    0.043458
    78  H    0.030776
    79  H    0.032144
    80  H    0.028052
    81  H    0.029343
    82  H    0.042130
    83  H    0.029560
    84  H    0.021365
    85  H    0.042493
    86  H    0.030468
    87  H    0.018468
    88  H    0.032260
    89  H    0.018837
    90  H    0.015304
    91  H    0.013576
    92  H    0.020610
    93  H    0.020830
    94  H    0.016571
    95  H    0.020229
    96  H    0.043453
    97  H    0.036581
    98  H    0.051437
    99  H    0.055889
   100  H    0.051005
   101  H    0.031454
   102  H    0.061944
   103  H    0.022833
   104  H    0.023130
   105  H    0.032157
   106  H    0.035747
   107  H    0.024623
   108  H    0.022360
   109  H    0.027543
   110  H    0.023490
   111  H    0.014593
   112  H    0.029976
   113  H    0.015451
   114  H    0.018717
   115  H    0.013215
   116  H    0.019383
   117  H    0.021224
   118  H    0.026144
   119  H    0.018998
   120  H    0.022537
   121  H    0.009264
   122  H    0.011207
   123  H    0.023459
   124  H    0.025716
   125  H    0.025811
   126  H    0.029476
   127  H    0.008352
   128  H    0.024222
   129  H    0.003943
   130  H    0.015634
   131  H    0.018625
   132  H    0.013586
   133  H    0.032496
   134  H    0.031672
   135  H    0.019037
   136  H    0.010333
   137  H    0.033810
   138  H    0.007784
   139  H    0.023827
   140  H    0.020688
 Sum of Mulliken charges =  -0.00000

 Dipole moment (field-independent basis, Debye):
    X=              5.1831    Y=              4.0021    Z=             -4.6138  Tot=              8.0105
 N-N= 4.387304373348D+03 E-N= 0.000000000000D+00  KE=-9.448504899196D+03
 Leave Link  601 at Sat Apr 30 23:40:06 2022, MaxMem=  6710886400 cpu:               1.0 elap:               0.1
 (Enter /sw/apps/gaussian-16.0/g16/l9999.exe)
 1\1\GINC-BP1-COMPUTE137\SP\RZINDO CIS\STO-3G\C55H74Mg1N4O6\OF15641\30-
 Apr-2022\0\\#p ZINDO=(nstates=5)\\step_901_chromophore_9 ZINDO\\0,1\Mg
 ,0,35.538,1.289,29.795\C,0,33.24,2.435,32.32\C,0,37.979,1.42,32.226\C,
 0,37.812,0.783,27.409\C,0,32.986,1.852,27.411\N,0,35.601,1.939,31.931\
 C,0,34.541,2.203,32.802\C,0,34.941,2.28,34.247\C,0,36.586,2.366,34.137
 \C,0,36.735,1.885,32.712\C,0,37.209,3.732,34.487\C,0,34.426,1.121,34.9
 86\C,0,34.434,1.247,36.508\C,0,35.211,2.351,37.22\O,0,34.746,3.453,37.

 Normal termination of Gaussian 16 at Sat Apr 30 23:40:06 2022.
