 Gaussian 16, Revision A.03,
 Gaussian 16:  ES64L-G16RevA.03 25-Dec-2016

 ------------------------------
 #p blyp/Def2SVP td=(nstates=5)
 ------------------------------

 ---------------------------------------------------
 step_1451_chromophore_14 TDDFT with blyp functional
 ---------------------------------------------------
 Symbolic Z-matrix:
 Charge =  0 Multiplicity = 1

                         Standard orientation:
 ---------------------------------------------------------------------
 Center     Atomic      Atomic             Coordinates (Angstroms)
 Number     Number       Type             X           Y           Z
 ---------------------------------------------------------------------
      1         12           0        4.970713    1.014675   -0.247629
      2          6           0        4.957509   -2.408316    0.570586
      3          6           0        3.619257    0.199758   -3.361326
      4          6           0        4.008705    4.124510   -0.520947
      5          6           0        5.742391    1.685957    3.197996
      6          7           0        4.381610   -0.867672   -1.234014
      7          6           0        4.556565   -2.140062   -0.705666
      8          6           0        4.064371   -3.174741   -1.691739
      9          6           0        3.828149   -2.341211   -2.995324
     10          6           0        3.896387   -0.907847   -2.513493
     11          6           0        4.710070   -2.718363   -4.175259
     12          6           0        2.858925   -4.129078   -1.309369
     13          6           0        1.622519   -3.296722   -0.807588
     14          6           0        0.311836   -3.484033   -1.618214
     15          8           0        0.015842   -4.570550   -2.120673
     16          8           0       -0.539535   -2.387139   -1.538134
     17          7           0        4.091094    2.027132   -1.778553
     18          6           0        3.679196    1.563587   -3.012329
     19          6           0        3.367315    2.681550   -3.788930
     20          6           0        3.337253    3.827768   -2.977035
     21          6           0        3.888263    3.358790   -1.722893
     22          6           0        3.023636    2.585438   -5.314235
     23          6           0        3.006666    5.254689   -3.495851
     24          8           0        2.572668    5.437803   -4.618026
     25          6           0        3.239745    6.481233   -2.579407
     26          7           0        4.924751    2.613322    1.178957
     27          6           0        4.530153    3.847912    0.716250
     28          6           0        4.744712    4.961847    1.729122
     29          6           0        5.283009    4.133301    2.975904
     30          6           0        5.325996    2.719572    2.455029
     31          6           0        5.638935    6.094600    1.163054
     32          6           0        4.602372    4.247750    4.369224
     33          6           0        5.507618    4.756240    5.507674
     34          7           0        5.458851   -0.036435    1.489565
     35          6           0        5.778768    0.324038    2.776705
     36          6           0        5.934153   -0.826898    3.605714
     37          6           0        5.601075   -1.874025    2.784893
     38          6           0        5.272666   -1.345489    1.528276
     39          6           0        6.382309   -0.907023    5.088836
     40          6           0        5.543037   -3.257849    2.739061
     41          8           0        5.714243   -4.029319    3.680422
     42          6           0        4.916936   -3.668687    1.380893
     43          6           0        5.785326   -4.767281    0.762775
     44          8           0        5.369247   -5.835802    0.380535
     45          8           0        7.050482   -4.276690    0.561258
     46          6           0        7.842340   -4.962585   -0.509819
     47          6           0       -1.898154   -2.675626   -1.939338
     48          6           0       -2.768228   -1.624347   -1.295058
     49          6           0       -3.610942   -0.737745   -1.858277
     50          6           0       -3.951336   -0.726898   -3.310677
     51          6           0       -4.431910    0.357259   -0.998540
     52          6           0       -5.826436    0.026007   -0.578488
     53          6           0       -5.922982   -0.028091    0.969781
     54          6           0       -7.432303    0.001204    1.348968
     55          6           0       -7.625428    0.458181    2.776407
     56          6           0       -7.873597   -1.467282    1.185220
     57          6           0       -9.068317   -1.466258    0.206736
     58          6           0      -10.303566   -2.174292    0.764124
     59          6           0      -11.275087   -1.103043    1.403964
     60          6           0      -11.509423   -1.324806    2.938075
     61          6           0      -12.626927   -0.916578    0.660767
     62          6           0      -13.006582    0.575009    0.564370
     63          6           0      -14.431597    0.890222    1.052820
     64          6           0      -15.114398    1.894113   -0.000242
     65          6           0      -16.295394    2.579625    0.682320
     66          6           0      -15.552081    1.079947   -1.303597
     67          1           0        3.301340   -0.183612   -4.333574
     68          1           0        3.706683    5.166626   -0.641313
     69          1           0        6.100259    1.787492    4.224989
     70          1           0        4.812380   -3.961844   -1.785095
     71          1           0        2.786049   -2.443967   -3.300105
     72          1           0        5.508472   -1.976055   -4.179106
     73          1           0        4.208754   -2.698693   -5.142581
     74          1           0        5.246688   -3.633768   -3.927116
     75          1           0        3.130393   -4.914996   -0.605864
     76          1           0        2.625610   -4.769493   -2.159895
     77          1           0        1.705326   -2.210176   -0.783431
     78          1           0        1.372172   -3.645399    0.194437
     79          1           0        2.058429    3.067659   -5.466043
     80          1           0        2.925578    1.583219   -5.731674
     81          1           0        3.769246    3.064263   -5.947938
     82          1           0        4.232224    6.413588   -2.131788
     83          1           0        2.413591    6.570587   -1.873579
     84          1           0        3.292937    7.367602   -3.211924
     85          1           0        3.795365    5.477738    1.874543
     86          1           0        6.336245    4.396222    3.068197
     87          1           0        5.867476    6.069850    0.097284
     88          1           0        6.520343    6.068536    1.803752
     89          1           0        5.173079    7.065662    1.331623
     90          1           0        4.236417    3.260439    4.650368
     91          1           0        3.744579    4.907468    4.236735
     92          1           0        5.104138    5.717087    5.828791
     93          1           0        6.519083    4.827507    5.109373
     94          1           0        5.512069    4.141707    6.407504
     95          1           0        6.439990   -1.969664    5.324257
     96          1           0        5.614068   -0.360100    5.635255
     97          1           0        7.376140   -0.465334    5.161152
     98          1           0        3.951482   -4.151439    1.531193
     99          1           0        7.103994   -5.406537   -1.178072
    100          1           0        8.310415   -5.817321   -0.021088
    101          1           0        8.600553   -4.368441   -1.020454
    102          1           0       -2.117809   -3.647862   -1.497959
    103          1           0       -2.103691   -2.937004   -2.977234
    104          1           0       -2.616981   -1.478623   -0.225387
    105          1           0       -4.477018    0.177680   -3.616839
    106          1           0       -4.615626   -1.512947   -3.669451
    107          1           0       -3.002356   -0.797138   -3.840921
    108          1           0       -4.287047    1.285363   -1.551159
    109          1           0       -3.794078    0.491505   -0.125491
    110          1           0       -6.084697   -0.920454   -1.054366
    111          1           0       -6.504179    0.711259   -1.085744
    112          1           0       -5.400586    0.862085    1.318679
    113          1           0       -5.295811   -0.887944    1.203287
    114          1           0       -7.892404    0.686653    0.637105
    115          1           0       -7.240013    1.452402    3.004785
    116          1           0       -7.043086   -0.253053    3.361672
    117          1           0       -8.658886    0.253077    3.053360
    118          1           0       -8.123359   -1.924682    2.143200
    119          1           0       -7.074042   -2.109496    0.815745
    120          1           0       -8.750251   -2.054381   -0.654316
    121          1           0       -9.221650   -0.463474   -0.192837
    122          1           0       -9.986300   -2.912870    1.499933
    123          1           0      -10.687818   -2.798766   -0.042143
    124          1           0      -10.661378   -0.202629    1.439511
    125          1           0      -11.079194   -0.518678    3.532446
    126          1           0      -11.113445   -2.274238    3.296380
    127          1           0      -12.574660   -1.387894    3.160062
    128          1           0      -13.416929   -1.428105    1.212318
    129          1           0      -12.384229   -1.207946   -0.360941
    130          1           0      -12.802706    0.921075   -0.449081
    131          1           0      -12.335131    1.166092    1.186975
    132          1           0      -14.361559    1.433751    1.995756
    133          1           0      -14.930523   -0.053778    1.269831
    134          1           0      -14.400820    2.673219   -0.266761
    135          1           0      -16.588477    2.111798    1.622396
    136          1           0      -17.161223    2.556541    0.020207
    137          1           0      -16.154726    3.617389    0.984230
    138          1           0      -16.145384    1.756428   -1.918174
    139          1           0      -16.131269    0.202548   -1.013503
    140          1           0      -14.589360    0.870140   -1.768994
 ---------------------------------------------------------------------

 SCF Done:  E(RB-LYP) =  -3007.37494133     A.U. after   21 cycles

 Excitation energies and oscillator strengths:

 Excited State   1:      Singlet-A      1.7349 eV  714.66 nm  f=0.0114  <S**2>=0.000
     244 -> 247        0.67988
     245 -> 247       -0.14800
     246 -> 247       -0.12225
 This state for optimization and/or second-order correction.
 Total Energy, E(TD-HF/TD-DFT) =  -3007.31118580
 Copying the excited state density for this state as the 1-particle RhoCI density.

 Excited State   2:      Singlet-A      1.8303 eV  677.41 nm  f=0.2914  <S**2>=0.000
     244 -> 247        0.11872
     245 -> 248        0.16904
     246 -> 247        0.68590
     246 <- 247       -0.15734

 Excited State   3:      Singlet-A      1.9750 eV  627.77 nm  f=0.0026  <S**2>=0.000
     243 -> 247        0.70034

 Excited State   4:      Singlet-A      2.0946 eV  591.94 nm  f=0.1040  <S**2>=0.000
     244 -> 247        0.14138
     245 -> 247        0.63223
     246 -> 248       -0.23034

 Excited State   5:      Singlet-A      2.2541 eV  550.04 nm  f=0.0004  <S**2>=0.000
     242 -> 247        0.70663

 The electronic state is 1-A.
 Alpha  occ. eigenvalues --  -46.27176 -18.82356 -18.82239 -18.77477 -18.76874
 Alpha  occ. eigenvalues --  -18.76218 -18.74958 -14.03543 -14.03078 -14.01204
 Alpha  occ. eigenvalues --  -14.00953 -10.04284 -10.03985 -10.00675  -9.98434
 Alpha  occ. eigenvalues --   -9.98418  -9.97589  -9.96765  -9.96454  -9.96397
 Alpha  occ. eigenvalues --   -9.96276  -9.95876  -9.95561  -9.95172  -9.94485
 Alpha  occ. eigenvalues --   -9.94451  -9.94191  -9.94002  -9.93879  -9.93855
 Alpha  occ. eigenvalues --   -9.93752  -9.93698  -9.93497  -9.93363  -9.93109
 Alpha  occ. eigenvalues --   -9.93099  -9.92995  -9.92926  -9.92909  -9.92666
 Alpha  occ. eigenvalues --   -9.92593  -9.92550  -9.92539  -9.92427  -9.92355
 Alpha  occ. eigenvalues --   -9.92344  -9.92317  -9.91768  -9.91639  -9.91626
 Alpha  occ. eigenvalues --   -9.91596  -9.91571  -9.91493  -9.91228  -9.91196
 Alpha  occ. eigenvalues --   -9.91142  -9.91018  -9.90909  -9.90744  -9.90643
 Alpha  occ. eigenvalues --   -9.90628  -9.90513  -9.90494  -9.90437  -9.90205
 Alpha  occ. eigenvalues --   -9.89673  -2.91899  -1.72313  -1.71810  -1.71585
 Alpha  occ. eigenvalues --   -0.97913  -0.97457  -0.92241  -0.90664  -0.90466
 Alpha  occ. eigenvalues --   -0.89691  -0.87458  -0.86656  -0.86243  -0.85319
 Alpha  occ. eigenvalues --   -0.75998  -0.73788  -0.72948  -0.72499  -0.72484
 Alpha  occ. eigenvalues --   -0.72215  -0.71771  -0.71475  -0.70257  -0.70242
 Alpha  occ. eigenvalues --   -0.69339  -0.69022  -0.68247  -0.68034  -0.67344
 Alpha  occ. eigenvalues --   -0.66511  -0.65954  -0.65306  -0.65053  -0.64597
 Alpha  occ. eigenvalues --   -0.64097  -0.62567  -0.62334  -0.61752  -0.61181
 Alpha  occ. eigenvalues --   -0.60159  -0.59966  -0.59810  -0.59205  -0.58807
 Alpha  occ. eigenvalues --   -0.58531  -0.57917  -0.57154  -0.56073  -0.54982
 Alpha  occ. eigenvalues --   -0.54376  -0.52903  -0.52694  -0.52184  -0.51936
 Alpha  occ. eigenvalues --   -0.51204  -0.51030  -0.50897  -0.50765  -0.50430
 Alpha  occ. eigenvalues --   -0.49782  -0.49505  -0.49427  -0.48763  -0.46761
 Alpha  occ. eigenvalues --   -0.46488  -0.46045  -0.45594  -0.44973  -0.44665
 Alpha  occ. eigenvalues --   -0.43671  -0.43227  -0.43046  -0.42927  -0.42752
 Alpha  occ. eigenvalues --   -0.42027  -0.41946  -0.41618  -0.41228  -0.41056
 Alpha  occ. eigenvalues --   -0.40722  -0.40593  -0.40459  -0.40175  -0.39935
 Alpha  occ. eigenvalues --   -0.39875  -0.39844  -0.39581  -0.39415  -0.39182
 Alpha  occ. eigenvalues --   -0.38902  -0.38789  -0.38697  -0.38553  -0.38195
 Alpha  occ. eigenvalues --   -0.38050  -0.37809  -0.37735  -0.37693  -0.37535
 Alpha  occ. eigenvalues --   -0.37262  -0.37054  -0.36873  -0.36716  -0.36575
 Alpha  occ. eigenvalues --   -0.36185  -0.35984  -0.35932  -0.35580  -0.35455
 Alpha  occ. eigenvalues --   -0.35327  -0.35285  -0.35028  -0.34792  -0.34686
 Alpha  occ. eigenvalues --   -0.34433  -0.34401  -0.34115  -0.34072  -0.33813
 Alpha  occ. eigenvalues --   -0.33668  -0.33464  -0.33330  -0.33310  -0.33294
 Alpha  occ. eigenvalues --   -0.33078  -0.32887  -0.32755  -0.32661  -0.32426
 Alpha  occ. eigenvalues --   -0.32403  -0.32171  -0.31715  -0.31477  -0.31441
 Alpha  occ. eigenvalues --   -0.31324  -0.31140  -0.30956  -0.30908  -0.30562
 Alpha  occ. eigenvalues --   -0.30380  -0.30262  -0.30210  -0.30162  -0.30057
 Alpha  occ. eigenvalues --   -0.29919  -0.29447  -0.29437  -0.29262  -0.29021
 Alpha  occ. eigenvalues --   -0.28864  -0.28789  -0.28713  -0.28336  -0.28252
 Alpha  occ. eigenvalues --   -0.27929  -0.27527  -0.26909  -0.26868  -0.26818
 Alpha  occ. eigenvalues --   -0.26524  -0.25969  -0.25633  -0.25435  -0.25337
 Alpha  occ. eigenvalues --   -0.25047  -0.24563  -0.23944  -0.23667  -0.23608
 Alpha  occ. eigenvalues --   -0.22980  -0.22917  -0.22087  -0.21945  -0.21002
 Alpha  occ. eigenvalues --   -0.20759  -0.20229  -0.19140  -0.18249  -0.17725
 Alpha  occ. eigenvalues --   -0.16164
 Alpha virt. eigenvalues --   -0.11948  -0.06682  -0.05864  -0.04685  -0.03298
 Alpha virt. eigenvalues --   -0.03207  -0.02856  -0.01834  -0.01401  -0.00120
 Alpha virt. eigenvalues --    0.00851   0.01624   0.02305   0.02863   0.02944

 Mulliken charges:
               1
     1  Mg   0.713379
     2  C    0.009814
     3  C   -0.062651
     4  C   -0.032327
     5  C   -0.114287
     6  N   -0.225320
     7  C   -0.026110
     8  C   -0.018098
     9  C    0.027242
    10  C   -0.040006
    11  C    0.164731
    12  C    0.095246
    13  C    0.103704
    14  C    0.069547
    15  O   -0.205510
    16  O   -0.263988
    17  N   -0.305424
    18  C    0.185322
    19  C   -0.127981
    20  C    0.014056
    21  C    0.110732
    22  C    0.175559
    23  C   -0.080406
    24  O   -0.148948
    25  C    0.131926
    26  N   -0.208241
    27  C    0.022273
    28  C   -0.008049
    29  C    0.087865
    30  C    0.043409
    31  C    0.115998
    32  C    0.105242
    33  C    0.060832
    34  N   -0.225928
    35  C    0.055608
    36  C   -0.220883
    37  C    0.138874
    38  C    0.055773
    39  C    0.186194
    40  C   -0.078373
    41  O   -0.147092
    42  C    0.091031
    43  C    0.091048
    44  O   -0.151737
    45  O   -0.290088
    46  C    0.216190
    47  C    0.328252
    48  C   -0.054741
    49  C   -0.192209
    50  C    0.130738
    51  C    0.112538
    52  C    0.096249
    53  C    0.066296
    54  C   -0.055518
    55  C    0.145584
    56  C    0.105308
    57  C    0.047160
    58  C    0.126079
    59  C   -0.102601
    60  C    0.082717
    61  C    0.169852
    62  C    0.037268
    63  C    0.090844
    64  C   -0.108048
    65  C    0.114776
    66  C    0.101158
    67  H   -0.064832
    68  H   -0.099087
    69  H   -0.067445
    70  H   -0.021999
    71  H   -0.020219
    72  H   -0.023116
    73  H    0.007210
    74  H   -0.013702
    75  H   -0.007810
    76  H   -0.011365
    77  H    0.011074
    78  H    0.015815
    79  H    0.009598
    80  H   -0.030824
    81  H    0.001181
    82  H    0.007402
    83  H    0.030389
    84  H   -0.012126
    85  H   -0.018688
    86  H   -0.025028
    87  H    0.013071
    88  H   -0.018833
    89  H   -0.017215
    90  H   -0.012874
    91  H   -0.022881
    92  H   -0.006063
    93  H   -0.006584
    94  H   -0.004573
    95  H    0.011449
    96  H    0.006341
    97  H    0.001820
    98  H   -0.000692
    99  H    0.014972
   100  H    0.014715
   101  H    0.030073
   102  H   -0.023259
   103  H   -0.013015
   104  H   -0.046039
   105  H   -0.025260
   106  H    0.004835
   107  H    0.007211
   108  H   -0.027357
   109  H   -0.038207
   110  H   -0.030710
   111  H   -0.039571
   112  H   -0.039650
   113  H   -0.016225
   114  H   -0.028970
   115  H   -0.013288
   116  H   -0.028793
   117  H   -0.022753
   118  H   -0.037459
   119  H   -0.028211
   120  H   -0.049175
   121  H   -0.025419
   122  H   -0.045692
   123  H   -0.043989
   124  H   -0.020936
   125  H   -0.004132
   126  H   -0.020882
   127  H   -0.030436
   128  H   -0.021128
   129  H   -0.037969
   130  H   -0.026767
   131  H   -0.036820
   132  H   -0.033715
   133  H   -0.027458
   134  H   -0.029548
   135  H   -0.024304
   136  H   -0.031530
   137  H   -0.021767
   138  H   -0.008213
   139  H   -0.001794
   140  H   -0.012610
 Sum of Mulliken charges =  -0.00000

 Dipole moment (field-independent basis, Debye):
    X=              1.4486    Y=              5.3854    Z=             -0.1592  Tot=              5.5791
 Quadrupole moment (field-independent basis, Debye-Ang):
   XX=           -373.5200   YY=           -428.9105   ZZ=           -415.4402
   XY=             21.1553   XZ=            -11.7044   YZ=             38.7711

 Normal termination of Gaussian 16 at Wed May  4 07:21:39 2022.
