 Gaussian 16, Revision A.03,
 Gaussian 16:  ES64L-G16RevA.03 25-Dec-2016

 -----------------------------------
 #p cam-b3lyp/Def2SVP td=(nstates=5)
 -----------------------------------

 --------------------------------------------------------
 step_1451_chromophore_14 TDDFT with cam-b3lyp functional
 --------------------------------------------------------
 Symbolic Z-matrix:
 Charge =  0 Multiplicity = 1

                         Standard orientation:
 ---------------------------------------------------------------------
 Center     Atomic      Atomic             Coordinates (Angstroms)
 Number     Number       Type             X           Y           Z
 ---------------------------------------------------------------------
      1         12           0        4.970713    1.014675   -0.247629
      2          6           0        4.957509   -2.408316    0.570586
      3          6           0        3.619257    0.199758   -3.361326
      4          6           0        4.008705    4.124510   -0.520947
      5          6           0        5.742391    1.685957    3.197996
      6          7           0        4.381610   -0.867672   -1.234014
      7          6           0        4.556565   -2.140062   -0.705666
      8          6           0        4.064371   -3.174741   -1.691739
      9          6           0        3.828149   -2.341211   -2.995324
     10          6           0        3.896387   -0.907847   -2.513493
     11          6           0        4.710070   -2.718363   -4.175259
     12          6           0        2.858925   -4.129078   -1.309369
     13          6           0        1.622519   -3.296722   -0.807588
     14          6           0        0.311836   -3.484033   -1.618214
     15          8           0        0.015842   -4.570550   -2.120673
     16          8           0       -0.539535   -2.387139   -1.538134
     17          7           0        4.091094    2.027132   -1.778553
     18          6           0        3.679196    1.563587   -3.012329
     19          6           0        3.367315    2.681550   -3.788930
     20          6           0        3.337253    3.827768   -2.977035
     21          6           0        3.888263    3.358790   -1.722893
     22          6           0        3.023636    2.585438   -5.314235
     23          6           0        3.006666    5.254689   -3.495851
     24          8           0        2.572668    5.437803   -4.618026
     25          6           0        3.239745    6.481233   -2.579407
     26          7           0        4.924751    2.613322    1.178957
     27          6           0        4.530153    3.847912    0.716250
     28          6           0        4.744712    4.961847    1.729122
     29          6           0        5.283009    4.133301    2.975904
     30          6           0        5.325996    2.719572    2.455029
     31          6           0        5.638935    6.094600    1.163054
     32          6           0        4.602372    4.247750    4.369224
     33          6           0        5.507618    4.756240    5.507674
     34          7           0        5.458851   -0.036435    1.489565
     35          6           0        5.778768    0.324038    2.776705
     36          6           0        5.934153   -0.826898    3.605714
     37          6           0        5.601075   -1.874025    2.784893
     38          6           0        5.272666   -1.345489    1.528276
     39          6           0        6.382309   -0.907023    5.088836
     40          6           0        5.543037   -3.257849    2.739061
     41          8           0        5.714243   -4.029319    3.680422
     42          6           0        4.916936   -3.668687    1.380893
     43          6           0        5.785326   -4.767281    0.762775
     44          8           0        5.369247   -5.835802    0.380535
     45          8           0        7.050482   -4.276690    0.561258
     46          6           0        7.842340   -4.962585   -0.509819
     47          6           0       -1.898154   -2.675626   -1.939338
     48          6           0       -2.768228   -1.624347   -1.295058
     49          6           0       -3.610942   -0.737745   -1.858277
     50          6           0       -3.951336   -0.726898   -3.310677
     51          6           0       -4.431910    0.357259   -0.998540
     52          6           0       -5.826436    0.026007   -0.578488
     53          6           0       -5.922982   -0.028091    0.969781
     54          6           0       -7.432303    0.001204    1.348968
     55          6           0       -7.625428    0.458181    2.776407
     56          6           0       -7.873597   -1.467282    1.185220
     57          6           0       -9.068317   -1.466258    0.206736
     58          6           0      -10.303566   -2.174292    0.764124
     59          6           0      -11.275087   -1.103043    1.403964
     60          6           0      -11.509423   -1.324806    2.938075
     61          6           0      -12.626927   -0.916578    0.660767
     62          6           0      -13.006582    0.575009    0.564370
     63          6           0      -14.431597    0.890222    1.052820
     64          6           0      -15.114398    1.894113   -0.000242
     65          6           0      -16.295394    2.579625    0.682320
     66          6           0      -15.552081    1.079947   -1.303597
     67          1           0        3.301340   -0.183612   -4.333574
     68          1           0        3.706683    5.166626   -0.641313
     69          1           0        6.100259    1.787492    4.224989
     70          1           0        4.812380   -3.961844   -1.785095
     71          1           0        2.786049   -2.443967   -3.300105
     72          1           0        5.508472   -1.976055   -4.179106
     73          1           0        4.208754   -2.698693   -5.142581
     74          1           0        5.246688   -3.633768   -3.927116
     75          1           0        3.130393   -4.914996   -0.605864
     76          1           0        2.625610   -4.769493   -2.159895
     77          1           0        1.705326   -2.210176   -0.783431
     78          1           0        1.372172   -3.645399    0.194437
     79          1           0        2.058429    3.067659   -5.466043
     80          1           0        2.925578    1.583219   -5.731674
     81          1           0        3.769246    3.064263   -5.947938
     82          1           0        4.232224    6.413588   -2.131788
     83          1           0        2.413591    6.570587   -1.873579
     84          1           0        3.292937    7.367602   -3.211924
     85          1           0        3.795365    5.477738    1.874543
     86          1           0        6.336245    4.396222    3.068197
     87          1           0        5.867476    6.069850    0.097284
     88          1           0        6.520343    6.068536    1.803752
     89          1           0        5.173079    7.065662    1.331623
     90          1           0        4.236417    3.260439    4.650368
     91          1           0        3.744579    4.907468    4.236735
     92          1           0        5.104138    5.717087    5.828791
     93          1           0        6.519083    4.827507    5.109373
     94          1           0        5.512069    4.141707    6.407504
     95          1           0        6.439990   -1.969664    5.324257
     96          1           0        5.614068   -0.360100    5.635255
     97          1           0        7.376140   -0.465334    5.161152
     98          1           0        3.951482   -4.151439    1.531193
     99          1           0        7.103994   -5.406537   -1.178072
    100          1           0        8.310415   -5.817321   -0.021088
    101          1           0        8.600553   -4.368441   -1.020454
    102          1           0       -2.117809   -3.647862   -1.497959
    103          1           0       -2.103691   -2.937004   -2.977234
    104          1           0       -2.616981   -1.478623   -0.225387
    105          1           0       -4.477018    0.177680   -3.616839
    106          1           0       -4.615626   -1.512947   -3.669451
    107          1           0       -3.002356   -0.797138   -3.840921
    108          1           0       -4.287047    1.285363   -1.551159
    109          1           0       -3.794078    0.491505   -0.125491
    110          1           0       -6.084697   -0.920454   -1.054366
    111          1           0       -6.504179    0.711259   -1.085744
    112          1           0       -5.400586    0.862085    1.318679
    113          1           0       -5.295811   -0.887944    1.203287
    114          1           0       -7.892404    0.686653    0.637105
    115          1           0       -7.240013    1.452402    3.004785
    116          1           0       -7.043086   -0.253053    3.361672
    117          1           0       -8.658886    0.253077    3.053360
    118          1           0       -8.123359   -1.924682    2.143200
    119          1           0       -7.074042   -2.109496    0.815745
    120          1           0       -8.750251   -2.054381   -0.654316
    121          1           0       -9.221650   -0.463474   -0.192837
    122          1           0       -9.986300   -2.912870    1.499933
    123          1           0      -10.687818   -2.798766   -0.042143
    124          1           0      -10.661378   -0.202629    1.439511
    125          1           0      -11.079194   -0.518678    3.532446
    126          1           0      -11.113445   -2.274238    3.296380
    127          1           0      -12.574660   -1.387894    3.160062
    128          1           0      -13.416929   -1.428105    1.212318
    129          1           0      -12.384229   -1.207946   -0.360941
    130          1           0      -12.802706    0.921075   -0.449081
    131          1           0      -12.335131    1.166092    1.186975
    132          1           0      -14.361559    1.433751    1.995756
    133          1           0      -14.930523   -0.053778    1.269831
    134          1           0      -14.400820    2.673219   -0.266761
    135          1           0      -16.588477    2.111798    1.622396
    136          1           0      -17.161223    2.556541    0.020207
    137          1           0      -16.154726    3.617389    0.984230
    138          1           0      -16.145384    1.756428   -1.918174
    139          1           0      -16.131269    0.202548   -1.013503
    140          1           0      -14.589360    0.870140   -1.768994
 ---------------------------------------------------------------------

 SCF Done:  E(RCAM-B3LYP) =  -3007.17925552     A.U. after   18 cycles

 Excitation energies and oscillator strengths:

 Excited State   1:      Singlet-A      1.7014 eV  728.72 nm  f=0.3786  <S**2>=0.000
     245 -> 248        0.16393
     246 -> 247        0.69022
     245 <- 248        0.10484
 This state for optimization and/or second-order correction.
 Total Energy, E(TD-HF/TD-DFT) =  -3007.11673041
 Copying the excited state density for this state as the 1-particle RhoCI density.

 Excited State   2:      Singlet-A      2.2838 eV  542.87 nm  f=0.1483  <S**2>=0.000
     245 -> 247        0.64981
     246 -> 248       -0.26572

 Excited State   3:      Singlet-A      3.3510 eV  369.99 nm  f=0.0006  <S**2>=0.000
     241 -> 247       -0.32265
     242 -> 247        0.53971
     244 -> 247       -0.28979

 Excited State   4:      Singlet-A      3.3683 eV  368.09 nm  f=0.0039  <S**2>=0.000
     241 -> 249        0.11637
     241 -> 251        0.11534
     242 -> 247        0.31112
     242 -> 249        0.10580
     242 -> 251        0.10843
     244 -> 247        0.53985
     244 -> 249        0.16177
     244 -> 251        0.11931

 Excited State   5:      Singlet-A      3.5110 eV  353.13 nm  f=0.0001  <S**2>=0.000
     241 -> 247        0.56373
     242 -> 247        0.23825
     242 -> 249        0.10460
     244 -> 247       -0.23917
     244 -> 251        0.10082
     246 -> 248       -0.11534

 The electronic state is 1-A.
 Alpha  occ. eigenvalues --  -46.88767 -19.25215 -19.25056 -19.20544 -19.19815
 Alpha  occ. eigenvalues --  -19.19668 -19.17925 -14.42556 -14.41918 -14.39815
 Alpha  occ. eigenvalues --  -14.39274 -10.39659 -10.39321 -10.36112 -10.33537
 Alpha  occ. eigenvalues --  -10.32432 -10.31618 -10.31499 -10.31091 -10.31037
 Alpha  occ. eigenvalues --  -10.30775 -10.30149 -10.29986 -10.29090 -10.28589
 Alpha  occ. eigenvalues --  -10.28481 -10.28341 -10.28179 -10.28127 -10.28069
 Alpha  occ. eigenvalues --  -10.27902 -10.27852 -10.27779 -10.27662 -10.27161
 Alpha  occ. eigenvalues --  -10.27113 -10.27058 -10.27035 -10.26808 -10.26777
 Alpha  occ. eigenvalues --  -10.26776 -10.26767 -10.26421 -10.26251 -10.26084
 Alpha  occ. eigenvalues --  -10.26023 -10.25943 -10.25795 -10.25423 -10.25406
 Alpha  occ. eigenvalues --  -10.25342 -10.25258 -10.25248 -10.24857 -10.24853
 Alpha  occ. eigenvalues --  -10.24759 -10.24704 -10.24544 -10.24297 -10.24277
 Alpha  occ. eigenvalues --  -10.24263 -10.24114 -10.24097 -10.24063 -10.23778
 Alpha  occ. eigenvalues --  -10.23409  -3.17393  -1.92282  -1.91871  -1.91675
 Alpha  occ. eigenvalues --   -1.16411  -1.15847  -1.10876  -1.08859  -1.08333
 Alpha  occ. eigenvalues --   -1.07532  -1.05127  -1.04427  -1.03918  -1.02981
 Alpha  occ. eigenvalues --   -0.93096  -0.90651  -0.89732  -0.89264  -0.89115
 Alpha  occ. eigenvalues --   -0.88955  -0.88466  -0.88178  -0.86787  -0.86704
 Alpha  occ. eigenvalues --   -0.86098  -0.85441  -0.84531  -0.84157  -0.83557
 Alpha  occ. eigenvalues --   -0.82587  -0.82043  -0.81377  -0.80873  -0.80411
 Alpha  occ. eigenvalues --   -0.79916  -0.78074  -0.77932  -0.77431  -0.76666
 Alpha  occ. eigenvalues --   -0.75547  -0.75303  -0.75142  -0.74466  -0.73972
 Alpha  occ. eigenvalues --   -0.73668  -0.72985  -0.72116  -0.70951  -0.69547
 Alpha  occ. eigenvalues --   -0.69012  -0.67504  -0.67199  -0.66312  -0.66235
 Alpha  occ. eigenvalues --   -0.65305  -0.65204  -0.65065  -0.64708  -0.64538
 Alpha  occ. eigenvalues --   -0.63544  -0.63413  -0.63148  -0.62652  -0.60501
 Alpha  occ. eigenvalues --   -0.60060  -0.59575  -0.59040  -0.58396  -0.58082
 Alpha  occ. eigenvalues --   -0.57152  -0.56592  -0.56396  -0.56210  -0.56055
 Alpha  occ. eigenvalues --   -0.55262  -0.54941  -0.54533  -0.54148  -0.53961
 Alpha  occ. eigenvalues --   -0.53710  -0.53307  -0.53156  -0.52986  -0.52770
 Alpha  occ. eigenvalues --   -0.52724  -0.52517  -0.52211  -0.52004  -0.51731
 Alpha  occ. eigenvalues --   -0.51638  -0.51283  -0.51185  -0.50949  -0.50590
 Alpha  occ. eigenvalues --   -0.50458  -0.50248  -0.49949  -0.49882  -0.49878
 Alpha  occ. eigenvalues --   -0.49625  -0.49485  -0.49280  -0.49008  -0.48863
 Alpha  occ. eigenvalues --   -0.48762  -0.48410  -0.48122  -0.47944  -0.47353
 Alpha  occ. eigenvalues --   -0.47308  -0.47205  -0.47177  -0.46973  -0.46624
 Alpha  occ. eigenvalues --   -0.46463  -0.46427  -0.46022  -0.45771  -0.45758
 Alpha  occ. eigenvalues --   -0.45450  -0.45290  -0.45173  -0.44929  -0.44873
 Alpha  occ. eigenvalues --   -0.44803  -0.44508  -0.44431  -0.44222  -0.44141
 Alpha  occ. eigenvalues --   -0.44128  -0.43762  -0.43486  -0.43286  -0.43067
 Alpha  occ. eigenvalues --   -0.42940  -0.42581  -0.42571  -0.42272  -0.42115
 Alpha  occ. eigenvalues --   -0.41930  -0.41832  -0.41591  -0.41426  -0.41314
 Alpha  occ. eigenvalues --   -0.41279  -0.40665  -0.40519  -0.40340  -0.40112
 Alpha  occ. eigenvalues --   -0.40062  -0.39909  -0.39766  -0.39357  -0.39260
 Alpha  occ. eigenvalues --   -0.38840  -0.38392  -0.38192  -0.37719  -0.37632
 Alpha  occ. eigenvalues --   -0.37303  -0.36923  -0.36801  -0.36639  -0.36477
 Alpha  occ. eigenvalues --   -0.35700  -0.35103  -0.35084  -0.34489  -0.34130
 Alpha  occ. eigenvalues --   -0.33955  -0.33223  -0.33135  -0.31687  -0.31428
 Alpha  occ. eigenvalues --   -0.30583  -0.30356  -0.30081  -0.29977  -0.24598
 Alpha  occ. eigenvalues --   -0.21536
 Alpha virt. eigenvalues --   -0.09235  -0.01382   0.00642   0.01698   0.02411
 Alpha virt. eigenvalues --    0.04428   0.05142   0.05526   0.05776   0.06905
 Alpha virt. eigenvalues --    0.07578   0.08320   0.08471   0.08941   0.09131

 Mulliken charges:
               1
     1  Mg   0.845747
     2  C   -0.012143
     3  C   -0.072264
     4  C   -0.061217
     5  C   -0.115657
     6  N   -0.294962
     7  C    0.014078
     8  C   -0.061212
     9  C   -0.034381
    10  C   -0.014562
    11  C    0.103143
    12  C    0.045244
    13  C    0.032714
    14  C    0.154206
    15  O   -0.247402
    16  O   -0.328009
    17  N   -0.396590
    18  C    0.188155
    19  C   -0.135900
    20  C   -0.050965
    21  C    0.146358
    22  C    0.125807
    23  C   -0.002264
    24  O   -0.187301
    25  C    0.048467
    26  N   -0.282764
    27  C    0.046406
    28  C   -0.057623
    29  C    0.030671
    30  C    0.059219
    31  C    0.058311
    32  C    0.041976
    33  C    0.000651
    34  N   -0.315027
    35  C    0.060382
    36  C   -0.210799
    37  C    0.048368
    38  C    0.092830
    39  C    0.136306
    40  C    0.021500
    41  O   -0.188001
    42  C    0.006316
    43  C    0.183505
    44  O   -0.192706
    45  O   -0.352395
    46  C    0.177702
    47  C    0.286689
    48  C   -0.076464
    49  C   -0.208559
    50  C    0.063728
    51  C    0.057369
    52  C    0.044502
    53  C    0.012010
    54  C   -0.120587
    55  C    0.093647
    56  C    0.053276
    57  C   -0.010260
    58  C    0.071694
    59  C   -0.153089
    60  C    0.029813
    61  C    0.109386
    62  C   -0.012497
    63  C    0.035769
    64  C   -0.167242
    65  C    0.052100
    66  C    0.046072
    67  H   -0.027227
    68  H   -0.061265
    69  H   -0.031071
    70  H    0.009042
    71  H    0.013368
    72  H    0.003894
    73  H    0.031220
    74  H    0.012513
    75  H    0.023618
    76  H    0.023372
    77  H    0.042167
    78  H    0.046276
    79  H    0.037662
    80  H   -0.003369
    81  H    0.028629
    82  H    0.032174
    83  H    0.057515
    84  H    0.024445
    85  H    0.015552
    86  H    0.009133
    87  H    0.035527
    88  H    0.007034
    89  H    0.008256
    90  H    0.018669
    91  H    0.005853
    92  H    0.017302
    93  H    0.015003
    94  H    0.019328
    95  H    0.040506
    96  H    0.029084
    97  H    0.025915
    98  H    0.039728
    99  H    0.036919
   100  H    0.038928
   101  H    0.052890
   102  H    0.010145
   103  H    0.016569
   104  H   -0.011759
   105  H    0.001380
   106  H    0.029109
   107  H    0.031039
   108  H    0.002959
   109  H   -0.007335
   110  H   -0.003618
   111  H   -0.010786
   112  H   -0.009872
   113  H    0.010328
   114  H    0.001829
   115  H    0.011883
   116  H   -0.004906
   117  H   -0.002929
   118  H   -0.008675
   119  H    0.001977
   120  H   -0.018043
   121  H    0.001069
   122  H   -0.015815
   123  H   -0.012951
   124  H    0.005645
   125  H    0.016605
   126  H    0.003001
   127  H   -0.006608
   128  H    0.005615
   129  H   -0.007433
   130  H   -0.000476
   131  H   -0.007543
   132  H   -0.004024
   133  H   -0.000659
   134  H    0.002098
   135  H    0.000629
   136  H   -0.006308
   137  H    0.003516
   138  H    0.014772
   139  H    0.020362
   140  H    0.009345
 Sum of Mulliken charges =  -0.00000

 Dipole moment (field-independent basis, Debye):
    X=              1.4447    Y=              6.0423    Z=             -0.7515  Tot=              6.2579
 Quadrupole moment (field-independent basis, Debye-Ang):
   XX=           -374.6689   YY=           -425.4718   ZZ=           -413.6391
   XY=             23.3037   XZ=            -14.7805   YZ=             39.0898

 Normal termination of Gaussian 16 at Wed May  4 06:24:59 2022.
