 Gaussian 16, Revision A.03,
 Gaussian 16:  ES64L-G16RevA.03 25-Dec-2016

 ---------------------------------
 #p PBE1PBE/Def2SVP td=(nstates=5)
 ---------------------------------

 ------------------------------------------------------
 step_1451_chromophore_14 TDDFT with PBE1PBE functional
 ------------------------------------------------------
 Symbolic Z-matrix:
 Charge =  0 Multiplicity = 1

                         Standard orientation:
 ---------------------------------------------------------------------
 Center     Atomic      Atomic             Coordinates (Angstroms)
 Number     Number       Type             X           Y           Z
 ---------------------------------------------------------------------
      1         12           0        4.970713    1.014675   -0.247629
      2          6           0        4.957509   -2.408316    0.570586
      3          6           0        3.619257    0.199758   -3.361326
      4          6           0        4.008705    4.124510   -0.520947
      5          6           0        5.742391    1.685957    3.197996
      6          7           0        4.381610   -0.867672   -1.234014
      7          6           0        4.556565   -2.140062   -0.705666
      8          6           0        4.064371   -3.174741   -1.691739
      9          6           0        3.828149   -2.341211   -2.995324
     10          6           0        3.896387   -0.907847   -2.513493
     11          6           0        4.710070   -2.718363   -4.175259
     12          6           0        2.858925   -4.129078   -1.309369
     13          6           0        1.622519   -3.296722   -0.807588
     14          6           0        0.311836   -3.484033   -1.618214
     15          8           0        0.015842   -4.570550   -2.120673
     16          8           0       -0.539535   -2.387139   -1.538134
     17          7           0        4.091094    2.027132   -1.778553
     18          6           0        3.679196    1.563587   -3.012329
     19          6           0        3.367315    2.681550   -3.788930
     20          6           0        3.337253    3.827768   -2.977035
     21          6           0        3.888263    3.358790   -1.722893
     22          6           0        3.023636    2.585438   -5.314235
     23          6           0        3.006666    5.254689   -3.495851
     24          8           0        2.572668    5.437803   -4.618026
     25          6           0        3.239745    6.481233   -2.579407
     26          7           0        4.924751    2.613322    1.178957
     27          6           0        4.530153    3.847912    0.716250
     28          6           0        4.744712    4.961847    1.729122
     29          6           0        5.283009    4.133301    2.975904
     30          6           0        5.325996    2.719572    2.455029
     31          6           0        5.638935    6.094600    1.163054
     32          6           0        4.602372    4.247750    4.369224
     33          6           0        5.507618    4.756240    5.507674
     34          7           0        5.458851   -0.036435    1.489565
     35          6           0        5.778768    0.324038    2.776705
     36          6           0        5.934153   -0.826898    3.605714
     37          6           0        5.601075   -1.874025    2.784893
     38          6           0        5.272666   -1.345489    1.528276
     39          6           0        6.382309   -0.907023    5.088836
     40          6           0        5.543037   -3.257849    2.739061
     41          8           0        5.714243   -4.029319    3.680422
     42          6           0        4.916936   -3.668687    1.380893
     43          6           0        5.785326   -4.767281    0.762775
     44          8           0        5.369247   -5.835802    0.380535
     45          8           0        7.050482   -4.276690    0.561258
     46          6           0        7.842340   -4.962585   -0.509819
     47          6           0       -1.898154   -2.675626   -1.939338
     48          6           0       -2.768228   -1.624347   -1.295058
     49          6           0       -3.610942   -0.737745   -1.858277
     50          6           0       -3.951336   -0.726898   -3.310677
     51          6           0       -4.431910    0.357259   -0.998540
     52          6           0       -5.826436    0.026007   -0.578488
     53          6           0       -5.922982   -0.028091    0.969781
     54          6           0       -7.432303    0.001204    1.348968
     55          6           0       -7.625428    0.458181    2.776407
     56          6           0       -7.873597   -1.467282    1.185220
     57          6           0       -9.068317   -1.466258    0.206736
     58          6           0      -10.303566   -2.174292    0.764124
     59          6           0      -11.275087   -1.103043    1.403964
     60          6           0      -11.509423   -1.324806    2.938075
     61          6           0      -12.626927   -0.916578    0.660767
     62          6           0      -13.006582    0.575009    0.564370
     63          6           0      -14.431597    0.890222    1.052820
     64          6           0      -15.114398    1.894113   -0.000242
     65          6           0      -16.295394    2.579625    0.682320
     66          6           0      -15.552081    1.079947   -1.303597
     67          1           0        3.301340   -0.183612   -4.333574
     68          1           0        3.706683    5.166626   -0.641313
     69          1           0        6.100259    1.787492    4.224989
     70          1           0        4.812380   -3.961844   -1.785095
     71          1           0        2.786049   -2.443967   -3.300105
     72          1           0        5.508472   -1.976055   -4.179106
     73          1           0        4.208754   -2.698693   -5.142581
     74          1           0        5.246688   -3.633768   -3.927116
     75          1           0        3.130393   -4.914996   -0.605864
     76          1           0        2.625610   -4.769493   -2.159895
     77          1           0        1.705326   -2.210176   -0.783431
     78          1           0        1.372172   -3.645399    0.194437
     79          1           0        2.058429    3.067659   -5.466043
     80          1           0        2.925578    1.583219   -5.731674
     81          1           0        3.769246    3.064263   -5.947938
     82          1           0        4.232224    6.413588   -2.131788
     83          1           0        2.413591    6.570587   -1.873579
     84          1           0        3.292937    7.367602   -3.211924
     85          1           0        3.795365    5.477738    1.874543
     86          1           0        6.336245    4.396222    3.068197
     87          1           0        5.867476    6.069850    0.097284
     88          1           0        6.520343    6.068536    1.803752
     89          1           0        5.173079    7.065662    1.331623
     90          1           0        4.236417    3.260439    4.650368
     91          1           0        3.744579    4.907468    4.236735
     92          1           0        5.104138    5.717087    5.828791
     93          1           0        6.519083    4.827507    5.109373
     94          1           0        5.512069    4.141707    6.407504
     95          1           0        6.439990   -1.969664    5.324257
     96          1           0        5.614068   -0.360100    5.635255
     97          1           0        7.376140   -0.465334    5.161152
     98          1           0        3.951482   -4.151439    1.531193
     99          1           0        7.103994   -5.406537   -1.178072
    100          1           0        8.310415   -5.817321   -0.021088
    101          1           0        8.600553   -4.368441   -1.020454
    102          1           0       -2.117809   -3.647862   -1.497959
    103          1           0       -2.103691   -2.937004   -2.977234
    104          1           0       -2.616981   -1.478623   -0.225387
    105          1           0       -4.477018    0.177680   -3.616839
    106          1           0       -4.615626   -1.512947   -3.669451
    107          1           0       -3.002356   -0.797138   -3.840921
    108          1           0       -4.287047    1.285363   -1.551159
    109          1           0       -3.794078    0.491505   -0.125491
    110          1           0       -6.084697   -0.920454   -1.054366
    111          1           0       -6.504179    0.711259   -1.085744
    112          1           0       -5.400586    0.862085    1.318679
    113          1           0       -5.295811   -0.887944    1.203287
    114          1           0       -7.892404    0.686653    0.637105
    115          1           0       -7.240013    1.452402    3.004785
    116          1           0       -7.043086   -0.253053    3.361672
    117          1           0       -8.658886    0.253077    3.053360
    118          1           0       -8.123359   -1.924682    2.143200
    119          1           0       -7.074042   -2.109496    0.815745
    120          1           0       -8.750251   -2.054381   -0.654316
    121          1           0       -9.221650   -0.463474   -0.192837
    122          1           0       -9.986300   -2.912870    1.499933
    123          1           0      -10.687818   -2.798766   -0.042143
    124          1           0      -10.661378   -0.202629    1.439511
    125          1           0      -11.079194   -0.518678    3.532446
    126          1           0      -11.113445   -2.274238    3.296380
    127          1           0      -12.574660   -1.387894    3.160062
    128          1           0      -13.416929   -1.428105    1.212318
    129          1           0      -12.384229   -1.207946   -0.360941
    130          1           0      -12.802706    0.921075   -0.449081
    131          1           0      -12.335131    1.166092    1.186975
    132          1           0      -14.361559    1.433751    1.995756
    133          1           0      -14.930523   -0.053778    1.269831
    134          1           0      -14.400820    2.673219   -0.266761
    135          1           0      -16.588477    2.111798    1.622396
    136          1           0      -17.161223    2.556541    0.020207
    137          1           0      -16.154726    3.617389    0.984230
    138          1           0      -16.145384    1.756428   -1.918174
    139          1           0      -16.131269    0.202548   -1.013503
    140          1           0      -14.589360    0.870140   -1.768994
 ---------------------------------------------------------------------

 SCF Done:  E(RPBE1PBE) =  -3005.36644931     A.U. after   15 cycles

 Excitation energies and oscillator strengths:

 Excited State   1:      Singlet-A      1.8616 eV  666.02 nm  f=0.3629  <S**2>=0.000
     245 -> 248        0.15863
     246 -> 247        0.69757
     246 <- 247       -0.11701
 This state for optimization and/or second-order correction.
 Total Energy, E(TD-HF/TD-DFT) =  -3005.29803760
 Copying the excited state density for this state as the 1-particle RhoCI density.

 Excited State   2:      Singlet-A      2.2982 eV  539.47 nm  f=0.1409  <S**2>=0.000
     245 -> 247        0.65794
     246 -> 248       -0.24689

 Excited State   3:      Singlet-A      2.8027 eV  442.37 nm  f=0.0003  <S**2>=0.000
     244 -> 247        0.68264
     244 -> 249        0.13224

 Excited State   4:      Singlet-A      3.0339 eV  408.67 nm  f=0.0026  <S**2>=0.000
     242 -> 247        0.69993

 Excited State   5:      Singlet-A      3.1275 eV  396.43 nm  f=0.0007  <S**2>=0.000
     240 -> 247        0.52113
     240 -> 249       -0.11013
     241 -> 247        0.44104

 The electronic state is 1-A.
 Alpha  occ. eigenvalues --  -46.92147 -19.25900 -19.25737 -19.20830 -19.20116
 Alpha  occ. eigenvalues --  -19.19738 -19.18304 -14.42029 -14.41441 -14.39363
 Alpha  occ. eigenvalues --  -14.39003 -10.36749 -10.36390 -10.33154 -10.30781
 Alpha  occ. eigenvalues --  -10.29662 -10.29065 -10.28990 -10.28677 -10.28566
 Alpha  occ. eigenvalues --  -10.28490 -10.27799 -10.27595 -10.27032 -10.26440
 Alpha  occ. eigenvalues --  -10.26283 -10.26003 -10.25956 -10.25947 -10.25759
 Alpha  occ. eigenvalues --  -10.25642 -10.25506 -10.25364 -10.25184 -10.24930
 Alpha  occ. eigenvalues --  -10.24777 -10.24753 -10.24707 -10.24443 -10.24383
 Alpha  occ. eigenvalues --  -10.24251 -10.24044 -10.23952 -10.23834 -10.23765
 Alpha  occ. eigenvalues --  -10.23594 -10.23412 -10.23101 -10.23059 -10.22956
 Alpha  occ. eigenvalues --  -10.22952 -10.22944 -10.22603 -10.22438 -10.22373
 Alpha  occ. eigenvalues --  -10.22273 -10.22145 -10.22098 -10.21847 -10.21840
 Alpha  occ. eigenvalues --  -10.21666 -10.21653 -10.21594 -10.21507 -10.21273
 Alpha  occ. eigenvalues --  -10.21139  -3.14348  -1.87178  -1.86746  -1.86553
 Alpha  occ. eigenvalues --   -1.11200  -1.10658  -1.05490  -1.03717  -1.03214
 Alpha  occ. eigenvalues --   -1.02399  -0.99846  -0.99044  -0.98536  -0.97566
 Alpha  occ. eigenvalues --   -0.87520  -0.84731  -0.84051  -0.83416  -0.83387
 Alpha  occ. eigenvalues --   -0.83147  -0.82588  -0.82475  -0.81143  -0.80874
 Alpha  occ. eigenvalues --   -0.80303  -0.79645  -0.78710  -0.78507  -0.77772
 Alpha  occ. eigenvalues --   -0.76750  -0.76274  -0.75521  -0.75181  -0.74670
 Alpha  occ. eigenvalues --   -0.74045  -0.72421  -0.72216  -0.71645  -0.70962
 Alpha  occ. eigenvalues --   -0.69845  -0.69439  -0.69203  -0.68603  -0.68287
 Alpha  occ. eigenvalues --   -0.67966  -0.67280  -0.66491  -0.65267  -0.63927
 Alpha  occ. eigenvalues --   -0.63549  -0.61894  -0.61420  -0.60708  -0.60470
 Alpha  occ. eigenvalues --   -0.59853  -0.59631  -0.59301  -0.59220  -0.58664
 Alpha  occ. eigenvalues --   -0.58068  -0.57731  -0.57556  -0.56845  -0.55001
 Alpha  occ. eigenvalues --   -0.54697  -0.53989  -0.53603  -0.52933  -0.52763
 Alpha  occ. eigenvalues --   -0.51555  -0.51091  -0.50796  -0.50668  -0.50538
 Alpha  occ. eigenvalues --   -0.49873  -0.49452  -0.49041  -0.48756  -0.48443
 Alpha  occ. eigenvalues --   -0.48161  -0.47876  -0.47739  -0.47497  -0.47217
 Alpha  occ. eigenvalues --   -0.47186  -0.46967  -0.46730  -0.46517  -0.46272
 Alpha  occ. eigenvalues --   -0.46082  -0.45830  -0.45687  -0.45550  -0.45185
 Alpha  occ. eigenvalues --   -0.45001  -0.44739  -0.44519  -0.44472  -0.44387
 Alpha  occ. eigenvalues --   -0.44179  -0.44007  -0.43879  -0.43662  -0.43487
 Alpha  occ. eigenvalues --   -0.43345  -0.43117  -0.42780  -0.42482  -0.42086
 Alpha  occ. eigenvalues --   -0.41970  -0.41897  -0.41820  -0.41679  -0.41253
 Alpha  occ. eigenvalues --   -0.41094  -0.41032  -0.40781  -0.40474  -0.40327
 Alpha  occ. eigenvalues --   -0.40178  -0.40007  -0.39930  -0.39603  -0.39538
 Alpha  occ. eigenvalues --   -0.39497  -0.39223  -0.39102  -0.38897  -0.38871
 Alpha  occ. eigenvalues --   -0.38816  -0.38602  -0.38250  -0.37979  -0.37842
 Alpha  occ. eigenvalues --   -0.37718  -0.37500  -0.37398  -0.37002  -0.36938
 Alpha  occ. eigenvalues --   -0.36816  -0.36623  -0.36317  -0.36289  -0.36242
 Alpha  occ. eigenvalues --   -0.36000  -0.35567  -0.35320  -0.35237  -0.34973
 Alpha  occ. eigenvalues --   -0.34877  -0.34759  -0.34529  -0.34309  -0.34030
 Alpha  occ. eigenvalues --   -0.33569  -0.33166  -0.33157  -0.32517  -0.32461
 Alpha  occ. eigenvalues --   -0.32327  -0.31866  -0.31720  -0.31531  -0.31435
 Alpha  occ. eigenvalues --   -0.30616  -0.30048  -0.29936  -0.29661  -0.29041
 Alpha  occ. eigenvalues --   -0.28786  -0.28756  -0.28192  -0.27201  -0.26219
 Alpha  occ. eigenvalues --   -0.26077  -0.25810  -0.25345  -0.25105  -0.21489
 Alpha  occ. eigenvalues --   -0.19148
 Alpha virt. eigenvalues --   -0.11632  -0.04939  -0.03528  -0.02112  -0.00989
 Alpha virt. eigenvalues --   -0.00056   0.00396   0.01272   0.01351   0.02863
 Alpha virt. eigenvalues --    0.03740   0.04328   0.05105   0.05736   0.05856

 Mulliken charges:
               1
     1  Mg   0.989981
     2  C   -0.010937
     3  C   -0.063979
     4  C   -0.057580
     5  C   -0.101555
     6  N   -0.402613
     7  C    0.089417
     8  C   -0.129137
     9  C   -0.115070
    10  C    0.028463
    11  C    0.043698
    12  C   -0.002484
    13  C   -0.047873
    14  C    0.220970
    15  O   -0.277528
    16  O   -0.357941
    17  N   -0.515872
    18  C    0.204776
    19  C   -0.161841
    20  C   -0.093746
    21  C    0.176253
    22  C    0.071301
    23  C    0.048752
    24  O   -0.222888
    25  C   -0.034698
    26  N   -0.390268
    27  C    0.074607
    28  C   -0.126398
    29  C   -0.042370
    30  C    0.093636
    31  C    0.000431
    32  C   -0.022909
    33  C   -0.070983
    34  N   -0.444187
    35  C    0.086609
    36  C   -0.213849
    37  C   -0.010869
    38  C    0.146730
    39  C    0.077419
    40  C    0.125112
    41  O   -0.233377
    42  C   -0.126018
    43  C    0.280362
    44  O   -0.231284
    45  O   -0.380185
    46  C    0.122399
    47  C    0.244486
    48  C   -0.091601
    49  C   -0.248940
    50  C    0.003474
    51  C   -0.003748
    52  C   -0.009201
    53  C   -0.051762
    54  C   -0.216876
    55  C    0.027052
    56  C    0.014024
    57  C   -0.080753
    58  C    0.019768
    59  C   -0.236290
    60  C   -0.024992
    61  C    0.043278
    62  C   -0.065393
    63  C   -0.020422
    64  C   -0.262206
    65  C   -0.006060
    66  C   -0.016957
    67  H    0.004843
    68  H   -0.023618
    69  H    0.002555
    70  H    0.051702
    71  H    0.053948
    72  H    0.033288
    73  H    0.056975
    74  H    0.039909
    75  H    0.054500
    76  H    0.054759
    77  H    0.075827
    78  H    0.079049
    79  H    0.064138
    80  H    0.023122
    81  H    0.055502
    82  H    0.059880
    83  H    0.083259
    84  H    0.052770
    85  H    0.051830
    86  H    0.047741
    87  H    0.063111
    88  H    0.034868
    89  H    0.035959
    90  H    0.051658
    91  H    0.039717
    92  H    0.045318
    93  H    0.041795
    94  H    0.046329
    95  H    0.068846
    96  H    0.057020
    97  H    0.054334
    98  H    0.076321
    99  H    0.057098
   100  H    0.061466
   101  H    0.074100
   102  H    0.038718
   103  H    0.041919
   104  H    0.018204
   105  H    0.028545
   106  H    0.055778
   107  H    0.058603
   108  H    0.035766
   109  H    0.025033
   110  H    0.030095
   111  H    0.020733
   112  H    0.024068
   113  H    0.043590
   114  H    0.037896
   115  H    0.039635
   116  H    0.024136
   117  H    0.031016
   118  H    0.022155
   119  H    0.033566
   120  H    0.016422
   121  H    0.032328
   122  H    0.016495
   123  H    0.018566
   124  H    0.046289
   125  H    0.042740
   126  H    0.029445
   127  H    0.020792
   128  H    0.036975
   129  H    0.027543
   130  H    0.030611
   131  H    0.025628
   132  H    0.029793
   133  H    0.029987
   134  H    0.039431
   135  H    0.027861
   136  H    0.021156
   137  H    0.031082
   138  H    0.042879
   139  H    0.047400
   140  H    0.037843
 Sum of Mulliken charges =  -0.00000

 Dipole moment (field-independent basis, Debye):
    X=              1.5747    Y=              5.8986    Z=             -0.4042  Tot=              6.1185
 Quadrupole moment (field-independent basis, Debye-Ang):
   XX=           -371.1268   YY=           -422.1537   ZZ=           -409.4197
   XY=             22.9865   XZ=            -12.8797   YZ=             40.4776

 Normal termination of Gaussian 16 at Wed May  4 06:42:54 2022.
