 Gaussian 16, Revision A.03,
 Gaussian 16:  ES64L-G16RevA.03 25-Dec-2016

 --------------------------------
 #p wB97XD/Def2SVP td=(nstates=5)
 --------------------------------

 -----------------------------------------------------
 step_1451_chromophore_14 TDDFT with wB97XD functional
 -----------------------------------------------------
 Symbolic Z-matrix:
 Charge =  0 Multiplicity = 1

                         Standard orientation:
 ---------------------------------------------------------------------
 Center     Atomic      Atomic             Coordinates (Angstroms)
 Number     Number       Type             X           Y           Z
 ---------------------------------------------------------------------
      1         12           0        4.970713    1.014675   -0.247629
      2          6           0        4.957509   -2.408316    0.570586
      3          6           0        3.619257    0.199758   -3.361326
      4          6           0        4.008705    4.124510   -0.520947
      5          6           0        5.742391    1.685957    3.197996
      6          7           0        4.381610   -0.867672   -1.234014
      7          6           0        4.556565   -2.140062   -0.705666
      8          6           0        4.064371   -3.174741   -1.691739
      9          6           0        3.828149   -2.341211   -2.995324
     10          6           0        3.896387   -0.907847   -2.513493
     11          6           0        4.710070   -2.718363   -4.175259
     12          6           0        2.858925   -4.129078   -1.309369
     13          6           0        1.622519   -3.296722   -0.807588
     14          6           0        0.311836   -3.484033   -1.618214
     15          8           0        0.015842   -4.570550   -2.120673
     16          8           0       -0.539535   -2.387139   -1.538134
     17          7           0        4.091094    2.027132   -1.778553
     18          6           0        3.679196    1.563587   -3.012329
     19          6           0        3.367315    2.681550   -3.788930
     20          6           0        3.337253    3.827768   -2.977035
     21          6           0        3.888263    3.358790   -1.722893
     22          6           0        3.023636    2.585438   -5.314235
     23          6           0        3.006666    5.254689   -3.495851
     24          8           0        2.572668    5.437803   -4.618026
     25          6           0        3.239745    6.481233   -2.579407
     26          7           0        4.924751    2.613322    1.178957
     27          6           0        4.530153    3.847912    0.716250
     28          6           0        4.744712    4.961847    1.729122
     29          6           0        5.283009    4.133301    2.975904
     30          6           0        5.325996    2.719572    2.455029
     31          6           0        5.638935    6.094600    1.163054
     32          6           0        4.602372    4.247750    4.369224
     33          6           0        5.507618    4.756240    5.507674
     34          7           0        5.458851   -0.036435    1.489565
     35          6           0        5.778768    0.324038    2.776705
     36          6           0        5.934153   -0.826898    3.605714
     37          6           0        5.601075   -1.874025    2.784893
     38          6           0        5.272666   -1.345489    1.528276
     39          6           0        6.382309   -0.907023    5.088836
     40          6           0        5.543037   -3.257849    2.739061
     41          8           0        5.714243   -4.029319    3.680422
     42          6           0        4.916936   -3.668687    1.380893
     43          6           0        5.785326   -4.767281    0.762775
     44          8           0        5.369247   -5.835802    0.380535
     45          8           0        7.050482   -4.276690    0.561258
     46          6           0        7.842340   -4.962585   -0.509819
     47          6           0       -1.898154   -2.675626   -1.939338
     48          6           0       -2.768228   -1.624347   -1.295058
     49          6           0       -3.610942   -0.737745   -1.858277
     50          6           0       -3.951336   -0.726898   -3.310677
     51          6           0       -4.431910    0.357259   -0.998540
     52          6           0       -5.826436    0.026007   -0.578488
     53          6           0       -5.922982   -0.028091    0.969781
     54          6           0       -7.432303    0.001204    1.348968
     55          6           0       -7.625428    0.458181    2.776407
     56          6           0       -7.873597   -1.467282    1.185220
     57          6           0       -9.068317   -1.466258    0.206736
     58          6           0      -10.303566   -2.174292    0.764124
     59          6           0      -11.275087   -1.103043    1.403964
     60          6           0      -11.509423   -1.324806    2.938075
     61          6           0      -12.626927   -0.916578    0.660767
     62          6           0      -13.006582    0.575009    0.564370
     63          6           0      -14.431597    0.890222    1.052820
     64          6           0      -15.114398    1.894113   -0.000242
     65          6           0      -16.295394    2.579625    0.682320
     66          6           0      -15.552081    1.079947   -1.303597
     67          1           0        3.301340   -0.183612   -4.333574
     68          1           0        3.706683    5.166626   -0.641313
     69          1           0        6.100259    1.787492    4.224989
     70          1           0        4.812380   -3.961844   -1.785095
     71          1           0        2.786049   -2.443967   -3.300105
     72          1           0        5.508472   -1.976055   -4.179106
     73          1           0        4.208754   -2.698693   -5.142581
     74          1           0        5.246688   -3.633768   -3.927116
     75          1           0        3.130393   -4.914996   -0.605864
     76          1           0        2.625610   -4.769493   -2.159895
     77          1           0        1.705326   -2.210176   -0.783431
     78          1           0        1.372172   -3.645399    0.194437
     79          1           0        2.058429    3.067659   -5.466043
     80          1           0        2.925578    1.583219   -5.731674
     81          1           0        3.769246    3.064263   -5.947938
     82          1           0        4.232224    6.413588   -2.131788
     83          1           0        2.413591    6.570587   -1.873579
     84          1           0        3.292937    7.367602   -3.211924
     85          1           0        3.795365    5.477738    1.874543
     86          1           0        6.336245    4.396222    3.068197
     87          1           0        5.867476    6.069850    0.097284
     88          1           0        6.520343    6.068536    1.803752
     89          1           0        5.173079    7.065662    1.331623
     90          1           0        4.236417    3.260439    4.650368
     91          1           0        3.744579    4.907468    4.236735
     92          1           0        5.104138    5.717087    5.828791
     93          1           0        6.519083    4.827507    5.109373
     94          1           0        5.512069    4.141707    6.407504
     95          1           0        6.439990   -1.969664    5.324257
     96          1           0        5.614068   -0.360100    5.635255
     97          1           0        7.376140   -0.465334    5.161152
     98          1           0        3.951482   -4.151439    1.531193
     99          1           0        7.103994   -5.406537   -1.178072
    100          1           0        8.310415   -5.817321   -0.021088
    101          1           0        8.600553   -4.368441   -1.020454
    102          1           0       -2.117809   -3.647862   -1.497959
    103          1           0       -2.103691   -2.937004   -2.977234
    104          1           0       -2.616981   -1.478623   -0.225387
    105          1           0       -4.477018    0.177680   -3.616839
    106          1           0       -4.615626   -1.512947   -3.669451
    107          1           0       -3.002356   -0.797138   -3.840921
    108          1           0       -4.287047    1.285363   -1.551159
    109          1           0       -3.794078    0.491505   -0.125491
    110          1           0       -6.084697   -0.920454   -1.054366
    111          1           0       -6.504179    0.711259   -1.085744
    112          1           0       -5.400586    0.862085    1.318679
    113          1           0       -5.295811   -0.887944    1.203287
    114          1           0       -7.892404    0.686653    0.637105
    115          1           0       -7.240013    1.452402    3.004785
    116          1           0       -7.043086   -0.253053    3.361672
    117          1           0       -8.658886    0.253077    3.053360
    118          1           0       -8.123359   -1.924682    2.143200
    119          1           0       -7.074042   -2.109496    0.815745
    120          1           0       -8.750251   -2.054381   -0.654316
    121          1           0       -9.221650   -0.463474   -0.192837
    122          1           0       -9.986300   -2.912870    1.499933
    123          1           0      -10.687818   -2.798766   -0.042143
    124          1           0      -10.661378   -0.202629    1.439511
    125          1           0      -11.079194   -0.518678    3.532446
    126          1           0      -11.113445   -2.274238    3.296380
    127          1           0      -12.574660   -1.387894    3.160062
    128          1           0      -13.416929   -1.428105    1.212318
    129          1           0      -12.384229   -1.207946   -0.360941
    130          1           0      -12.802706    0.921075   -0.449081
    131          1           0      -12.335131    1.166092    1.186975
    132          1           0      -14.361559    1.433751    1.995756
    133          1           0      -14.930523   -0.053778    1.269831
    134          1           0      -14.400820    2.673219   -0.266761
    135          1           0      -16.588477    2.111798    1.622396
    136          1           0      -17.161223    2.556541    0.020207
    137          1           0      -16.154726    3.617389    0.984230
    138          1           0      -16.145384    1.756428   -1.918174
    139          1           0      -16.131269    0.202548   -1.013503
    140          1           0      -14.589360    0.870140   -1.768994
 ---------------------------------------------------------------------

 SCF Done:  E(RwB97XD) =  -3007.87874465     A.U. after   19 cycles

 Excitation energies and oscillator strengths:

 Excited State   1:      Singlet-A      1.6475 eV  752.58 nm  f=0.3782  <S**2>=0.000
     245 -> 248        0.16875
     246 -> 247        0.68807
     245 <- 248        0.11324
 This state for optimization and/or second-order correction.
 Total Energy, E(TD-HF/TD-DFT) =  -3007.81820185
 Copying the excited state density for this state as the 1-particle RhoCI density.

 Excited State   2:      Singlet-A      2.2296 eV  556.09 nm  f=0.1445  <S**2>=0.000
     245 -> 247        0.64762
     246 -> 248       -0.26830

 Excited State   3:      Singlet-A      3.3661 eV  368.34 nm  f=0.0007  <S**2>=0.000
     241 -> 247        0.48556
     242 -> 247        0.46541
     244 -> 247       -0.12933

 Excited State   4:      Singlet-A      3.4092 eV  363.68 nm  f=0.0031  <S**2>=0.000
     242 -> 249       -0.10067
     242 -> 250        0.10065
     244 -> 247        0.60111
     244 -> 249       -0.21823
     244 -> 250        0.12392

 Excited State   5:      Singlet-A      3.5515 eV  349.11 nm  f=0.0018  <S**2>=0.000
     241 -> 247       -0.43138
     242 -> 247        0.45518
     242 -> 249       -0.13712
     244 -> 247       -0.10255
     244 -> 250        0.11283
     246 -> 248       -0.15432

 The electronic state is 1-A.
 Alpha  occ. eigenvalues --  -46.95116 -19.30447 -19.30256 -19.25480 -19.24754
 Alpha  occ. eigenvalues --  -19.24713 -19.22943 -14.47177 -14.46515 -14.44445
 Alpha  occ. eigenvalues --  -14.43835 -10.43512 -10.43141 -10.40126 -10.37505
 Alpha  occ. eigenvalues --  -10.36152 -10.35561 -10.35491 -10.35141 -10.35128
 Alpha  occ. eigenvalues --  -10.34776 -10.34238 -10.33909 -10.33046 -10.32543
 Alpha  occ. eigenvalues --  -10.32532 -10.32368 -10.32367 -10.32239 -10.32108
 Alpha  occ. eigenvalues --  -10.31979 -10.31938 -10.31819 -10.31585 -10.31305
 Alpha  occ. eigenvalues --  -10.31120 -10.31094 -10.31076 -10.30851 -10.30714
 Alpha  occ. eigenvalues --  -10.30689 -10.30663 -10.30288 -10.30217 -10.30036
 Alpha  occ. eigenvalues --  -10.29884 -10.29759 -10.29752 -10.29352 -10.29336
 Alpha  occ. eigenvalues --  -10.29334 -10.29225 -10.29074 -10.28790 -10.28760
 Alpha  occ. eigenvalues --  -10.28627 -10.28582 -10.28464 -10.28203 -10.28188
 Alpha  occ. eigenvalues --  -10.28110 -10.28001 -10.27965 -10.27938 -10.27569
 Alpha  occ. eigenvalues --  -10.27365  -3.21172  -1.94751  -1.94319  -1.94125
 Alpha  occ. eigenvalues --   -1.18554  -1.18019  -1.13123  -1.11047  -1.10527
 Alpha  occ. eigenvalues --   -1.09723  -1.07131  -1.06500  -1.05923  -1.05006
 Alpha  occ. eigenvalues --   -0.95055  -0.92401  -0.91666  -0.91057  -0.90970
 Alpha  occ. eigenvalues --   -0.90793  -0.90256  -0.90114  -0.88647  -0.88547
 Alpha  occ. eigenvalues --   -0.88102  -0.87319  -0.86376  -0.86044  -0.85445
 Alpha  occ. eigenvalues --   -0.84412  -0.83957  -0.83301  -0.82808  -0.82303
 Alpha  occ. eigenvalues --   -0.81716  -0.79986  -0.79829  -0.79378  -0.78590
 Alpha  occ. eigenvalues --   -0.77499  -0.77128  -0.76921  -0.76282  -0.75865
 Alpha  occ. eigenvalues --   -0.75569  -0.74900  -0.74073  -0.72886  -0.71458
 Alpha  occ. eigenvalues --   -0.71001  -0.69524  -0.69063  -0.68207  -0.68105
 Alpha  occ. eigenvalues --   -0.67308  -0.67171  -0.66885  -0.66710  -0.66342
 Alpha  occ. eigenvalues --   -0.65506  -0.65225  -0.65126  -0.64479  -0.62524
 Alpha  occ. eigenvalues --   -0.62051  -0.61494  -0.61007  -0.60360  -0.60088
 Alpha  occ. eigenvalues --   -0.59033  -0.58579  -0.58260  -0.58159  -0.57972
 Alpha  occ. eigenvalues --   -0.57223  -0.56859  -0.56445  -0.56092  -0.55848
 Alpha  occ. eigenvalues --   -0.55591  -0.55193  -0.55101  -0.54894  -0.54698
 Alpha  occ. eigenvalues --   -0.54612  -0.54437  -0.54126  -0.53905  -0.53640
 Alpha  occ. eigenvalues --   -0.53487  -0.53161  -0.53052  -0.52849  -0.52518
 Alpha  occ. eigenvalues --   -0.52374  -0.52180  -0.51843  -0.51776  -0.51740
 Alpha  occ. eigenvalues --   -0.51588  -0.51384  -0.51178  -0.50896  -0.50776
 Alpha  occ. eigenvalues --   -0.50645  -0.50387  -0.50017  -0.49805  -0.49268
 Alpha  occ. eigenvalues --   -0.49183  -0.49131  -0.49101  -0.48907  -0.48495
 Alpha  occ. eigenvalues --   -0.48433  -0.48329  -0.47933  -0.47678  -0.47590
 Alpha  occ. eigenvalues --   -0.47367  -0.47215  -0.47123  -0.46795  -0.46737
 Alpha  occ. eigenvalues --   -0.46712  -0.46412  -0.46294  -0.46079  -0.46067
 Alpha  occ. eigenvalues --   -0.46015  -0.45687  -0.45464  -0.45297  -0.45007
 Alpha  occ. eigenvalues --   -0.44840  -0.44524  -0.44444  -0.44121  -0.44055
 Alpha  occ. eigenvalues --   -0.43879  -0.43740  -0.43428  -0.43325  -0.43236
 Alpha  occ. eigenvalues --   -0.43122  -0.42583  -0.42355  -0.42236  -0.42012
 Alpha  occ. eigenvalues --   -0.41924  -0.41821  -0.41609  -0.41304  -0.41096
 Alpha  occ. eigenvalues --   -0.40656  -0.40234  -0.40118  -0.39571  -0.39474
 Alpha  occ. eigenvalues --   -0.39352  -0.38883  -0.38790  -0.38504  -0.38466
 Alpha  occ. eigenvalues --   -0.37549  -0.37053  -0.36928  -0.36472  -0.35991
 Alpha  occ. eigenvalues --   -0.35838  -0.35388  -0.35049  -0.33844  -0.33451
 Alpha  occ. eigenvalues --   -0.32734  -0.32457  -0.32092  -0.31990  -0.26516
 Alpha  occ. eigenvalues --   -0.23346
 Alpha virt. eigenvalues --   -0.07583   0.00535   0.02775   0.04373   0.04951
 Alpha virt. eigenvalues --    0.06760   0.07305   0.08006   0.08029   0.09515
 Alpha virt. eigenvalues --    0.10284   0.10948   0.11762   0.12402   0.12506

 Mulliken charges:
               1
     1  Mg   0.980688
     2  C   -0.014516
     3  C   -0.082531
     4  C   -0.070229
     5  C   -0.122299
     6  N   -0.365671
     7  C    0.049878
     8  C   -0.095494
     9  C   -0.089097
    10  C    0.012750
    11  C    0.053934
    12  C    0.007478
    13  C   -0.028124
    14  C    0.210780
    15  O   -0.276067
    16  O   -0.357657
    17  N   -0.483098
    18  C    0.203215
    19  C   -0.154595
    20  C   -0.089661
    21  C    0.171987
    22  C    0.082011
    23  C    0.043433
    24  O   -0.217387
    25  C   -0.016407
    26  N   -0.355663
    27  C    0.069117
    28  C   -0.105798
    29  C   -0.016639
    30  C    0.085769
    31  C    0.011581
    32  C   -0.007384
    33  C   -0.054242
    34  N   -0.405080
    35  C    0.073818
    36  C   -0.216413
    37  C   -0.002921
    38  C    0.126694
    39  C    0.091108
    40  C    0.100447
    41  O   -0.223972
    42  C   -0.076445
    43  C    0.253211
    44  O   -0.224788
    45  O   -0.381282
    46  C    0.138947
    47  C    0.257396
    48  C   -0.099573
    49  C   -0.234484
    50  C    0.012797
    51  C    0.017210
    52  C    0.000385
    53  C   -0.027701
    54  C   -0.182050
    55  C    0.047507
    56  C    0.018788
    57  C   -0.056639
    58  C    0.032452
    59  C   -0.201500
    60  C   -0.013923
    61  C    0.064423
    62  C   -0.052885
    63  C   -0.006526
    64  C   -0.230354
    65  C    0.003652
    66  C   -0.003320
    67  H   -0.000535
    68  H   -0.039292
    69  H   -0.004078
    70  H    0.033812
    71  H    0.040518
    72  H    0.025683
    73  H    0.053309
    74  H    0.034992
    75  H    0.046738
    76  H    0.048130
    77  H    0.065824
    78  H    0.073694
    79  H    0.060331
    80  H    0.019154
    81  H    0.052352
    82  H    0.051573
    83  H    0.079718
    84  H    0.051589
    85  H    0.042419
    86  H    0.031505
    87  H    0.055636
    88  H    0.029015
    89  H    0.030993
    90  H    0.042591
    91  H    0.031672
    92  H    0.039408
    93  H    0.034765
    94  H    0.041266
    95  H    0.064272
    96  H    0.050923
    97  H    0.048430
    98  H    0.069825
    99  H    0.051903
   100  H    0.057536
   101  H    0.071423
   102  H    0.032953
   103  H    0.038021
   104  H    0.015238
   105  H    0.023779
   106  H    0.051064
   107  H    0.052242
   108  H    0.028662
   109  H    0.014206
   110  H    0.018349
   111  H    0.013244
   112  H    0.014196
   113  H    0.032067
   114  H    0.024296
   115  H    0.035170
   116  H    0.015904
   117  H    0.017902
   118  H    0.011886
   119  H    0.025185
   120  H    0.008708
   121  H    0.020884
   122  H    0.006748
   123  H    0.012066
   124  H    0.022887
   125  H    0.037508
   126  H    0.023360
   127  H    0.013863
   128  H    0.025965
   129  H    0.018158
   130  H    0.020853
   131  H    0.016738
   132  H    0.021097
   133  H    0.020604
   134  H    0.029243
   135  H    0.021520
   136  H    0.015098
   137  H    0.026132
   138  H    0.036675
   139  H    0.041369
   140  H    0.030030
 Sum of Mulliken charges =  -0.00000

 Dipole moment (field-independent basis, Debye):
    X=              1.4695    Y=              6.2008    Z=             -0.8608  Tot=              6.4305
 Quadrupole moment (field-independent basis, Debye-Ang):
   XX=           -370.9826   YY=           -421.3880   ZZ=           -409.0607
   XY=             23.7690   XZ=            -15.0920   YZ=             39.4693

 Normal termination of Gaussian 16 at Wed May  4 07:09:07 2022.
