 Gaussian 16, Revision A.03,
 Gaussian 16:  ES64L-G16RevA.03 25-Dec-2016

 --------------------
 #p ZINDO=(nstates=5)
 --------------------

 ------------------------------
 step_1451_chromophore_14 ZINDO
 ------------------------------
 Symbolic Z-matrix:
 Charge =  0 Multiplicity = 1

                         Standard orientation:
 ---------------------------------------------------------------------
 Center     Atomic      Atomic             Coordinates (Angstroms)
 Number     Number       Type             X           Y           Z
 ---------------------------------------------------------------------
      1         12           0        4.970713    1.014675   -0.247629
      2          6           0        4.957509   -2.408316    0.570586
      3          6           0        3.619257    0.199758   -3.361326
      4          6           0        4.008705    4.124510   -0.520947
      5          6           0        5.742391    1.685957    3.197996
      6          7           0        4.381610   -0.867672   -1.234014
      7          6           0        4.556565   -2.140062   -0.705666
      8          6           0        4.064371   -3.174741   -1.691739
      9          6           0        3.828149   -2.341211   -2.995324
     10          6           0        3.896387   -0.907847   -2.513493
     11          6           0        4.710070   -2.718363   -4.175259
     12          6           0        2.858925   -4.129078   -1.309369
     13          6           0        1.622519   -3.296722   -0.807588
     14          6           0        0.311836   -3.484033   -1.618214
     15          8           0        0.015842   -4.570550   -2.120673
     16          8           0       -0.539535   -2.387139   -1.538134
     17          7           0        4.091094    2.027132   -1.778553
     18          6           0        3.679196    1.563587   -3.012329
     19          6           0        3.367315    2.681550   -3.788930
     20          6           0        3.337253    3.827768   -2.977035
     21          6           0        3.888263    3.358790   -1.722893
     22          6           0        3.023636    2.585438   -5.314235
     23          6           0        3.006666    5.254689   -3.495851
     24          8           0        2.572668    5.437803   -4.618026
     25          6           0        3.239745    6.481233   -2.579407
     26          7           0        4.924751    2.613322    1.178957
     27          6           0        4.530153    3.847912    0.716250
     28          6           0        4.744712    4.961847    1.729122
     29          6           0        5.283009    4.133301    2.975904
     30          6           0        5.325996    2.719572    2.455029
     31          6           0        5.638935    6.094600    1.163054
     32          6           0        4.602372    4.247750    4.369224
     33          6           0        5.507618    4.756240    5.507674
     34          7           0        5.458851   -0.036435    1.489565
     35          6           0        5.778768    0.324038    2.776705
     36          6           0        5.934153   -0.826898    3.605714
     37          6           0        5.601075   -1.874025    2.784893
     38          6           0        5.272666   -1.345489    1.528276
     39          6           0        6.382309   -0.907023    5.088836
     40          6           0        5.543037   -3.257849    2.739061
     41          8           0        5.714243   -4.029319    3.680422
     42          6           0        4.916936   -3.668687    1.380893
     43          6           0        5.785326   -4.767281    0.762775
     44          8           0        5.369247   -5.835802    0.380535
     45          8           0        7.050482   -4.276690    0.561258
     46          6           0        7.842340   -4.962585   -0.509819
     47          6           0       -1.898154   -2.675626   -1.939338
     48          6           0       -2.768228   -1.624347   -1.295058
     49          6           0       -3.610942   -0.737745   -1.858277
     50          6           0       -3.951336   -0.726898   -3.310677
     51          6           0       -4.431910    0.357259   -0.998540
     52          6           0       -5.826436    0.026007   -0.578488
     53          6           0       -5.922982   -0.028091    0.969781
     54          6           0       -7.432303    0.001204    1.348968
     55          6           0       -7.625428    0.458181    2.776407
     56          6           0       -7.873597   -1.467282    1.185220
     57          6           0       -9.068317   -1.466258    0.206736
     58          6           0      -10.303566   -2.174292    0.764124
     59          6           0      -11.275087   -1.103043    1.403964
     60          6           0      -11.509423   -1.324806    2.938075
     61          6           0      -12.626927   -0.916578    0.660767
     62          6           0      -13.006582    0.575009    0.564370
     63          6           0      -14.431597    0.890222    1.052820
     64          6           0      -15.114398    1.894113   -0.000242
     65          6           0      -16.295394    2.579625    0.682320
     66          6           0      -15.552081    1.079947   -1.303597
     67          1           0        3.301340   -0.183612   -4.333574
     68          1           0        3.706683    5.166626   -0.641313
     69          1           0        6.100259    1.787492    4.224989
     70          1           0        4.812380   -3.961844   -1.785095
     71          1           0        2.786049   -2.443967   -3.300105
     72          1           0        5.508472   -1.976055   -4.179106
     73          1           0        4.208754   -2.698693   -5.142581
     74          1           0        5.246688   -3.633768   -3.927116
     75          1           0        3.130393   -4.914996   -0.605864
     76          1           0        2.625610   -4.769493   -2.159895
     77          1           0        1.705326   -2.210176   -0.783431
     78          1           0        1.372172   -3.645399    0.194437
     79          1           0        2.058429    3.067659   -5.466043
     80          1           0        2.925578    1.583219   -5.731674
     81          1           0        3.769246    3.064263   -5.947938
     82          1           0        4.232224    6.413588   -2.131788
     83          1           0        2.413591    6.570587   -1.873579
     84          1           0        3.292937    7.367602   -3.211924
     85          1           0        3.795365    5.477738    1.874543
     86          1           0        6.336245    4.396222    3.068197
     87          1           0        5.867476    6.069850    0.097284
     88          1           0        6.520343    6.068536    1.803752
     89          1           0        5.173079    7.065662    1.331623
     90          1           0        4.236417    3.260439    4.650368
     91          1           0        3.744579    4.907468    4.236735
     92          1           0        5.104138    5.717087    5.828791
     93          1           0        6.519083    4.827507    5.109373
     94          1           0        5.512069    4.141707    6.407504
     95          1           0        6.439990   -1.969664    5.324257
     96          1           0        5.614068   -0.360100    5.635255
     97          1           0        7.376140   -0.465334    5.161152
     98          1           0        3.951482   -4.151439    1.531193
     99          1           0        7.103994   -5.406537   -1.178072
    100          1           0        8.310415   -5.817321   -0.021088
    101          1           0        8.600553   -4.368441   -1.020454
    102          1           0       -2.117809   -3.647862   -1.497959
    103          1           0       -2.103691   -2.937004   -2.977234
    104          1           0       -2.616981   -1.478623   -0.225387
    105          1           0       -4.477018    0.177680   -3.616839
    106          1           0       -4.615626   -1.512947   -3.669451
    107          1           0       -3.002356   -0.797138   -3.840921
    108          1           0       -4.287047    1.285363   -1.551159
    109          1           0       -3.794078    0.491505   -0.125491
    110          1           0       -6.084697   -0.920454   -1.054366
    111          1           0       -6.504179    0.711259   -1.085744
    112          1           0       -5.400586    0.862085    1.318679
    113          1           0       -5.295811   -0.887944    1.203287
    114          1           0       -7.892404    0.686653    0.637105
    115          1           0       -7.240013    1.452402    3.004785
    116          1           0       -7.043086   -0.253053    3.361672
    117          1           0       -8.658886    0.253077    3.053360
    118          1           0       -8.123359   -1.924682    2.143200
    119          1           0       -7.074042   -2.109496    0.815745
    120          1           0       -8.750251   -2.054381   -0.654316
    121          1           0       -9.221650   -0.463474   -0.192837
    122          1           0       -9.986300   -2.912870    1.499933
    123          1           0      -10.687818   -2.798766   -0.042143
    124          1           0      -10.661378   -0.202629    1.439511
    125          1           0      -11.079194   -0.518678    3.532446
    126          1           0      -11.113445   -2.274238    3.296380
    127          1           0      -12.574660   -1.387894    3.160062
    128          1           0      -13.416929   -1.428105    1.212318
    129          1           0      -12.384229   -1.207946   -0.360941
    130          1           0      -12.802706    0.921075   -0.449081
    131          1           0      -12.335131    1.166092    1.186975
    132          1           0      -14.361559    1.433751    1.995756
    133          1           0      -14.930523   -0.053778    1.269831
    134          1           0      -14.400820    2.673219   -0.266761
    135          1           0      -16.588477    2.111798    1.622396
    136          1           0      -17.161223    2.556541    0.020207
    137          1           0      -16.154726    3.617389    0.984230
    138          1           0      -16.145384    1.756428   -1.918174
    139          1           0      -16.131269    0.202548   -1.013503
    140          1           0      -14.589360    0.870140   -1.768994
 ---------------------------------------------------------------------

 SCF Done:  E(RZINDO/S) =  -474.475869226     A.U. after   19 cycles

 Excitation energies and oscillator strengths:

 Excited State   1:      Singlet-A      1.2525 eV  989.86 nm  f=0.6177  <S**2>=0.000
     175 ->178         0.17221
     176 ->177         0.66881
 This state for optimization and/or second-order correction.
 Total Energy, E(CIS/TDA) =  -474.429839100
 Copying the excited state density for this state as the 1-particle RhoCI density.

 Excited State   2:      Singlet-A      1.9792 eV  626.44 nm  f=0.0743  <S**2>=0.000
     175 ->177         0.56255
     176 ->178        -0.39908

 Excited State   3:      Singlet-A      2.8441 eV  435.93 nm  f=0.0025  <S**2>=0.000
     170 ->177        -0.14702
     170 ->179        -0.16352
     170 ->181        -0.18389
     171 ->177         0.25800
     171 ->178        -0.10353
     171 ->179         0.26042
     171 ->181         0.28566
     171 ->185         0.13559
     173 ->177         0.18868
     173 ->179         0.13265
     173 ->181         0.13396

 Excited State   4:      Singlet-A      3.0524 eV  406.18 nm  f=0.2917  <S**2>=0.000
     167 ->179        -0.12377
     168 ->177         0.21830
     168 ->178        -0.11981
     168 ->179        -0.30309
     168 ->181         0.23355
     168 ->185        -0.18344
     175 ->177        -0.19625
     176 ->178        -0.28232
     176 ->179         0.20758

 Excited State   5:      Singlet-A      3.0585 eV  405.38 nm  f=0.5840  <S**2>=0.000
     168 ->177         0.14550
     168 ->179        -0.22478
     168 ->181         0.17732
     168 ->185        -0.13604
     170 ->177         0.11658
     175 ->177         0.28387
     176 ->178         0.41774
     176 ->179        -0.15143
     176 ->181        -0.12812

 The electronic state is 1-A.
 Alpha  occ. eigenvalues --   -1.86914  -1.83894  -1.81564  -1.73821  -1.72317
 Alpha  occ. eigenvalues --   -1.71796  -1.67592  -1.60940  -1.59350  -1.58808
 Alpha  occ. eigenvalues --   -1.54263  -1.50858  -1.48480  -1.47805  -1.47400
 Alpha  occ. eigenvalues --   -1.46326  -1.43288  -1.42120  -1.38809  -1.38776
 Alpha  occ. eigenvalues --   -1.35797  -1.33262  -1.33071  -1.30966  -1.28395
 Alpha  occ. eigenvalues --   -1.27993  -1.27596  -1.23531  -1.21224  -1.18677
 Alpha  occ. eigenvalues --   -1.16104  -1.15499  -1.14580  -1.14263  -1.13303
 Alpha  occ. eigenvalues --   -1.12874  -1.10443  -1.09006  -1.05834  -1.04997
 Alpha  occ. eigenvalues --   -1.03576  -1.02231  -1.00340  -0.98202  -0.96606
 Alpha  occ. eigenvalues --   -0.96248  -0.94577  -0.94106  -0.93567  -0.92883
 Alpha  occ. eigenvalues --   -0.92228  -0.90540  -0.88572  -0.87947  -0.87742
 Alpha  occ. eigenvalues --   -0.85855  -0.84546  -0.83494  -0.82565  -0.80669
 Alpha  occ. eigenvalues --   -0.80143  -0.78526  -0.77442  -0.77410  -0.76614
 Alpha  occ. eigenvalues --   -0.76465  -0.75786  -0.74427  -0.73383  -0.72862
 Alpha  occ. eigenvalues --   -0.72715  -0.72370  -0.71673  -0.71107  -0.70422
 Alpha  occ. eigenvalues --   -0.70036  -0.69394  -0.68812  -0.68593  -0.68117
 Alpha  occ. eigenvalues --   -0.67950  -0.66883  -0.66264  -0.66059  -0.65830
 Alpha  occ. eigenvalues --   -0.65207  -0.64969  -0.64072  -0.63947  -0.63627
 Alpha  occ. eigenvalues --   -0.63021  -0.62473  -0.62319  -0.61973  -0.61656
 Alpha  occ. eigenvalues --   -0.61542  -0.61361  -0.60388  -0.60112  -0.59998
 Alpha  occ. eigenvalues --   -0.59659  -0.59550  -0.59344  -0.58838  -0.58406
 Alpha  occ. eigenvalues --   -0.57853  -0.57576  -0.57542  -0.56779  -0.56277
 Alpha  occ. eigenvalues --   -0.56011  -0.55810  -0.55706  -0.55402  -0.55241
 Alpha  occ. eigenvalues --   -0.55060  -0.54401  -0.53999  -0.53589  -0.53285
 Alpha  occ. eigenvalues --   -0.52652  -0.52360  -0.52211  -0.51919  -0.51807
 Alpha  occ. eigenvalues --   -0.51435  -0.51275  -0.50884  -0.50573  -0.50318
 Alpha  occ. eigenvalues --   -0.49959  -0.49886  -0.49443  -0.49313  -0.49082
 Alpha  occ. eigenvalues --   -0.48473  -0.48370  -0.48183  -0.48000  -0.47788
 Alpha  occ. eigenvalues --   -0.47716  -0.47510  -0.47381  -0.47094  -0.47041
 Alpha  occ. eigenvalues --   -0.46857  -0.46739  -0.46201  -0.45977  -0.45620
 Alpha  occ. eigenvalues --   -0.45370  -0.44987  -0.44545  -0.44432  -0.44357
 Alpha  occ. eigenvalues --   -0.43311  -0.42402  -0.42366  -0.42171  -0.42096
 Alpha  occ. eigenvalues --   -0.41863  -0.41640  -0.40354  -0.39503  -0.38816
 Alpha  occ. eigenvalues --   -0.38423  -0.37391  -0.36434  -0.34998  -0.34312
 Alpha  occ. eigenvalues --   -0.34090  -0.33307  -0.32540  -0.32449  -0.27529
 Alpha  occ. eigenvalues --   -0.22386
 Alpha virt. eigenvalues --   -0.09270  -0.02166  -0.00507   0.00943   0.01306
 Alpha virt. eigenvalues --    0.01723   0.02645   0.02888   0.04216   0.05012
 Alpha virt. eigenvalues --    0.05884   0.06418   0.07345   0.07816   0.07994

 Mulliken charges:
               1
     1  Mg   0.432442
     2  C   -0.034747
     3  C   -0.074662
     4  C   -0.096011
     5  C   -0.063385
     6  N   -0.291552
     7  C    0.106546
     8  C   -0.004940
     9  C    0.010435
    10  C    0.153898
    11  C   -0.047117
    12  C   -0.024637
    13  C    0.003595
    14  C    0.452126
    15  O   -0.517949
    16  O   -0.262685
    17  N   -0.327014
    18  C    0.131798
    19  C    0.047943
    20  C   -0.050042
    21  C    0.147502
    22  C   -0.045495
    23  C    0.325820
    24  O   -0.503612
    25  C   -0.030486
    26  N   -0.283039
    27  C    0.149954
    28  C   -0.000015
    29  C   -0.000734
    30  C    0.120599
    31  C   -0.052656
    32  C   -0.026857
    33  C   -0.058296
    34  N   -0.306136
    35  C    0.070882
    36  C    0.012160
    37  C   -0.051089
    38  C    0.098790
    39  C   -0.043810
    40  C    0.326583
    41  O   -0.539059
    42  C    0.059233
    43  C    0.485532
    44  O   -0.515541
    45  O   -0.276541
    46  C    0.067855
    47  C    0.107394
    48  C   -0.084154
    49  C   -0.013989
    50  C   -0.043272
    51  C   -0.028445
    52  C   -0.028815
    53  C   -0.035973
    54  C   -0.009093
    55  C   -0.058213
    56  C   -0.032163
    57  C   -0.039004
    58  C   -0.036231
    59  C   -0.020325
    60  C   -0.064148
    61  C   -0.036406
    62  C   -0.044228
    63  C   -0.040005
    64  C   -0.016763
    65  C   -0.060222
    66  C   -0.060599
    67  H    0.036279
    68  H    0.020775
    69  H    0.024302
    70  H    0.029532
    71  H    0.026742
    72  H    0.014449
    73  H    0.032707
    74  H    0.027984
    75  H    0.038525
    76  H    0.034498
    77  H    0.039562
    78  H    0.048343
    79  H    0.038485
    80  H    0.017862
    81  H    0.037130
    82  H    0.033107
    83  H    0.047910
    84  H    0.033409
    85  H    0.032266
    86  H    0.030637
    87  H    0.031316
    88  H    0.021713
    89  H    0.014236
    90  H    0.026199
    91  H    0.018447
    92  H    0.018446
    93  H    0.024187
    94  H    0.023454
    95  H    0.041674
    96  H    0.033797
    97  H    0.030643
    98  H    0.065206
    99  H    0.044323
   100  H    0.040930
   101  H    0.046232
   102  H    0.039247
   103  H    0.055656
   104  H    0.027061
   105  H    0.015687
   106  H    0.029826
   107  H    0.023904
   108  H    0.020724
   109  H    0.011211
   110  H    0.017212
   111  H    0.017512
   112  H    0.010315
   113  H    0.032843
   114  H    0.030888
   115  H    0.022984
   116  H    0.012089
   117  H    0.019764
   118  H    0.019945
   119  H    0.020490
   120  H    0.002379
   121  H    0.027025
   122  H    0.018243
   123  H    0.016737
   124  H    0.022768
   125  H    0.018946
   126  H    0.017109
   127  H    0.013994
   128  H    0.037212
   129  H    0.022999
   130  H    0.019236
   131  H    0.013019
   132  H    0.013496
   133  H    0.030427
   134  H    0.026504
   135  H    0.014935
   136  H    0.012827
   137  H    0.015558
   138  H    0.020135
   139  H    0.029794
   140  H    0.023054
 Sum of Mulliken charges =  -0.00000

 Dipole moment (field-independent basis, Debye):
    X=              1.2307    Y=              8.9742    Z=             -1.7463  Tot=              9.2250
 N-N= 4.358719495148D+03 E-N= 0.000000000000D+00  KE=-9.391401774369D+03
 Leave Link  601 at Wed May  4 07:21:46 2022, MaxMem=  6710886400 cpu:               0.8 elap:               0.1
 (Enter /sw/apps/gaussian-16.0/g16/l9999.exe)
 1\1\GINC-BP1-COMPUTE058\SP\RZINDO CIS\STO-3G\C55H74Mg1N4O6\OF15641\04-
 May-2022\0\\#p ZINDO=(nstates=5)\\step_1451_chromophore_14 ZINDO\\0,1\
 Mg,0,46.592,45.017,42.786\C,0,43.18,44.154,42.785\C,0,47.34,41.76,41.7
 77\C,0,49.496,46.116,41.771\C,0,45.576,48.441,43.189\N,0,45.393,43.218
 ,42.351\C,0,44.017,43.113,42.507\C,0,43.567,41.716,42.145\C,0,44.914,4
 0.929,42.018\C,0,45.96,42.023,41.998\C,0,45.106,39.805,43.024\C,0,42.5
 71,41.489,40.934\C,0,43.104,42.19,39.631\C,0,43.342,41.256,38.414\O,0,

 Normal termination of Gaussian 16 at Wed May  4 07:21:46 2022.
