 Gaussian 16, Revision A.03,
 Gaussian 16:  ES64L-G16RevA.03 25-Dec-2016

 ------------------------------
 #p blyp/Def2SVP td=(nstates=5)
 ------------------------------

 ---------------------------------------------------
 step_1101_chromophore_20 TDDFT with blyp functional
 ---------------------------------------------------
 Symbolic Z-matrix:
 Charge =  0 Multiplicity = 1

                         Standard orientation:
 ---------------------------------------------------------------------
 Center     Atomic      Atomic             Coordinates (Angstroms)
 Number     Number       Type             X           Y           Z
 ---------------------------------------------------------------------
      1         12           0        4.015543    1.333808   -0.365724
      2          6           0        4.338863   -1.995094   -0.942221
      3          6           0        1.728993    1.523281   -3.047092
      4          6           0        3.292696    4.634057    0.385639
      5          6           0        6.250505    1.059398    2.319338
      6          7           0        2.904610   -0.098053   -1.602538
      7          6           0        3.262685   -1.469020   -1.615567
      8          6           0        2.430735   -2.187837   -2.702382
      9          6           0        1.853441   -0.942222   -3.506276
     10          6           0        2.255622    0.280187   -2.766238
     11          6           0        2.079982   -1.102997   -5.084681
     12          6           0        1.157835   -2.931252   -2.086407
     13          6           0        0.410739   -3.950148   -2.903531
     14          6           0       -0.566421   -4.859752   -2.175404
     15          8           0       -0.593287   -6.070254   -2.355216
     16          8           0       -1.129158   -4.194537   -1.115139
     17          7           0        2.578625    2.846261   -1.192268
     18          6           0        1.751927    2.723517   -2.270426
     19          6           0        1.034389    3.960414   -2.478122
     20          6           0        1.656314    4.912702   -1.582662
     21          6           0        2.520463    4.182673   -0.673471
     22          6           0        0.058891    4.189435   -3.641513
     23          6           0        1.372197    6.345744   -1.654189
     24          8           0        0.568891    6.737864   -2.507299
     25          6           0        1.923524    7.344714   -0.771449
     26          7           0        4.586606    2.579006    1.094280
     27          6           0        4.265154    4.006359    1.158077
     28          6           0        5.083272    4.738295    2.281368
     29          6           0        5.892901    3.544113    2.897882
     30          6           0        5.582771    2.290844    2.011509
     31          6           0        5.843061    5.930574    1.795774
     32          6           0        5.623998    3.271876    4.472332
     33          6           0        6.873872    3.121930    5.344275
     34          7           0        5.264152   -0.133905    0.488628
     35          6           0        6.023730   -0.119736    1.641956
     36          6           0        6.563179   -1.462865    1.811718
     37          6           0        6.038557   -2.232705    0.783280
     38          6           0        5.145569   -1.395298    0.084371
     39          6           0        7.496464   -1.932095    2.950475
     40          6           0        5.909955   -3.533865    0.235374
     41          8           0        6.403483   -4.585419    0.676803
     42          6           0        4.863519   -3.377975   -0.988381
     43          6           0        3.904216   -4.515928   -0.746570
     44          8           0        3.569923   -5.023746    0.277753
     45          8           0        3.541300   -5.011031   -2.005990
     46          6           0        2.791069   -6.304601   -2.049305
     47          6           0       -2.071605   -5.040211   -0.268786
     48          6           0       -3.226133   -4.347032    0.399978
     49          6           0       -4.329821   -4.859328    0.973585
     50          6           0       -4.614847   -6.374608    1.152203
     51          6           0       -5.398095   -3.894713    1.420376
     52          6           0       -5.260562   -3.216217    2.800216
     53          6           0       -6.473711   -3.211451    3.689352
     54          6           0       -6.948881   -1.775609    4.029938
     55          6           0       -7.732146   -1.760119    5.316739
     56          6           0       -7.787122   -1.232391    2.843616
     57          6           0       -8.067287    0.301758    2.866978
     58          6           0       -7.160469    1.179036    1.980341
     59          6           0       -7.773232    1.698094    0.630404
     60          6           0       -7.341324    0.758937   -0.602513
     61          6           0       -7.427946    3.165278    0.389404
     62          6           0       -7.984278    3.726749   -0.976649
     63          6           0       -9.538058    3.991648   -0.810666
     64          6           0      -10.306120    3.039946   -1.780641
     65          6           0      -11.263728    3.891511   -2.668563
     66          6           0      -11.337455    2.017566   -1.144184
     67          1           0        1.311746    1.655941   -4.048243
     68          1           0        3.250115    5.687237    0.670541
     69          1           0        6.853911    1.207256    3.217708
     70          1           0        2.912631   -2.961668   -3.301704
     71          1           0        0.778334   -0.836651   -3.358762
     72          1           0        1.110380   -1.140203   -5.581124
     73          1           0        2.559767   -2.064468   -5.272195
     74          1           0        2.668225   -0.330239   -5.579738
     75          1           0        0.489343   -2.165812   -1.691707
     76          1           0        1.545535   -3.409982   -1.187337
     77          1           0        1.116664   -4.488936   -3.536236
     78          1           0       -0.330892   -3.474881   -3.545979
     79          1           0       -0.214429    3.217321   -4.053458
     80          1           0        0.598356    4.767040   -4.392691
     81          1           0       -0.795541    4.731017   -3.235660
     82          1           0        3.013483    7.365980   -0.790294
     83          1           0        1.574489    7.197469    0.250207
     84          1           0        1.648192    8.302312   -1.213434
     85          1           0        4.218824    4.976639    2.900471
     86          1           0        6.947498    3.805733    2.806598
     87          1           0        5.561964    6.044667    0.749055
     88          1           0        6.924555    5.819662    1.870274
     89          1           0        5.477067    6.820440    2.307531
     90          1           0        4.909714    2.514882    4.795136
     91          1           0        5.134131    4.158699    4.875047
     92          1           0        6.735451    2.341393    6.092619
     93          1           0        7.193668    4.106629    5.683208
     94          1           0        7.677067    2.737733    4.715391
     95          1           0        8.429022   -1.477707    2.614707
     96          1           0        7.602958   -3.012313    2.849053
     97          1           0        7.257434   -1.647550    3.975173
     98          1           0        5.349659   -3.577526   -1.943553
     99          1           0        3.570951   -7.047761   -1.883253
    100          1           0        2.290531   -6.457286   -3.005432
    101          1           0        1.955203   -6.375779   -1.353305
    102          1           0       -1.557874   -5.594293    0.516673
    103          1           0       -2.629737   -5.673791   -0.959095
    104          1           0       -3.158180   -3.266466    0.276585
    105          1           0       -5.543400   -6.761764    0.732461
    106          1           0       -4.492164   -6.572468    2.217337
    107          1           0       -3.735625   -6.819409    0.686510
    108          1           0       -6.361143   -4.395396    1.325559
    109          1           0       -5.413735   -3.082511    0.692829
    110          1           0       -4.853738   -2.210143    2.704829
    111          1           0       -4.573737   -3.945964    3.229088
    112          1           0       -6.084425   -3.787892    4.527941
    113          1           0       -7.159833   -3.786957    3.067272
    114          1           0       -6.048968   -1.160660    4.044119
    115          1           0       -6.983767   -1.354253    5.997917
    116          1           0       -8.083980   -2.768885    5.531571
    117          1           0       -8.601426   -1.108214    5.231221
    118          1           0       -8.743015   -1.756969    2.852137
    119          1           0       -7.190201   -1.446418    1.956796
    120          1           0       -7.889137    0.610920    3.896571
    121          1           0       -9.095284    0.410949    2.524843
    122          1           0       -6.277446    0.605988    1.699945
    123          1           0       -6.914077    2.070734    2.557637
    124          1           0       -8.848622    1.583426    0.770665
    125          1           0       -7.065743   -0.251357   -0.300513
    126          1           0       -6.487149    1.100350   -1.186906
    127          1           0       -8.187641    0.723020   -1.287612
    128          1           0       -6.348641    3.283250    0.490030
    129          1           0       -7.758974    3.805823    1.206191
    130          1           0       -7.744822    3.009353   -1.760797
    131          1           0       -7.355520    4.604499   -1.123018
    132          1           0       -9.740097    5.054397   -0.943405
    133          1           0       -9.824600    3.708088    0.202237
    134          1           0       -9.673556    2.397381   -2.393013
    135          1           0      -10.828538    4.875715   -2.841197
    136          1           0      -12.205423    4.098731   -2.160358
    137          1           0      -11.485398    3.395846   -3.613397
    138          1           0      -12.195947    1.883599   -1.802448
    139          1           0      -11.777155    2.461922   -0.251716
    140          1           0      -10.852055    1.055261   -0.981076
 ---------------------------------------------------------------------

 SCF Done:  E(RB-LYP) =  -3007.33771567     A.U. after   23 cycles

 Excitation energies and oscillator strengths:

 Excited State   1:      Singlet-A      1.5314 eV  809.60 nm  f=0.0013  <S**2>=0.000
     244 -> 247        0.64674
     245 -> 247       -0.28137
 This state for optimization and/or second-order correction.
 Total Energy, E(TD-HF/TD-DFT) =  -3007.28143697
 Copying the excited state density for this state as the 1-particle RhoCI density.

 Excited State   2:      Singlet-A      1.7014 eV  728.73 nm  f=0.2309  <S**2>=0.000
     243 -> 247        0.25150
     245 -> 247        0.11318
     245 -> 248        0.13686
     246 -> 247        0.63990
     246 <- 247       -0.16006

 Excited State   3:      Singlet-A      1.7649 eV  702.51 nm  f=0.0853  <S**2>=0.000
     243 -> 247        0.54335
     244 -> 247        0.13037
     245 -> 247        0.31010
     246 -> 247       -0.28605

 Excited State   4:      Singlet-A      1.9297 eV  642.51 nm  f=0.0466  <S**2>=0.000
     240 -> 247        0.10603
     242 -> 247        0.16520
     243 -> 247       -0.36586
     244 -> 247        0.20397
     245 -> 247        0.49201
     246 -> 248       -0.18655

 Excited State   5:      Singlet-A      2.1301 eV  582.07 nm  f=0.0164  <S**2>=0.000
     241 -> 247       -0.22563
     242 -> 247        0.63662
     245 -> 247       -0.10247
     246 -> 248        0.12258

 The electronic state is 1-A.
 Alpha  occ. eigenvalues --  -46.27064 -18.83175 -18.81085 -18.77231 -18.76892
 Alpha  occ. eigenvalues --  -18.75667 -18.74325 -14.04090 -14.03432 -14.01027
 Alpha  occ. eigenvalues --  -14.00627 -10.04710 -10.03486  -9.99453  -9.98567
 Alpha  occ. eigenvalues --   -9.98499  -9.97601  -9.97445  -9.97303  -9.96957
 Alpha  occ. eigenvalues --   -9.96861  -9.96061  -9.95852  -9.95426  -9.95009
 Alpha  occ. eigenvalues --   -9.94997  -9.94686  -9.94434  -9.94192  -9.94095
 Alpha  occ. eigenvalues --   -9.94080  -9.94059  -9.93816  -9.93627  -9.93539
 Alpha  occ. eigenvalues --   -9.93475  -9.93332  -9.93112  -9.93003  -9.92908
 Alpha  occ. eigenvalues --   -9.92887  -9.92816  -9.92752  -9.92560  -9.92460
 Alpha  occ. eigenvalues --   -9.92191  -9.92138  -9.92094  -9.91939  -9.91744
 Alpha  occ. eigenvalues --   -9.91687  -9.91505  -9.91477  -9.91294  -9.91190
 Alpha  occ. eigenvalues --   -9.91075  -9.91025  -9.90924  -9.90868  -9.90842
 Alpha  occ. eigenvalues --   -9.90786  -9.90777  -9.90760  -9.90643  -9.90567
 Alpha  occ. eigenvalues --   -9.90430  -2.91672  -1.72100  -1.71535  -1.71404
 Alpha  occ. eigenvalues --   -0.97661  -0.97135  -0.90605  -0.90256  -0.90034
 Alpha  occ. eigenvalues --   -0.89532  -0.86951  -0.84847  -0.84019  -0.83246
 Alpha  occ. eigenvalues --   -0.76137  -0.74080  -0.72960  -0.72725  -0.72382
 Alpha  occ. eigenvalues --   -0.72070  -0.71943  -0.71143  -0.70356  -0.70066
 Alpha  occ. eigenvalues --   -0.69287  -0.68610  -0.68559  -0.68391  -0.67623
 Alpha  occ. eigenvalues --   -0.66503  -0.66432  -0.65425  -0.64971  -0.64742
 Alpha  occ. eigenvalues --   -0.63610  -0.62712  -0.62429  -0.61829  -0.61018
 Alpha  occ. eigenvalues --   -0.60498  -0.59934  -0.59684  -0.59077  -0.58573
 Alpha  occ. eigenvalues --   -0.58375  -0.57771  -0.57134  -0.55750  -0.54610
 Alpha  occ. eigenvalues --   -0.54428  -0.54252  -0.52983  -0.52109  -0.51873
 Alpha  occ. eigenvalues --   -0.51434  -0.50843  -0.50695  -0.50622  -0.49918
 Alpha  occ. eigenvalues --   -0.49433  -0.48797  -0.48138  -0.48017  -0.46327
 Alpha  occ. eigenvalues --   -0.46238  -0.45855  -0.45396  -0.45179  -0.44151
 Alpha  occ. eigenvalues --   -0.44126  -0.43720  -0.43159  -0.43107  -0.42379
 Alpha  occ. eigenvalues --   -0.42309  -0.41915  -0.41560  -0.41296  -0.41057
 Alpha  occ. eigenvalues --   -0.40768  -0.40676  -0.40390  -0.40348  -0.40253
 Alpha  occ. eigenvalues --   -0.40171  -0.39974  -0.39669  -0.39397  -0.39033
 Alpha  occ. eigenvalues --   -0.39003  -0.38897  -0.38824  -0.38598  -0.38386
 Alpha  occ. eigenvalues --   -0.38197  -0.38094  -0.37509  -0.37351  -0.37276
 Alpha  occ. eigenvalues --   -0.37046  -0.37023  -0.36929  -0.36827  -0.36501
 Alpha  occ. eigenvalues --   -0.36308  -0.36044  -0.35794  -0.35755  -0.35536
 Alpha  occ. eigenvalues --   -0.35338  -0.35254  -0.35144  -0.35077  -0.34811
 Alpha  occ. eigenvalues --   -0.34638  -0.34590  -0.34325  -0.33885  -0.33842
 Alpha  occ. eigenvalues --   -0.33770  -0.33634  -0.33453  -0.33419  -0.33326
 Alpha  occ. eigenvalues --   -0.33196  -0.33090  -0.33011  -0.32598  -0.32324
 Alpha  occ. eigenvalues --   -0.32048  -0.31896  -0.31791  -0.31508  -0.31309
 Alpha  occ. eigenvalues --   -0.31258  -0.30967  -0.30842  -0.30573  -0.30387
 Alpha  occ. eigenvalues --   -0.30335  -0.30081  -0.30045  -0.29858  -0.29717
 Alpha  occ. eigenvalues --   -0.29651  -0.29161  -0.29040  -0.28870  -0.28727
 Alpha  occ. eigenvalues --   -0.28627  -0.28299  -0.28292  -0.27800  -0.27614
 Alpha  occ. eigenvalues --   -0.27566  -0.27391  -0.26828  -0.26693  -0.26338
 Alpha  occ. eigenvalues --   -0.26195  -0.25957  -0.25842  -0.25510  -0.25347
 Alpha  occ. eigenvalues --   -0.24959  -0.24778  -0.24732  -0.24287  -0.24050
 Alpha  occ. eigenvalues --   -0.23361  -0.22847  -0.21906  -0.21635  -0.20824
 Alpha  occ. eigenvalues --   -0.20166  -0.19579  -0.18794  -0.17911  -0.17742
 Alpha  occ. eigenvalues --   -0.16075
 Alpha virt. eigenvalues --   -0.12324  -0.07450  -0.06348  -0.04902  -0.03296
 Alpha virt. eigenvalues --   -0.02715  -0.02109  -0.02048  -0.01872   0.00007
 Alpha virt. eigenvalues --    0.00655   0.01550   0.01914   0.02371   0.02765

 Mulliken charges:
               1
     1  Mg   0.674771
     2  C    0.080604
     3  C   -0.092895
     4  C   -0.035109
     5  C   -0.088983
     6  N   -0.267865
     7  C   -0.019402
     8  C   -0.000539
     9  C    0.023027
    10  C    0.072973
    11  C    0.117649
    12  C    0.068132
    13  C    0.170507
    14  C    0.083431
    15  O   -0.196938
    16  O   -0.285476
    17  N   -0.267654
    18  C    0.119876
    19  C   -0.163132
    20  C    0.059946
    21  C    0.162674
    22  C    0.209396
    23  C   -0.131885
    24  O   -0.192075
    25  C    0.166032
    26  N   -0.318150
    27  C   -0.046715
    28  C    0.021861
    29  C    0.025760
    30  C    0.054014
    31  C    0.168195
    32  C    0.064508
    33  C    0.053168
    34  N   -0.257674
    35  C    0.190265
    36  C   -0.193203
    37  C    0.150078
    38  C    0.020746
    39  C    0.168117
    40  C   -0.058703
    41  O   -0.141386
    42  C    0.033744
    43  C    0.102874
    44  O   -0.126073
    45  O   -0.324836
    46  C    0.206325
    47  C    0.292198
    48  C   -0.107854
    49  C   -0.180875
    50  C    0.152443
    51  C    0.118509
    52  C    0.068990
    53  C    0.138730
    54  C   -0.111327
    55  C    0.156772
    56  C    0.055859
    57  C    0.104238
    58  C    0.104752
    59  C   -0.061625
    60  C    0.074198
    61  C    0.050460
    62  C    0.085696
    63  C    0.144045
    64  C   -0.107673
    65  C    0.084571
    66  C    0.085673
    67  H   -0.045643
    68  H   -0.083307
    69  H   -0.066384
    70  H   -0.017884
    71  H   -0.008501
    72  H   -0.011205
    73  H   -0.010806
    74  H   -0.002903
    75  H   -0.024421
    76  H   -0.012672
    77  H   -0.008236
    78  H   -0.012947
    79  H   -0.025898
    80  H    0.010816
    81  H    0.013499
    82  H   -0.002448
    83  H    0.020843
    84  H   -0.013144
    85  H   -0.012709
    86  H   -0.028669
    87  H   -0.007645
    88  H   -0.003720
    89  H   -0.005642
    90  H   -0.014013
    91  H   -0.031036
    92  H   -0.001477
    93  H   -0.000020
    94  H   -0.008429
    95  H   -0.000404
    96  H    0.010395
    97  H    0.009246
    98  H    0.002590
    99  H    0.020025
   100  H    0.020499
   101  H    0.025307
   102  H    0.031274
   103  H    0.026834
   104  H   -0.032982
   105  H    0.017930
   106  H    0.000058
   107  H   -0.027008
   108  H   -0.043692
   109  H   -0.030710
   110  H   -0.021662
   111  H   -0.043817
   112  H   -0.035762
   113  H   -0.043437
   114  H   -0.041404
   115  H   -0.010391
   116  H   -0.010986
   117  H   -0.017728
   118  H   -0.036741
   119  H   -0.033515
   120  H   -0.032313
   121  H   -0.029424
   122  H   -0.034713
   123  H   -0.043294
   124  H   -0.038096
   125  H   -0.017782
   126  H   -0.011422
   127  H   -0.011100
   128  H   -0.041869
   129  H   -0.036834
   130  H   -0.025125
   131  H   -0.033954
   132  H   -0.020874
   133  H   -0.025654
   134  H   -0.017934
   135  H   -0.027666
   136  H   -0.018846
   137  H   -0.014571
   138  H   -0.020049
   139  H   -0.018241
   140  H   -0.007315
 Sum of Mulliken charges =  -0.00000

 Dipole moment (field-independent basis, Debye):
    X=              0.2075    Y=              3.4479    Z=              1.2719  Tot=              3.6809
 Quadrupole moment (field-independent basis, Debye-Ang):
   XX=           -391.5601   YY=           -434.7123   ZZ=           -391.8585
   XY=             49.7384   XZ=              0.4521   YZ=             27.9454

 Normal termination of Gaussian 16 at Wed May  4 00:15:39 2022.
