 Gaussian 16, Revision A.03,
 Gaussian 16:  ES64L-G16RevA.03 25-Dec-2016

 -----------------------------------
 #p cam-b3lyp/Def2SVP td=(nstates=5)
 -----------------------------------

 --------------------------------------------------------
 step_1101_chromophore_20 TDDFT with cam-b3lyp functional
 --------------------------------------------------------
 Symbolic Z-matrix:
 Charge =  0 Multiplicity = 1

                         Standard orientation:
 ---------------------------------------------------------------------
 Center     Atomic      Atomic             Coordinates (Angstroms)
 Number     Number       Type             X           Y           Z
 ---------------------------------------------------------------------
      1         12           0        4.015543    1.333808   -0.365724
      2          6           0        4.338863   -1.995094   -0.942221
      3          6           0        1.728993    1.523281   -3.047092
      4          6           0        3.292696    4.634057    0.385639
      5          6           0        6.250505    1.059398    2.319338
      6          7           0        2.904610   -0.098053   -1.602538
      7          6           0        3.262685   -1.469020   -1.615567
      8          6           0        2.430735   -2.187837   -2.702382
      9          6           0        1.853441   -0.942222   -3.506276
     10          6           0        2.255622    0.280187   -2.766238
     11          6           0        2.079982   -1.102997   -5.084681
     12          6           0        1.157835   -2.931252   -2.086407
     13          6           0        0.410739   -3.950148   -2.903531
     14          6           0       -0.566421   -4.859752   -2.175404
     15          8           0       -0.593287   -6.070254   -2.355216
     16          8           0       -1.129158   -4.194537   -1.115139
     17          7           0        2.578625    2.846261   -1.192268
     18          6           0        1.751927    2.723517   -2.270426
     19          6           0        1.034389    3.960414   -2.478122
     20          6           0        1.656314    4.912702   -1.582662
     21          6           0        2.520463    4.182673   -0.673471
     22          6           0        0.058891    4.189435   -3.641513
     23          6           0        1.372197    6.345744   -1.654189
     24          8           0        0.568891    6.737864   -2.507299
     25          6           0        1.923524    7.344714   -0.771449
     26          7           0        4.586606    2.579006    1.094280
     27          6           0        4.265154    4.006359    1.158077
     28          6           0        5.083272    4.738295    2.281368
     29          6           0        5.892901    3.544113    2.897882
     30          6           0        5.582771    2.290844    2.011509
     31          6           0        5.843061    5.930574    1.795774
     32          6           0        5.623998    3.271876    4.472332
     33          6           0        6.873872    3.121930    5.344275
     34          7           0        5.264152   -0.133905    0.488628
     35          6           0        6.023730   -0.119736    1.641956
     36          6           0        6.563179   -1.462865    1.811718
     37          6           0        6.038557   -2.232705    0.783280
     38          6           0        5.145569   -1.395298    0.084371
     39          6           0        7.496464   -1.932095    2.950475
     40          6           0        5.909955   -3.533865    0.235374
     41          8           0        6.403483   -4.585419    0.676803
     42          6           0        4.863519   -3.377975   -0.988381
     43          6           0        3.904216   -4.515928   -0.746570
     44          8           0        3.569923   -5.023746    0.277753
     45          8           0        3.541300   -5.011031   -2.005990
     46          6           0        2.791069   -6.304601   -2.049305
     47          6           0       -2.071605   -5.040211   -0.268786
     48          6           0       -3.226133   -4.347032    0.399978
     49          6           0       -4.329821   -4.859328    0.973585
     50          6           0       -4.614847   -6.374608    1.152203
     51          6           0       -5.398095   -3.894713    1.420376
     52          6           0       -5.260562   -3.216217    2.800216
     53          6           0       -6.473711   -3.211451    3.689352
     54          6           0       -6.948881   -1.775609    4.029938
     55          6           0       -7.732146   -1.760119    5.316739
     56          6           0       -7.787122   -1.232391    2.843616
     57          6           0       -8.067287    0.301758    2.866978
     58          6           0       -7.160469    1.179036    1.980341
     59          6           0       -7.773232    1.698094    0.630404
     60          6           0       -7.341324    0.758937   -0.602513
     61          6           0       -7.427946    3.165278    0.389404
     62          6           0       -7.984278    3.726749   -0.976649
     63          6           0       -9.538058    3.991648   -0.810666
     64          6           0      -10.306120    3.039946   -1.780641
     65          6           0      -11.263728    3.891511   -2.668563
     66          6           0      -11.337455    2.017566   -1.144184
     67          1           0        1.311746    1.655941   -4.048243
     68          1           0        3.250115    5.687237    0.670541
     69          1           0        6.853911    1.207256    3.217708
     70          1           0        2.912631   -2.961668   -3.301704
     71          1           0        0.778334   -0.836651   -3.358762
     72          1           0        1.110380   -1.140203   -5.581124
     73          1           0        2.559767   -2.064468   -5.272195
     74          1           0        2.668225   -0.330239   -5.579738
     75          1           0        0.489343   -2.165812   -1.691707
     76          1           0        1.545535   -3.409982   -1.187337
     77          1           0        1.116664   -4.488936   -3.536236
     78          1           0       -0.330892   -3.474881   -3.545979
     79          1           0       -0.214429    3.217321   -4.053458
     80          1           0        0.598356    4.767040   -4.392691
     81          1           0       -0.795541    4.731017   -3.235660
     82          1           0        3.013483    7.365980   -0.790294
     83          1           0        1.574489    7.197469    0.250207
     84          1           0        1.648192    8.302312   -1.213434
     85          1           0        4.218824    4.976639    2.900471
     86          1           0        6.947498    3.805733    2.806598
     87          1           0        5.561964    6.044667    0.749055
     88          1           0        6.924555    5.819662    1.870274
     89          1           0        5.477067    6.820440    2.307531
     90          1           0        4.909714    2.514882    4.795136
     91          1           0        5.134131    4.158699    4.875047
     92          1           0        6.735451    2.341393    6.092619
     93          1           0        7.193668    4.106629    5.683208
     94          1           0        7.677067    2.737733    4.715391
     95          1           0        8.429022   -1.477707    2.614707
     96          1           0        7.602958   -3.012313    2.849053
     97          1           0        7.257434   -1.647550    3.975173
     98          1           0        5.349659   -3.577526   -1.943553
     99          1           0        3.570951   -7.047761   -1.883253
    100          1           0        2.290531   -6.457286   -3.005432
    101          1           0        1.955203   -6.375779   -1.353305
    102          1           0       -1.557874   -5.594293    0.516673
    103          1           0       -2.629737   -5.673791   -0.959095
    104          1           0       -3.158180   -3.266466    0.276585
    105          1           0       -5.543400   -6.761764    0.732461
    106          1           0       -4.492164   -6.572468    2.217337
    107          1           0       -3.735625   -6.819409    0.686510
    108          1           0       -6.361143   -4.395396    1.325559
    109          1           0       -5.413735   -3.082511    0.692829
    110          1           0       -4.853738   -2.210143    2.704829
    111          1           0       -4.573737   -3.945964    3.229088
    112          1           0       -6.084425   -3.787892    4.527941
    113          1           0       -7.159833   -3.786957    3.067272
    114          1           0       -6.048968   -1.160660    4.044119
    115          1           0       -6.983767   -1.354253    5.997917
    116          1           0       -8.083980   -2.768885    5.531571
    117          1           0       -8.601426   -1.108214    5.231221
    118          1           0       -8.743015   -1.756969    2.852137
    119          1           0       -7.190201   -1.446418    1.956796
    120          1           0       -7.889137    0.610920    3.896571
    121          1           0       -9.095284    0.410949    2.524843
    122          1           0       -6.277446    0.605988    1.699945
    123          1           0       -6.914077    2.070734    2.557637
    124          1           0       -8.848622    1.583426    0.770665
    125          1           0       -7.065743   -0.251357   -0.300513
    126          1           0       -6.487149    1.100350   -1.186906
    127          1           0       -8.187641    0.723020   -1.287612
    128          1           0       -6.348641    3.283250    0.490030
    129          1           0       -7.758974    3.805823    1.206191
    130          1           0       -7.744822    3.009353   -1.760797
    131          1           0       -7.355520    4.604499   -1.123018
    132          1           0       -9.740097    5.054397   -0.943405
    133          1           0       -9.824600    3.708088    0.202237
    134          1           0       -9.673556    2.397381   -2.393013
    135          1           0      -10.828538    4.875715   -2.841197
    136          1           0      -12.205423    4.098731   -2.160358
    137          1           0      -11.485398    3.395846   -3.613397
    138          1           0      -12.195947    1.883599   -1.802448
    139          1           0      -11.777155    2.461922   -0.251716
    140          1           0      -10.852055    1.055261   -0.981076
 ---------------------------------------------------------------------

 SCF Done:  E(RCAM-B3LYP) =  -3007.12278656     A.U. after   16 cycles

 Excitation energies and oscillator strengths:

 Excited State   1:      Singlet-A      1.5780 eV  785.69 nm  f=0.3854  <S**2>=0.000
     245 -> 248       -0.14917
     246 -> 247        0.69278
     245 <- 248       -0.10203
 This state for optimization and/or second-order correction.
 Total Energy, E(TD-HF/TD-DFT) =  -3007.06479470
 Copying the excited state density for this state as the 1-particle RhoCI density.

 Excited State   2:      Singlet-A      2.1380 eV  579.91 nm  f=0.0879  <S**2>=0.000
     245 -> 247        0.63715
     246 -> 248        0.28184

 Excited State   3:      Singlet-A      2.8947 eV  428.32 nm  f=0.0028  <S**2>=0.000
     244 -> 247        0.68262
     246 -> 248       -0.12059

 Excited State   4:      Singlet-A      3.2675 eV  379.45 nm  f=0.0399  <S**2>=0.000
     240 -> 247        0.16890
     240 -> 249        0.14416
     242 -> 247        0.57160
     246 -> 248       -0.28563

 Excited State   5:      Singlet-A      3.3773 eV  367.11 nm  f=0.0065  <S**2>=0.000
     240 -> 247        0.11774
     241 -> 247        0.54668
     241 -> 248       -0.20236
     241 -> 249       -0.20682
     241 -> 250        0.22772

 The electronic state is 1-A.
 Alpha  occ. eigenvalues --  -46.88629 -19.26064 -19.23990 -19.20166 -19.20028
 Alpha  occ. eigenvalues --  -19.18864 -19.17547 -14.43204 -14.42177 -14.39497
 Alpha  occ. eigenvalues --  -14.39108 -10.39989 -10.38900 -10.34863 -10.33601
 Alpha  occ. eigenvalues --  -10.32703 -10.32156 -10.32089 -10.31922 -10.31301
 Alpha  occ. eigenvalues --  -10.30991 -10.30506 -10.30124 -10.29753 -10.29449
 Alpha  occ. eigenvalues --  -10.29083 -10.28832 -10.28702 -10.28538 -10.28505
 Alpha  occ. eigenvalues --  -10.28256 -10.28104 -10.27976 -10.27924 -10.27721
 Alpha  occ. eigenvalues --  -10.27714 -10.27162 -10.27137 -10.26844 -10.26810
 Alpha  occ. eigenvalues --  -10.26637 -10.26598 -10.26514 -10.26494 -10.26375
 Alpha  occ. eigenvalues --  -10.26181 -10.26131 -10.25834 -10.25721 -10.25713
 Alpha  occ. eigenvalues --  -10.25514 -10.25198 -10.25164 -10.25027 -10.25016
 Alpha  occ. eigenvalues --  -10.24891 -10.24732 -10.24694 -10.24557 -10.24515
 Alpha  occ. eigenvalues --  -10.24464 -10.24404 -10.24399 -10.24272 -10.24100
 Alpha  occ. eigenvalues --  -10.24023  -3.17140  -1.92046  -1.91590  -1.91448
 Alpha  occ. eigenvalues --   -1.16072  -1.15738  -1.09007  -1.08560  -1.07838
 Alpha  occ. eigenvalues --   -1.07463  -1.04692  -1.02426  -1.01639  -1.00717
 Alpha  occ. eigenvalues --   -0.93342  -0.91005  -0.89748  -0.89457  -0.89107
 Alpha  occ. eigenvalues --   -0.88786  -0.88659  -0.87744  -0.86896  -0.86641
 Alpha  occ. eigenvalues --   -0.85642  -0.85127  -0.84859  -0.84675  -0.83843
 Alpha  occ. eigenvalues --   -0.82766  -0.82499  -0.81424  -0.80756  -0.80516
 Alpha  occ. eigenvalues --   -0.79385  -0.78409  -0.77985  -0.77391  -0.76438
 Alpha  occ. eigenvalues --   -0.75897  -0.75269  -0.75003  -0.74340  -0.73780
 Alpha  occ. eigenvalues --   -0.73465  -0.72738  -0.72044  -0.70563  -0.69247
 Alpha  occ. eigenvalues --   -0.69089  -0.68910  -0.67536  -0.66462  -0.66046
 Alpha  occ. eigenvalues --   -0.65615  -0.64854  -0.64797  -0.64544  -0.63708
 Alpha  occ. eigenvalues --   -0.63429  -0.62705  -0.61977  -0.61685  -0.59889
 Alpha  occ. eigenvalues --   -0.59806  -0.59346  -0.58839  -0.58508  -0.57736
 Alpha  occ. eigenvalues --   -0.57603  -0.57063  -0.56433  -0.56221  -0.55532
 Alpha  occ. eigenvalues --   -0.55342  -0.55070  -0.54610  -0.54314  -0.53901
 Alpha  occ. eigenvalues --   -0.53702  -0.53398  -0.53049  -0.53020  -0.52888
 Alpha  occ. eigenvalues --   -0.52784  -0.52724  -0.52469  -0.52151  -0.51663
 Alpha  occ. eigenvalues --   -0.51644  -0.51348  -0.51291  -0.51146  -0.50998
 Alpha  occ. eigenvalues --   -0.50470  -0.50388  -0.49768  -0.49693  -0.49568
 Alpha  occ. eigenvalues --   -0.49364  -0.49242  -0.49151  -0.49038  -0.48993
 Alpha  occ. eigenvalues --   -0.48624  -0.48435  -0.48310  -0.47945  -0.47654
 Alpha  occ. eigenvalues --   -0.47444  -0.47309  -0.47198  -0.46878  -0.46694
 Alpha  occ. eigenvalues --   -0.46464  -0.46419  -0.46035  -0.45885  -0.45784
 Alpha  occ. eigenvalues --   -0.45651  -0.45572  -0.45549  -0.45208  -0.45051
 Alpha  occ. eigenvalues --   -0.44945  -0.44902  -0.44706  -0.44146  -0.43891
 Alpha  occ. eigenvalues --   -0.43596  -0.43409  -0.43337  -0.43069  -0.42952
 Alpha  occ. eigenvalues --   -0.42863  -0.42565  -0.42312  -0.41795  -0.41733
 Alpha  occ. eigenvalues --   -0.41668  -0.41504  -0.41456  -0.41212  -0.41038
 Alpha  occ. eigenvalues --   -0.40909  -0.40778  -0.40210  -0.40035  -0.39746
 Alpha  occ. eigenvalues --   -0.39691  -0.39334  -0.39267  -0.38806  -0.38699
 Alpha  occ. eigenvalues --   -0.38462  -0.38295  -0.37718  -0.37514  -0.37434
 Alpha  occ. eigenvalues --   -0.37214  -0.36865  -0.36659  -0.36555  -0.36331
 Alpha  occ. eigenvalues --   -0.35926  -0.35525  -0.35320  -0.34966  -0.34451
 Alpha  occ. eigenvalues --   -0.34260  -0.33875  -0.33193  -0.31439  -0.30931
 Alpha  occ. eigenvalues --   -0.30510  -0.30154  -0.29859  -0.28722  -0.24845
 Alpha  occ. eigenvalues --   -0.21249
 Alpha virt. eigenvalues --   -0.09636  -0.02286   0.00129   0.02020   0.02761
 Alpha virt. eigenvalues --    0.04247   0.04871   0.05530   0.05760   0.06727
 Alpha virt. eigenvalues --    0.07840   0.08131   0.08361   0.08682   0.08951

 Mulliken charges:
               1
     1  Mg   0.806012
     2  C    0.045879
     3  C   -0.107653
     4  C   -0.059245
     5  C   -0.087935
     6  N   -0.339167
     7  C    0.027223
     8  C   -0.055808
     9  C   -0.039703
    10  C    0.101443
    11  C    0.060987
    12  C    0.029181
    13  C    0.097862
    14  C    0.165372
    15  O   -0.238343
    16  O   -0.350014
    17  N   -0.348029
    18  C    0.127646
    19  C   -0.162713
    20  C   -0.013924
    21  C    0.188279
    22  C    0.155069
    23  C   -0.051793
    24  O   -0.233002
    25  C    0.075488
    26  N   -0.389404
    27  C   -0.019395
    28  C   -0.032442
    29  C   -0.028355
    30  C    0.072468
    31  C    0.101766
    32  C    0.005295
    33  C   -0.007579
    34  N   -0.345245
    35  C    0.184379
    36  C   -0.180224
    37  C    0.066968
    38  C    0.060676
    39  C    0.117933
    40  C    0.039256
    41  O   -0.180190
    42  C   -0.042036
    43  C    0.189774
    44  O   -0.161723
    45  O   -0.390529
    46  C    0.168280
    47  C    0.265857
    48  C   -0.131100
    49  C   -0.207025
    50  C    0.096836
    51  C    0.063342
    52  C    0.014431
    53  C    0.079538
    54  C   -0.162728
    55  C    0.091422
    56  C    0.012000
    57  C    0.046814
    58  C    0.053338
    59  C   -0.110875
    60  C    0.020326
    61  C   -0.001490
    62  C    0.028786
    63  C    0.085114
    64  C   -0.165457
    65  C    0.025866
    66  C    0.029070
    67  H   -0.012647
    68  H   -0.046738
    69  H   -0.029947
    70  H    0.017701
    71  H    0.026335
    72  H    0.012643
    73  H    0.012874
    74  H    0.022119
    75  H    0.007594
    76  H    0.013563
    77  H    0.021338
    78  H    0.017244
    79  H   -0.000471
    80  H    0.037717
    81  H    0.041109
    82  H    0.025793
    83  H    0.048080
    84  H    0.025160
    85  H    0.022382
    86  H    0.006420
    87  H    0.017307
    88  H    0.022399
    89  H    0.019360
    90  H    0.016626
    91  H   -0.001310
    92  H    0.023457
    93  H    0.023821
    94  H    0.010246
    95  H    0.025153
    96  H    0.039133
    97  H    0.034058
    98  H    0.046875
    99  H    0.044124
   100  H    0.041857
   101  H    0.048306
   102  H    0.056242
   103  H    0.053806
   104  H    0.002691
   105  H    0.041665
   106  H    0.023816
   107  H   -0.003362
   108  H   -0.013601
   109  H   -0.001680
   110  H    0.004701
   111  H   -0.011898
   112  H   -0.003936
   113  H   -0.014527
   114  H   -0.010682
   115  H    0.014191
   116  H    0.014229
   117  H    0.006260
   118  H   -0.007255
   119  H   -0.013338
   120  H   -0.003785
   121  H   -0.000494
   122  H   -0.008745
   123  H   -0.011973
   124  H   -0.011223
   125  H    0.004611
   126  H    0.012720
   127  H    0.007663
   128  H   -0.012009
   129  H   -0.007694
   130  H    0.002336
   131  H   -0.003088
   132  H    0.008953
   133  H    0.001870
   134  H    0.010547
   135  H   -0.003271
   136  H    0.004733
   137  H    0.010367
   138  H    0.005989
   139  H    0.005060
   140  H    0.013583
 Sum of Mulliken charges =  -0.00000

 Dipole moment (field-independent basis, Debye):
    X=              0.2909    Y=              3.8905    Z=              1.2790  Tot=              4.1056
 Quadrupole moment (field-independent basis, Debye-Ang):
   XX=           -389.9655   YY=           -431.6905   ZZ=           -390.5498
   XY=             51.8705   XZ=              1.5680   YZ=             29.2665

 Normal termination of Gaussian 16 at Tue May  3 23:15:06 2022.
