 Gaussian 16, Revision A.03,
 Gaussian 16:  ES64L-G16RevA.03 25-Dec-2016

 ---------------------------------
 #p PBE1PBE/Def2SVP td=(nstates=5)
 ---------------------------------

 ------------------------------------------------------
 step_1101_chromophore_20 TDDFT with PBE1PBE functional
 ------------------------------------------------------
 Symbolic Z-matrix:
 Charge =  0 Multiplicity = 1

                         Standard orientation:
 ---------------------------------------------------------------------
 Center     Atomic      Atomic             Coordinates (Angstroms)
 Number     Number       Type             X           Y           Z
 ---------------------------------------------------------------------
      1         12           0        4.015543    1.333808   -0.365724
      2          6           0        4.338863   -1.995094   -0.942221
      3          6           0        1.728993    1.523281   -3.047092
      4          6           0        3.292696    4.634057    0.385639
      5          6           0        6.250505    1.059398    2.319338
      6          7           0        2.904610   -0.098053   -1.602538
      7          6           0        3.262685   -1.469020   -1.615567
      8          6           0        2.430735   -2.187837   -2.702382
      9          6           0        1.853441   -0.942222   -3.506276
     10          6           0        2.255622    0.280187   -2.766238
     11          6           0        2.079982   -1.102997   -5.084681
     12          6           0        1.157835   -2.931252   -2.086407
     13          6           0        0.410739   -3.950148   -2.903531
     14          6           0       -0.566421   -4.859752   -2.175404
     15          8           0       -0.593287   -6.070254   -2.355216
     16          8           0       -1.129158   -4.194537   -1.115139
     17          7           0        2.578625    2.846261   -1.192268
     18          6           0        1.751927    2.723517   -2.270426
     19          6           0        1.034389    3.960414   -2.478122
     20          6           0        1.656314    4.912702   -1.582662
     21          6           0        2.520463    4.182673   -0.673471
     22          6           0        0.058891    4.189435   -3.641513
     23          6           0        1.372197    6.345744   -1.654189
     24          8           0        0.568891    6.737864   -2.507299
     25          6           0        1.923524    7.344714   -0.771449
     26          7           0        4.586606    2.579006    1.094280
     27          6           0        4.265154    4.006359    1.158077
     28          6           0        5.083272    4.738295    2.281368
     29          6           0        5.892901    3.544113    2.897882
     30          6           0        5.582771    2.290844    2.011509
     31          6           0        5.843061    5.930574    1.795774
     32          6           0        5.623998    3.271876    4.472332
     33          6           0        6.873872    3.121930    5.344275
     34          7           0        5.264152   -0.133905    0.488628
     35          6           0        6.023730   -0.119736    1.641956
     36          6           0        6.563179   -1.462865    1.811718
     37          6           0        6.038557   -2.232705    0.783280
     38          6           0        5.145569   -1.395298    0.084371
     39          6           0        7.496464   -1.932095    2.950475
     40          6           0        5.909955   -3.533865    0.235374
     41          8           0        6.403483   -4.585419    0.676803
     42          6           0        4.863519   -3.377975   -0.988381
     43          6           0        3.904216   -4.515928   -0.746570
     44          8           0        3.569923   -5.023746    0.277753
     45          8           0        3.541300   -5.011031   -2.005990
     46          6           0        2.791069   -6.304601   -2.049305
     47          6           0       -2.071605   -5.040211   -0.268786
     48          6           0       -3.226133   -4.347032    0.399978
     49          6           0       -4.329821   -4.859328    0.973585
     50          6           0       -4.614847   -6.374608    1.152203
     51          6           0       -5.398095   -3.894713    1.420376
     52          6           0       -5.260562   -3.216217    2.800216
     53          6           0       -6.473711   -3.211451    3.689352
     54          6           0       -6.948881   -1.775609    4.029938
     55          6           0       -7.732146   -1.760119    5.316739
     56          6           0       -7.787122   -1.232391    2.843616
     57          6           0       -8.067287    0.301758    2.866978
     58          6           0       -7.160469    1.179036    1.980341
     59          6           0       -7.773232    1.698094    0.630404
     60          6           0       -7.341324    0.758937   -0.602513
     61          6           0       -7.427946    3.165278    0.389404
     62          6           0       -7.984278    3.726749   -0.976649
     63          6           0       -9.538058    3.991648   -0.810666
     64          6           0      -10.306120    3.039946   -1.780641
     65          6           0      -11.263728    3.891511   -2.668563
     66          6           0      -11.337455    2.017566   -1.144184
     67          1           0        1.311746    1.655941   -4.048243
     68          1           0        3.250115    5.687237    0.670541
     69          1           0        6.853911    1.207256    3.217708
     70          1           0        2.912631   -2.961668   -3.301704
     71          1           0        0.778334   -0.836651   -3.358762
     72          1           0        1.110380   -1.140203   -5.581124
     73          1           0        2.559767   -2.064468   -5.272195
     74          1           0        2.668225   -0.330239   -5.579738
     75          1           0        0.489343   -2.165812   -1.691707
     76          1           0        1.545535   -3.409982   -1.187337
     77          1           0        1.116664   -4.488936   -3.536236
     78          1           0       -0.330892   -3.474881   -3.545979
     79          1           0       -0.214429    3.217321   -4.053458
     80          1           0        0.598356    4.767040   -4.392691
     81          1           0       -0.795541    4.731017   -3.235660
     82          1           0        3.013483    7.365980   -0.790294
     83          1           0        1.574489    7.197469    0.250207
     84          1           0        1.648192    8.302312   -1.213434
     85          1           0        4.218824    4.976639    2.900471
     86          1           0        6.947498    3.805733    2.806598
     87          1           0        5.561964    6.044667    0.749055
     88          1           0        6.924555    5.819662    1.870274
     89          1           0        5.477067    6.820440    2.307531
     90          1           0        4.909714    2.514882    4.795136
     91          1           0        5.134131    4.158699    4.875047
     92          1           0        6.735451    2.341393    6.092619
     93          1           0        7.193668    4.106629    5.683208
     94          1           0        7.677067    2.737733    4.715391
     95          1           0        8.429022   -1.477707    2.614707
     96          1           0        7.602958   -3.012313    2.849053
     97          1           0        7.257434   -1.647550    3.975173
     98          1           0        5.349659   -3.577526   -1.943553
     99          1           0        3.570951   -7.047761   -1.883253
    100          1           0        2.290531   -6.457286   -3.005432
    101          1           0        1.955203   -6.375779   -1.353305
    102          1           0       -1.557874   -5.594293    0.516673
    103          1           0       -2.629737   -5.673791   -0.959095
    104          1           0       -3.158180   -3.266466    0.276585
    105          1           0       -5.543400   -6.761764    0.732461
    106          1           0       -4.492164   -6.572468    2.217337
    107          1           0       -3.735625   -6.819409    0.686510
    108          1           0       -6.361143   -4.395396    1.325559
    109          1           0       -5.413735   -3.082511    0.692829
    110          1           0       -4.853738   -2.210143    2.704829
    111          1           0       -4.573737   -3.945964    3.229088
    112          1           0       -6.084425   -3.787892    4.527941
    113          1           0       -7.159833   -3.786957    3.067272
    114          1           0       -6.048968   -1.160660    4.044119
    115          1           0       -6.983767   -1.354253    5.997917
    116          1           0       -8.083980   -2.768885    5.531571
    117          1           0       -8.601426   -1.108214    5.231221
    118          1           0       -8.743015   -1.756969    2.852137
    119          1           0       -7.190201   -1.446418    1.956796
    120          1           0       -7.889137    0.610920    3.896571
    121          1           0       -9.095284    0.410949    2.524843
    122          1           0       -6.277446    0.605988    1.699945
    123          1           0       -6.914077    2.070734    2.557637
    124          1           0       -8.848622    1.583426    0.770665
    125          1           0       -7.065743   -0.251357   -0.300513
    126          1           0       -6.487149    1.100350   -1.186906
    127          1           0       -8.187641    0.723020   -1.287612
    128          1           0       -6.348641    3.283250    0.490030
    129          1           0       -7.758974    3.805823    1.206191
    130          1           0       -7.744822    3.009353   -1.760797
    131          1           0       -7.355520    4.604499   -1.123018
    132          1           0       -9.740097    5.054397   -0.943405
    133          1           0       -9.824600    3.708088    0.202237
    134          1           0       -9.673556    2.397381   -2.393013
    135          1           0      -10.828538    4.875715   -2.841197
    136          1           0      -12.205423    4.098731   -2.160358
    137          1           0      -11.485398    3.395846   -3.613397
    138          1           0      -12.195947    1.883599   -1.802448
    139          1           0      -11.777155    2.461922   -0.251716
    140          1           0      -10.852055    1.055261   -0.981076
 ---------------------------------------------------------------------

 SCF Done:  E(RPBE1PBE) =  -3005.31033195     A.U. after   16 cycles

 Excitation energies and oscillator strengths:

 Excited State   1:      Singlet-A      1.7420 eV  711.74 nm  f=0.3665  <S**2>=0.000
     245 -> 248       -0.14310
     246 -> 247        0.70229
     246 <- 247       -0.13380
 This state for optimization and/or second-order correction.
 Total Energy, E(TD-HF/TD-DFT) =  -3005.24631549
 Copying the excited state density for this state as the 1-particle RhoCI density.

 Excited State   2:      Singlet-A      2.1341 eV  580.97 nm  f=0.0845  <S**2>=0.000
     244 -> 247        0.10689
     245 -> 247        0.64844
     246 -> 248        0.24229

 Excited State   3:      Singlet-A      2.5690 eV  482.62 nm  f=0.0094  <S**2>=0.000
     244 -> 247        0.68821
     246 -> 248       -0.10748

 Excited State   4:      Singlet-A      2.7660 eV  448.24 nm  f=0.0002  <S**2>=0.000
     242 -> 247        0.67623
     242 -> 248       -0.10270

 Excited State   5:      Singlet-A      2.8205 eV  439.59 nm  f=0.0008  <S**2>=0.000
     240 -> 247        0.20834
     241 -> 247        0.63430
     241 -> 249        0.11903
     246 -> 248       -0.11750

 The electronic state is 1-A.
 Alpha  occ. eigenvalues --  -46.92012 -19.26765 -19.24668 -19.20479 -19.20202
 Alpha  occ. eigenvalues --  -19.19118 -19.17770 -14.42692 -14.41829 -14.39128
 Alpha  occ. eigenvalues --  -14.38800 -10.37048 -10.35913 -10.32024 -10.30687
 Alpha  occ. eigenvalues --  -10.30118 -10.29948 -10.29909 -10.29651 -10.28997
 Alpha  occ. eigenvalues --  -10.28221 -10.28221 -10.27831 -10.27429 -10.27082
 Alpha  occ. eigenvalues --  -10.26947 -10.26514 -10.26453 -10.26406 -10.26138
 Alpha  occ. eigenvalues --  -10.26088 -10.25853 -10.25833 -10.25442 -10.25285
 Alpha  occ. eigenvalues --  -10.25226 -10.24836 -10.24803 -10.24555 -10.24309
 Alpha  occ. eigenvalues --  -10.24269 -10.24201 -10.24153 -10.23901 -10.23776
 Alpha  occ. eigenvalues --  -10.23708 -10.23569 -10.23529 -10.23415 -10.22987
 Alpha  occ. eigenvalues --  -10.22984 -10.22884 -10.22737 -10.22712 -10.22578
 Alpha  occ. eigenvalues --  -10.22466 -10.22228 -10.22148 -10.22109 -10.22073
 Alpha  occ. eigenvalues --  -10.22017 -10.21951 -10.21841 -10.21808 -10.21476
 Alpha  occ. eigenvalues --  -10.21423  -3.14106  -1.86952  -1.86477  -1.86334
 Alpha  occ. eigenvalues --   -1.10887  -1.10464  -1.03710  -1.03295  -1.02731
 Alpha  occ. eigenvalues --   -1.02292  -0.99365  -0.97035  -0.96192  -0.95339
 Alpha  occ. eigenvalues --   -0.87697  -0.85128  -0.83876  -0.83768  -0.83287
 Alpha  occ. eigenvalues --   -0.83055  -0.82756  -0.82095  -0.81004  -0.80958
 Alpha  occ. eigenvalues --   -0.79914  -0.79445  -0.79089  -0.78922  -0.78100
 Alpha  occ. eigenvalues --   -0.76977  -0.76659  -0.75712  -0.75012  -0.74828
 Alpha  occ. eigenvalues --   -0.73517  -0.72703  -0.72294  -0.71700  -0.70593
 Alpha  occ. eigenvalues --   -0.70188  -0.69621  -0.69083  -0.68446  -0.67945
 Alpha  occ. eigenvalues --   -0.67865  -0.67129  -0.66434  -0.64922  -0.63656
 Alpha  occ. eigenvalues --   -0.63368  -0.63207  -0.61989  -0.60700  -0.60495
 Alpha  occ. eigenvalues --   -0.60082  -0.59401  -0.59142  -0.59033  -0.58163
 Alpha  occ. eigenvalues --   -0.57583  -0.56904  -0.56255  -0.56128  -0.54384
 Alpha  occ. eigenvalues --   -0.54308  -0.53899  -0.53461  -0.53104  -0.52177
 Alpha  occ. eigenvalues --   -0.52114  -0.51425  -0.50955  -0.50782  -0.50033
 Alpha  occ. eigenvalues --   -0.49899  -0.49687  -0.49155  -0.48770  -0.48327
 Alpha  occ. eigenvalues --   -0.48255  -0.47967  -0.47683  -0.47511  -0.47314
 Alpha  occ. eigenvalues --   -0.47266  -0.47169  -0.47041  -0.46680  -0.46285
 Alpha  occ. eigenvalues --   -0.46212  -0.45937  -0.45805  -0.45671  -0.45566
 Alpha  occ. eigenvalues --   -0.44995  -0.44898  -0.44345  -0.44254  -0.44094
 Alpha  occ. eigenvalues --   -0.43925  -0.43862  -0.43772  -0.43655  -0.43558
 Alpha  occ. eigenvalues --   -0.43226  -0.43060  -0.42963  -0.42547  -0.42350
 Alpha  occ. eigenvalues --   -0.42099  -0.41967  -0.41850  -0.41478  -0.41468
 Alpha  occ. eigenvalues --   -0.41230  -0.41207  -0.40661  -0.40587  -0.40468
 Alpha  occ. eigenvalues --   -0.40368  -0.40281  -0.40185  -0.39948  -0.39795
 Alpha  occ. eigenvalues --   -0.39691  -0.39510  -0.39325  -0.38832  -0.38723
 Alpha  occ. eigenvalues --   -0.38361  -0.38207  -0.38063  -0.37878  -0.37774
 Alpha  occ. eigenvalues --   -0.37643  -0.37361  -0.37215  -0.36622  -0.36572
 Alpha  occ. eigenvalues --   -0.36487  -0.36328  -0.36299  -0.36035  -0.35806
 Alpha  occ. eigenvalues --   -0.35739  -0.35674  -0.35098  -0.34840  -0.34652
 Alpha  occ. eigenvalues --   -0.34410  -0.34338  -0.34032  -0.33737  -0.33541
 Alpha  occ. eigenvalues --   -0.33328  -0.33104  -0.32647  -0.32524  -0.32341
 Alpha  occ. eigenvalues --   -0.32195  -0.31746  -0.31700  -0.31403  -0.31226
 Alpha  occ. eigenvalues --   -0.30768  -0.30398  -0.30203  -0.30048  -0.29453
 Alpha  occ. eigenvalues --   -0.29398  -0.28854  -0.28573  -0.27048  -0.26027
 Alpha  occ. eigenvalues --   -0.25555  -0.25181  -0.25119  -0.24358  -0.21657
 Alpha  occ. eigenvalues --   -0.18969
 Alpha virt. eigenvalues --   -0.12032  -0.05808  -0.04099  -0.02384  -0.00138
 Alpha virt. eigenvalues --    0.00126   0.00235   0.01096   0.01139   0.02969
 Alpha virt. eigenvalues --    0.03663   0.04245   0.04899   0.05238   0.05627

 Mulliken charges:
               1
     1  Mg   0.955518
     2  C    0.037527
     3  C   -0.103815
     4  C   -0.065782
     5  C   -0.080469
     6  N   -0.434335
     7  C    0.095757
     8  C   -0.136905
     9  C   -0.112034
    10  C    0.140746
    11  C    0.002288
    12  C   -0.017085
    13  C    0.017879
    14  C    0.232819
    15  O   -0.271494
    16  O   -0.380453
    17  N   -0.453304
    18  C    0.156168
    19  C   -0.180056
    20  C   -0.071701
    21  C    0.220183
    22  C    0.091474
    23  C   -0.001765
    24  O   -0.267478
    25  C    0.000543
    26  N   -0.492381
    27  C    0.017977
    28  C   -0.108988
    29  C   -0.101754
    30  C    0.110694
    31  C    0.040120
    32  C   -0.053654
    33  C   -0.080160
    34  N   -0.466744
    35  C    0.199650
    36  C   -0.200131
    37  C    0.015554
    38  C    0.110792
    39  C    0.064588
    40  C    0.135276
    41  O   -0.224227
    42  C   -0.149531
    43  C    0.279990
    44  O   -0.198777
    45  O   -0.419973
    46  C    0.112389
    47  C    0.227443
    48  C   -0.140228
    49  C   -0.254854
    50  C    0.032694
    51  C    0.004549
    52  C   -0.050496
    53  C    0.024452
    54  C   -0.252654
    55  C    0.029820
    56  C   -0.046262
    57  C   -0.016687
    58  C   -0.001029
    59  C   -0.189714
    60  C   -0.046697
    61  C   -0.061675
    62  C   -0.035622
    63  C    0.032009
    64  C   -0.252928
    65  C   -0.039395
    66  C   -0.035282
    67  H    0.019522
    68  H   -0.012739
    69  H    0.005686
    70  H    0.052408
    71  H    0.063327
    72  H    0.039697
    73  H    0.040381
    74  H    0.049014
    75  H    0.040042
    76  H    0.052389
    77  H    0.052658
    78  H    0.051300
    79  H    0.027116
    80  H    0.066229
    81  H    0.069160
    82  H    0.052809
    83  H    0.073932
    84  H    0.052790
    85  H    0.059901
    86  H    0.044780
    87  H    0.046154
    88  H    0.049211
    89  H    0.046874
    90  H    0.048120
    91  H    0.032782
    92  H    0.051131
    93  H    0.051665
    94  H    0.036559
    95  H    0.054196
    96  H    0.066584
    97  H    0.059702
    98  H    0.083259
    99  H    0.067068
   100  H    0.062181
   101  H    0.070938
   102  H    0.081559
   103  H    0.079184
   104  H    0.032546
   105  H    0.067278
   106  H    0.052367
   107  H    0.025882
   108  H    0.018224
   109  H    0.031160
   110  H    0.035542
   111  H    0.025357
   112  H    0.028875
   113  H    0.018679
   114  H    0.027815
   115  H    0.042286
   116  H    0.041855
   117  H    0.033893
   118  H    0.025488
   119  H    0.026650
   120  H    0.029285
   121  H    0.031090
   122  H    0.024238
   123  H    0.020960
   124  H    0.029946
   125  H    0.034093
   126  H    0.039733
   127  H    0.038117
   128  H    0.021309
   129  H    0.025785
   130  H    0.034279
   131  H    0.030430
   132  H    0.039675
   133  H    0.033764
   134  H    0.046988
   135  H    0.025510
   136  H    0.033063
   137  H    0.038953
   138  H    0.034664
   139  H    0.032947
   140  H    0.041324
 Sum of Mulliken charges =  -0.00000

 Dipole moment (field-independent basis, Debye):
    X=              0.2819    Y=              3.9221    Z=              1.2855  Tot=              4.1370
 Quadrupole moment (field-independent basis, Debye-Ang):
   XX=           -387.1007   YY=           -428.4007   ZZ=           -386.4975
   XY=             52.4660   XZ=              2.5105   YZ=             29.8667

 Normal termination of Gaussian 16 at Tue May  3 23:32:37 2022.
