 Gaussian 16, Revision A.03,
 Gaussian 16:  ES64L-G16RevA.03 25-Dec-2016

 --------------------------------
 #p wB97XD/Def2SVP td=(nstates=5)
 --------------------------------

 -----------------------------------------------------
 step_1101_chromophore_20 TDDFT with wB97XD functional
 -----------------------------------------------------
 Symbolic Z-matrix:
 Charge =  0 Multiplicity = 1

                         Standard orientation:
 ---------------------------------------------------------------------
 Center     Atomic      Atomic             Coordinates (Angstroms)
 Number     Number       Type             X           Y           Z
 ---------------------------------------------------------------------
      1         12           0        4.015543    1.333808   -0.365724
      2          6           0        4.338863   -1.995094   -0.942221
      3          6           0        1.728993    1.523281   -3.047092
      4          6           0        3.292696    4.634057    0.385639
      5          6           0        6.250505    1.059398    2.319338
      6          7           0        2.904610   -0.098053   -1.602538
      7          6           0        3.262685   -1.469020   -1.615567
      8          6           0        2.430735   -2.187837   -2.702382
      9          6           0        1.853441   -0.942222   -3.506276
     10          6           0        2.255622    0.280187   -2.766238
     11          6           0        2.079982   -1.102997   -5.084681
     12          6           0        1.157835   -2.931252   -2.086407
     13          6           0        0.410739   -3.950148   -2.903531
     14          6           0       -0.566421   -4.859752   -2.175404
     15          8           0       -0.593287   -6.070254   -2.355216
     16          8           0       -1.129158   -4.194537   -1.115139
     17          7           0        2.578625    2.846261   -1.192268
     18          6           0        1.751927    2.723517   -2.270426
     19          6           0        1.034389    3.960414   -2.478122
     20          6           0        1.656314    4.912702   -1.582662
     21          6           0        2.520463    4.182673   -0.673471
     22          6           0        0.058891    4.189435   -3.641513
     23          6           0        1.372197    6.345744   -1.654189
     24          8           0        0.568891    6.737864   -2.507299
     25          6           0        1.923524    7.344714   -0.771449
     26          7           0        4.586606    2.579006    1.094280
     27          6           0        4.265154    4.006359    1.158077
     28          6           0        5.083272    4.738295    2.281368
     29          6           0        5.892901    3.544113    2.897882
     30          6           0        5.582771    2.290844    2.011509
     31          6           0        5.843061    5.930574    1.795774
     32          6           0        5.623998    3.271876    4.472332
     33          6           0        6.873872    3.121930    5.344275
     34          7           0        5.264152   -0.133905    0.488628
     35          6           0        6.023730   -0.119736    1.641956
     36          6           0        6.563179   -1.462865    1.811718
     37          6           0        6.038557   -2.232705    0.783280
     38          6           0        5.145569   -1.395298    0.084371
     39          6           0        7.496464   -1.932095    2.950475
     40          6           0        5.909955   -3.533865    0.235374
     41          8           0        6.403483   -4.585419    0.676803
     42          6           0        4.863519   -3.377975   -0.988381
     43          6           0        3.904216   -4.515928   -0.746570
     44          8           0        3.569923   -5.023746    0.277753
     45          8           0        3.541300   -5.011031   -2.005990
     46          6           0        2.791069   -6.304601   -2.049305
     47          6           0       -2.071605   -5.040211   -0.268786
     48          6           0       -3.226133   -4.347032    0.399978
     49          6           0       -4.329821   -4.859328    0.973585
     50          6           0       -4.614847   -6.374608    1.152203
     51          6           0       -5.398095   -3.894713    1.420376
     52          6           0       -5.260562   -3.216217    2.800216
     53          6           0       -6.473711   -3.211451    3.689352
     54          6           0       -6.948881   -1.775609    4.029938
     55          6           0       -7.732146   -1.760119    5.316739
     56          6           0       -7.787122   -1.232391    2.843616
     57          6           0       -8.067287    0.301758    2.866978
     58          6           0       -7.160469    1.179036    1.980341
     59          6           0       -7.773232    1.698094    0.630404
     60          6           0       -7.341324    0.758937   -0.602513
     61          6           0       -7.427946    3.165278    0.389404
     62          6           0       -7.984278    3.726749   -0.976649
     63          6           0       -9.538058    3.991648   -0.810666
     64          6           0      -10.306120    3.039946   -1.780641
     65          6           0      -11.263728    3.891511   -2.668563
     66          6           0      -11.337455    2.017566   -1.144184
     67          1           0        1.311746    1.655941   -4.048243
     68          1           0        3.250115    5.687237    0.670541
     69          1           0        6.853911    1.207256    3.217708
     70          1           0        2.912631   -2.961668   -3.301704
     71          1           0        0.778334   -0.836651   -3.358762
     72          1           0        1.110380   -1.140203   -5.581124
     73          1           0        2.559767   -2.064468   -5.272195
     74          1           0        2.668225   -0.330239   -5.579738
     75          1           0        0.489343   -2.165812   -1.691707
     76          1           0        1.545535   -3.409982   -1.187337
     77          1           0        1.116664   -4.488936   -3.536236
     78          1           0       -0.330892   -3.474881   -3.545979
     79          1           0       -0.214429    3.217321   -4.053458
     80          1           0        0.598356    4.767040   -4.392691
     81          1           0       -0.795541    4.731017   -3.235660
     82          1           0        3.013483    7.365980   -0.790294
     83          1           0        1.574489    7.197469    0.250207
     84          1           0        1.648192    8.302312   -1.213434
     85          1           0        4.218824    4.976639    2.900471
     86          1           0        6.947498    3.805733    2.806598
     87          1           0        5.561964    6.044667    0.749055
     88          1           0        6.924555    5.819662    1.870274
     89          1           0        5.477067    6.820440    2.307531
     90          1           0        4.909714    2.514882    4.795136
     91          1           0        5.134131    4.158699    4.875047
     92          1           0        6.735451    2.341393    6.092619
     93          1           0        7.193668    4.106629    5.683208
     94          1           0        7.677067    2.737733    4.715391
     95          1           0        8.429022   -1.477707    2.614707
     96          1           0        7.602958   -3.012313    2.849053
     97          1           0        7.257434   -1.647550    3.975173
     98          1           0        5.349659   -3.577526   -1.943553
     99          1           0        3.570951   -7.047761   -1.883253
    100          1           0        2.290531   -6.457286   -3.005432
    101          1           0        1.955203   -6.375779   -1.353305
    102          1           0       -1.557874   -5.594293    0.516673
    103          1           0       -2.629737   -5.673791   -0.959095
    104          1           0       -3.158180   -3.266466    0.276585
    105          1           0       -5.543400   -6.761764    0.732461
    106          1           0       -4.492164   -6.572468    2.217337
    107          1           0       -3.735625   -6.819409    0.686510
    108          1           0       -6.361143   -4.395396    1.325559
    109          1           0       -5.413735   -3.082511    0.692829
    110          1           0       -4.853738   -2.210143    2.704829
    111          1           0       -4.573737   -3.945964    3.229088
    112          1           0       -6.084425   -3.787892    4.527941
    113          1           0       -7.159833   -3.786957    3.067272
    114          1           0       -6.048968   -1.160660    4.044119
    115          1           0       -6.983767   -1.354253    5.997917
    116          1           0       -8.083980   -2.768885    5.531571
    117          1           0       -8.601426   -1.108214    5.231221
    118          1           0       -8.743015   -1.756969    2.852137
    119          1           0       -7.190201   -1.446418    1.956796
    120          1           0       -7.889137    0.610920    3.896571
    121          1           0       -9.095284    0.410949    2.524843
    122          1           0       -6.277446    0.605988    1.699945
    123          1           0       -6.914077    2.070734    2.557637
    124          1           0       -8.848622    1.583426    0.770665
    125          1           0       -7.065743   -0.251357   -0.300513
    126          1           0       -6.487149    1.100350   -1.186906
    127          1           0       -8.187641    0.723020   -1.287612
    128          1           0       -6.348641    3.283250    0.490030
    129          1           0       -7.758974    3.805823    1.206191
    130          1           0       -7.744822    3.009353   -1.760797
    131          1           0       -7.355520    4.604499   -1.123018
    132          1           0       -9.740097    5.054397   -0.943405
    133          1           0       -9.824600    3.708088    0.202237
    134          1           0       -9.673556    2.397381   -2.393013
    135          1           0      -10.828538    4.875715   -2.841197
    136          1           0      -12.205423    4.098731   -2.160358
    137          1           0      -11.485398    3.395846   -3.613397
    138          1           0      -12.195947    1.883599   -1.802448
    139          1           0      -11.777155    2.461922   -0.251716
    140          1           0      -10.852055    1.055261   -0.981076
 ---------------------------------------------------------------------

 SCF Done:  E(RwB97XD) =  -3007.82173958     A.U. after   18 cycles

 Excitation energies and oscillator strengths:

 Excited State   1:      Singlet-A      1.5170 eV  817.28 nm  f=0.3856  <S**2>=0.000
     245 -> 248       -0.15538
     246 -> 247        0.68992
     245 <- 248       -0.11164
 This state for optimization and/or second-order correction.
 Total Energy, E(TD-HF/TD-DFT) =  -3007.76598989
 Copying the excited state density for this state as the 1-particle RhoCI density.

 Excited State   2:      Singlet-A      2.0801 eV  596.05 nm  f=0.0854  <S**2>=0.000
     245 -> 247        0.63509
     246 -> 248        0.28543

 Excited State   3:      Singlet-A      2.9301 eV  423.14 nm  f=0.0019  <S**2>=0.000
     244 -> 247        0.67512
     246 -> 248       -0.12503

 Excited State   4:      Singlet-A      3.2915 eV  376.68 nm  f=0.0567  <S**2>=0.000
     240 -> 249        0.12655
     241 -> 247        0.13902
     242 -> 247        0.55204
     246 -> 248       -0.30967

 Excited State   5:      Singlet-A      3.3855 eV  366.22 nm  f=0.0148  <S**2>=0.000
     241 -> 247        0.50792
     241 -> 248       -0.18781
     241 -> 249       -0.19651
     241 -> 250        0.22601
     242 -> 247       -0.16465
     242 -> 249        0.13673
     246 -> 248       -0.10922

 The electronic state is 1-A.
 Alpha  occ. eigenvalues --  -46.94977 -19.31295 -19.29232 -19.25112 -19.24933
 Alpha  occ. eigenvalues --  -19.23937 -19.22566 -14.47867 -14.46807 -14.44093
 Alpha  occ. eigenvalues --  -14.43757 -10.43804 -10.42744 -10.38903 -10.37524
 Alpha  occ. eigenvalues --  -10.36605 -10.36162 -10.36159 -10.35989 -10.35329
 Alpha  occ. eigenvalues --  -10.34784 -10.34566 -10.34131 -10.33797 -10.33448
 Alpha  occ. eigenvalues --  -10.33144 -10.32977 -10.32737 -10.32632 -10.32574
 Alpha  occ. eigenvalues --  -10.32366 -10.32271 -10.32048 -10.31975 -10.31780
 Alpha  occ. eigenvalues --  -10.31645 -10.31161 -10.31077 -10.30863 -10.30702
 Alpha  occ. eigenvalues --  -10.30610 -10.30592 -10.30521 -10.30342 -10.30261
 Alpha  occ. eigenvalues --  -10.30101 -10.29955 -10.29798 -10.29708 -10.29569
 Alpha  occ. eigenvalues --  -10.29455 -10.29165 -10.29094 -10.29064 -10.28947
 Alpha  occ. eigenvalues --  -10.28817 -10.28611 -10.28585 -10.28483 -10.28436
 Alpha  occ. eigenvalues --  -10.28386 -10.28312 -10.28226 -10.28197 -10.27916
 Alpha  occ. eigenvalues --  -10.27850  -3.20929  -1.94526  -1.94045  -1.93908
 Alpha  occ. eigenvalues --   -1.18242  -1.17876  -1.11202  -1.10795  -1.10043
 Alpha  occ. eigenvalues --   -1.09673  -1.06736  -1.04436  -1.03642  -1.02759
 Alpha  occ. eigenvalues --   -0.95330  -0.92792  -0.91541  -0.91374  -0.90931
 Alpha  occ. eigenvalues --   -0.90671  -0.90431  -0.89693  -0.88668  -0.88597
 Alpha  occ. eigenvalues --   -0.87543  -0.87106  -0.86723  -0.86563  -0.85743
 Alpha  occ. eigenvalues --   -0.84691  -0.84323  -0.83366  -0.82657  -0.82458
 Alpha  occ. eigenvalues --   -0.81195  -0.80350  -0.79897  -0.79327  -0.78271
 Alpha  occ. eigenvalues --   -0.77838  -0.77231  -0.76795  -0.76139  -0.75605
 Alpha  occ. eigenvalues --   -0.75449  -0.74694  -0.74002  -0.72506  -0.71212
 Alpha  occ. eigenvalues --   -0.70970  -0.70832  -0.69538  -0.68332  -0.68004
 Alpha  occ. eigenvalues --   -0.67583  -0.66860  -0.66658  -0.66561  -0.65662
 Alpha  occ. eigenvalues --   -0.65242  -0.64544  -0.63791  -0.63697  -0.61815
 Alpha  occ. eigenvalues --   -0.61800  -0.61319  -0.60844  -0.60485  -0.59678
 Alpha  occ. eigenvalues --   -0.59602  -0.58945  -0.58390  -0.58176  -0.57452
 Alpha  occ. eigenvalues --   -0.57285  -0.57047  -0.56549  -0.56196  -0.55765
 Alpha  occ. eigenvalues --   -0.55638  -0.55304  -0.54968  -0.54922  -0.54747
 Alpha  occ. eigenvalues --   -0.54680  -0.54643  -0.54442  -0.54045  -0.53596
 Alpha  occ. eigenvalues --   -0.53551  -0.53286  -0.53188  -0.53052  -0.52918
 Alpha  occ. eigenvalues --   -0.52341  -0.52262  -0.51686  -0.51574  -0.51429
 Alpha  occ. eigenvalues --   -0.51323  -0.51162  -0.51113  -0.50947  -0.50878
 Alpha  occ. eigenvalues --   -0.50591  -0.50321  -0.50225  -0.49812  -0.49580
 Alpha  occ. eigenvalues --   -0.49351  -0.49258  -0.49102  -0.48730  -0.48633
 Alpha  occ. eigenvalues --   -0.48411  -0.48357  -0.47885  -0.47840  -0.47733
 Alpha  occ. eigenvalues --   -0.47630  -0.47500  -0.47415  -0.47114  -0.46960
 Alpha  occ. eigenvalues --   -0.46858  -0.46769  -0.46557  -0.46002  -0.45874
 Alpha  occ. eigenvalues --   -0.45505  -0.45322  -0.45232  -0.45007  -0.44862
 Alpha  occ. eigenvalues --   -0.44774  -0.44466  -0.44235  -0.43662  -0.43644
 Alpha  occ. eigenvalues --   -0.43598  -0.43455  -0.43398  -0.43194  -0.42868
 Alpha  occ. eigenvalues --   -0.42839  -0.42726  -0.42125  -0.41915  -0.41681
 Alpha  occ. eigenvalues --   -0.41505  -0.41240  -0.41114  -0.40735  -0.40589
 Alpha  occ. eigenvalues --   -0.40341  -0.40158  -0.39645  -0.39542  -0.39355
 Alpha  occ. eigenvalues --   -0.39169  -0.38707  -0.38604  -0.38396  -0.38325
 Alpha  occ. eigenvalues --   -0.37755  -0.37364  -0.37159  -0.37006  -0.36287
 Alpha  occ. eigenvalues --   -0.36283  -0.35815  -0.35378  -0.33633  -0.32948
 Alpha  occ. eigenvalues --   -0.32427  -0.32280  -0.31874  -0.30920  -0.26782
 Alpha  occ. eigenvalues --   -0.23036
 Alpha virt. eigenvalues --   -0.08003  -0.00366   0.02174   0.04130   0.05853
 Alpha virt. eigenvalues --    0.06634   0.07138   0.07831   0.07938   0.09519
 Alpha virt. eigenvalues --    0.10358   0.10788   0.11560   0.11966   0.12321

 Mulliken charges:
               1
     1  Mg   0.945076
     2  C    0.027646
     3  C   -0.119325
     4  C   -0.074388
     5  C   -0.090297
     6  N   -0.407752
     7  C    0.068414
     8  C   -0.105125
     9  C   -0.086577
    10  C    0.125312
    11  C    0.013961
    12  C   -0.001830
    13  C    0.036970
    14  C    0.220000
    15  O   -0.267999
    16  O   -0.379419
    17  N   -0.422461
    18  C    0.147047
    19  C   -0.175391
    20  C   -0.062199
    21  C    0.212828
    22  C    0.106880
    23  C   -0.004495
    24  O   -0.262560
    25  C    0.010380
    26  N   -0.464297
    27  C    0.009633
    28  C   -0.083821
    29  C   -0.073100
    30  C    0.095603
    31  C    0.051494
    32  C   -0.042211
    33  C   -0.063938
    34  N   -0.430409
    35  C    0.189755
    36  C   -0.192742
    37  C    0.021092
    38  C    0.094738
    39  C    0.074505
    40  C    0.115794
    41  O   -0.214714
    42  C   -0.109472
    43  C    0.255270
    44  O   -0.192327
    45  O   -0.417340
    46  C    0.125089
    47  C    0.241916
    48  C   -0.150826
    49  C   -0.240744
    50  C    0.048840
    51  C    0.023094
    52  C   -0.032555
    53  C    0.039482
    54  C   -0.216775
    55  C    0.038415
    56  C   -0.021289
    57  C   -0.001348
    58  C    0.014948
    59  C   -0.159639
    60  C   -0.027620
    61  C   -0.042512
    62  C   -0.016254
    63  C    0.043889
    64  C   -0.227685
    65  C   -0.022123
    66  C   -0.019127
    67  H    0.012625
    68  H   -0.024909
    69  H   -0.003530
    70  H    0.039302
    71  H    0.050216
    72  H    0.034181
    73  H    0.034003
    74  H    0.044036
    75  H    0.032494
    76  H    0.037301
    77  H    0.043705
    78  H    0.044353
    79  H    0.021221
    80  H    0.061563
    81  H    0.064873
    82  H    0.047024
    83  H    0.070056
    84  H    0.051805
    85  H    0.048621
    86  H    0.031103
    87  H    0.037202
    88  H    0.044955
    89  H    0.042110
    90  H    0.041446
    91  H    0.023567
    92  H    0.046489
    93  H    0.046764
    94  H    0.027925
    95  H    0.047969
    96  H    0.063274
    97  H    0.056224
    98  H    0.077643
    99  H    0.064834
   100  H    0.059416
   101  H    0.066263
   102  H    0.077597
   103  H    0.072105
   104  H    0.030130
   105  H    0.063630
   106  H    0.046184
   107  H    0.018281
   108  H    0.008933
   109  H    0.022027
   110  H    0.026653
   111  H    0.013512
   112  H    0.022190
   113  H    0.006476
   114  H    0.012910
   115  H    0.037311
   116  H    0.036668
   117  H    0.027327
   118  H    0.017081
   119  H    0.003690
   120  H    0.019950
   121  H    0.024011
   122  H    0.012365
   123  H    0.013282
   124  H    0.008139
   125  H    0.027353
   126  H    0.033825
   127  H    0.026503
   128  H    0.012503
   129  H    0.015992
   130  H    0.021923
   131  H    0.024288
   132  H    0.033589
   133  H    0.021930
   134  H    0.034612
   135  H    0.018289
   136  H    0.025180
   137  H    0.033250
   138  H    0.027856
   139  H    0.025794
   140  H    0.035151
 Sum of Mulliken charges =  -0.00000

 Dipole moment (field-independent basis, Debye):
    X=              0.2897    Y=              3.9886    Z=              1.2701  Tot=              4.1959
 Quadrupole moment (field-independent basis, Debye-Ang):
   XX=           -386.1658   YY=           -427.3426   ZZ=           -386.4119
   XY=             52.1794   XZ=              2.2293   YZ=             29.3942

 Normal termination of Gaussian 16 at Wed May  4 00:00:31 2022.
