 Gaussian 16, Revision A.03,
 Gaussian 16:  ES64L-G16RevA.03 25-Dec-2016

 --------------------
 #p ZINDO=(nstates=5)
 --------------------

 ------------------------------
 step_1101_chromophore_20 ZINDO
 ------------------------------
 Symbolic Z-matrix:
 Charge =  0 Multiplicity = 1

                         Standard orientation:
 ---------------------------------------------------------------------
 Center     Atomic      Atomic             Coordinates (Angstroms)
 Number     Number       Type             X           Y           Z
 ---------------------------------------------------------------------
      1         12           0        4.015543    1.333808   -0.365724
      2          6           0        4.338863   -1.995094   -0.942221
      3          6           0        1.728993    1.523281   -3.047092
      4          6           0        3.292696    4.634057    0.385639
      5          6           0        6.250505    1.059398    2.319338
      6          7           0        2.904610   -0.098053   -1.602538
      7          6           0        3.262685   -1.469020   -1.615567
      8          6           0        2.430735   -2.187837   -2.702382
      9          6           0        1.853441   -0.942222   -3.506276
     10          6           0        2.255622    0.280187   -2.766238
     11          6           0        2.079982   -1.102997   -5.084681
     12          6           0        1.157835   -2.931252   -2.086407
     13          6           0        0.410739   -3.950148   -2.903531
     14          6           0       -0.566421   -4.859752   -2.175404
     15          8           0       -0.593287   -6.070254   -2.355216
     16          8           0       -1.129158   -4.194537   -1.115139
     17          7           0        2.578625    2.846261   -1.192268
     18          6           0        1.751927    2.723517   -2.270426
     19          6           0        1.034389    3.960414   -2.478122
     20          6           0        1.656314    4.912702   -1.582662
     21          6           0        2.520463    4.182673   -0.673471
     22          6           0        0.058891    4.189435   -3.641513
     23          6           0        1.372197    6.345744   -1.654189
     24          8           0        0.568891    6.737864   -2.507299
     25          6           0        1.923524    7.344714   -0.771449
     26          7           0        4.586606    2.579006    1.094280
     27          6           0        4.265154    4.006359    1.158077
     28          6           0        5.083272    4.738295    2.281368
     29          6           0        5.892901    3.544113    2.897882
     30          6           0        5.582771    2.290844    2.011509
     31          6           0        5.843061    5.930574    1.795774
     32          6           0        5.623998    3.271876    4.472332
     33          6           0        6.873872    3.121930    5.344275
     34          7           0        5.264152   -0.133905    0.488628
     35          6           0        6.023730   -0.119736    1.641956
     36          6           0        6.563179   -1.462865    1.811718
     37          6           0        6.038557   -2.232705    0.783280
     38          6           0        5.145569   -1.395298    0.084371
     39          6           0        7.496464   -1.932095    2.950475
     40          6           0        5.909955   -3.533865    0.235374
     41          8           0        6.403483   -4.585419    0.676803
     42          6           0        4.863519   -3.377975   -0.988381
     43          6           0        3.904216   -4.515928   -0.746570
     44          8           0        3.569923   -5.023746    0.277753
     45          8           0        3.541300   -5.011031   -2.005990
     46          6           0        2.791069   -6.304601   -2.049305
     47          6           0       -2.071605   -5.040211   -0.268786
     48          6           0       -3.226133   -4.347032    0.399978
     49          6           0       -4.329821   -4.859328    0.973585
     50          6           0       -4.614847   -6.374608    1.152203
     51          6           0       -5.398095   -3.894713    1.420376
     52          6           0       -5.260562   -3.216217    2.800216
     53          6           0       -6.473711   -3.211451    3.689352
     54          6           0       -6.948881   -1.775609    4.029938
     55          6           0       -7.732146   -1.760119    5.316739
     56          6           0       -7.787122   -1.232391    2.843616
     57          6           0       -8.067287    0.301758    2.866978
     58          6           0       -7.160469    1.179036    1.980341
     59          6           0       -7.773232    1.698094    0.630404
     60          6           0       -7.341324    0.758937   -0.602513
     61          6           0       -7.427946    3.165278    0.389404
     62          6           0       -7.984278    3.726749   -0.976649
     63          6           0       -9.538058    3.991648   -0.810666
     64          6           0      -10.306120    3.039946   -1.780641
     65          6           0      -11.263728    3.891511   -2.668563
     66          6           0      -11.337455    2.017566   -1.144184
     67          1           0        1.311746    1.655941   -4.048243
     68          1           0        3.250115    5.687237    0.670541
     69          1           0        6.853911    1.207256    3.217708
     70          1           0        2.912631   -2.961668   -3.301704
     71          1           0        0.778334   -0.836651   -3.358762
     72          1           0        1.110380   -1.140203   -5.581124
     73          1           0        2.559767   -2.064468   -5.272195
     74          1           0        2.668225   -0.330239   -5.579738
     75          1           0        0.489343   -2.165812   -1.691707
     76          1           0        1.545535   -3.409982   -1.187337
     77          1           0        1.116664   -4.488936   -3.536236
     78          1           0       -0.330892   -3.474881   -3.545979
     79          1           0       -0.214429    3.217321   -4.053458
     80          1           0        0.598356    4.767040   -4.392691
     81          1           0       -0.795541    4.731017   -3.235660
     82          1           0        3.013483    7.365980   -0.790294
     83          1           0        1.574489    7.197469    0.250207
     84          1           0        1.648192    8.302312   -1.213434
     85          1           0        4.218824    4.976639    2.900471
     86          1           0        6.947498    3.805733    2.806598
     87          1           0        5.561964    6.044667    0.749055
     88          1           0        6.924555    5.819662    1.870274
     89          1           0        5.477067    6.820440    2.307531
     90          1           0        4.909714    2.514882    4.795136
     91          1           0        5.134131    4.158699    4.875047
     92          1           0        6.735451    2.341393    6.092619
     93          1           0        7.193668    4.106629    5.683208
     94          1           0        7.677067    2.737733    4.715391
     95          1           0        8.429022   -1.477707    2.614707
     96          1           0        7.602958   -3.012313    2.849053
     97          1           0        7.257434   -1.647550    3.975173
     98          1           0        5.349659   -3.577526   -1.943553
     99          1           0        3.570951   -7.047761   -1.883253
    100          1           0        2.290531   -6.457286   -3.005432
    101          1           0        1.955203   -6.375779   -1.353305
    102          1           0       -1.557874   -5.594293    0.516673
    103          1           0       -2.629737   -5.673791   -0.959095
    104          1           0       -3.158180   -3.266466    0.276585
    105          1           0       -5.543400   -6.761764    0.732461
    106          1           0       -4.492164   -6.572468    2.217337
    107          1           0       -3.735625   -6.819409    0.686510
    108          1           0       -6.361143   -4.395396    1.325559
    109          1           0       -5.413735   -3.082511    0.692829
    110          1           0       -4.853738   -2.210143    2.704829
    111          1           0       -4.573737   -3.945964    3.229088
    112          1           0       -6.084425   -3.787892    4.527941
    113          1           0       -7.159833   -3.786957    3.067272
    114          1           0       -6.048968   -1.160660    4.044119
    115          1           0       -6.983767   -1.354253    5.997917
    116          1           0       -8.083980   -2.768885    5.531571
    117          1           0       -8.601426   -1.108214    5.231221
    118          1           0       -8.743015   -1.756969    2.852137
    119          1           0       -7.190201   -1.446418    1.956796
    120          1           0       -7.889137    0.610920    3.896571
    121          1           0       -9.095284    0.410949    2.524843
    122          1           0       -6.277446    0.605988    1.699945
    123          1           0       -6.914077    2.070734    2.557637
    124          1           0       -8.848622    1.583426    0.770665
    125          1           0       -7.065743   -0.251357   -0.300513
    126          1           0       -6.487149    1.100350   -1.186906
    127          1           0       -8.187641    0.723020   -1.287612
    128          1           0       -6.348641    3.283250    0.490030
    129          1           0       -7.758974    3.805823    1.206191
    130          1           0       -7.744822    3.009353   -1.760797
    131          1           0       -7.355520    4.604499   -1.123018
    132          1           0       -9.740097    5.054397   -0.943405
    133          1           0       -9.824600    3.708088    0.202237
    134          1           0       -9.673556    2.397381   -2.393013
    135          1           0      -10.828538    4.875715   -2.841197
    136          1           0      -12.205423    4.098731   -2.160358
    137          1           0      -11.485398    3.395846   -3.613397
    138          1           0      -12.195947    1.883599   -1.802448
    139          1           0      -11.777155    2.461922   -0.251716
    140          1           0      -10.852055    1.055261   -0.981076
 ---------------------------------------------------------------------

 SCF Done:  E(RZINDO/S) =  -473.993191196     A.U. after   19 cycles

 Excitation energies and oscillator strengths:

 Excited State   1:      Singlet-A      1.1692 eV 1060.45 nm  f=0.6466  <S**2>=0.000
     175 ->178         0.17182
     176 ->177         0.66615
 This state for optimization and/or second-order correction.
 Total Energy, E(CIS/TDA) =  -473.950225015
 Copying the excited state density for this state as the 1-particle RhoCI density.

 Excited State   2:      Singlet-A      1.8908 eV  655.73 nm  f=0.0195  <S**2>=0.000
     175 ->177         0.53315
     176 ->178        -0.43865

 Excited State   3:      Singlet-A      2.7994 eV  442.90 nm  f=0.0427  <S**2>=0.000
     170 ->177         0.26287
     170 ->178         0.22719
     170 ->179         0.25881
     170 ->180         0.30032
     170 ->182        -0.12256
     170 ->185         0.19821
     170 ->187         0.14874
     173 ->177        -0.19250
     176 ->178        -0.13905

 Excited State   4:      Singlet-A      2.8977 eV  427.86 nm  f=0.5295  <S**2>=0.000
     168 ->180         0.10737
     169 ->177         0.13582
     169 ->179        -0.20893
     170 ->177         0.11167
     170 ->180         0.10505
     171 ->177        -0.15388
     173 ->177         0.17485
     175 ->177         0.28988
     176 ->178         0.39441

 Excited State   5:      Singlet-A      2.9286 eV  423.36 nm  f=0.1136  <S**2>=0.000
     168 ->179         0.17021
     169 ->177        -0.19767
     169 ->179         0.24605
     169 ->180        -0.19023
     169 ->185         0.11232
     171 ->177         0.10827
     173 ->177         0.23061
     175 ->177         0.11503
     176 ->178         0.17871
     176 ->179         0.31848

 The electronic state is 1-A.
 Alpha  occ. eigenvalues --   -1.85238  -1.78730  -1.76934  -1.71767  -1.70685
 Alpha  occ. eigenvalues --   -1.68810  -1.66408  -1.61738  -1.60931  -1.57660
 Alpha  occ. eigenvalues --   -1.54192  -1.50384  -1.47420  -1.46882  -1.45992
 Alpha  occ. eigenvalues --   -1.45197  -1.43932  -1.42215  -1.39470  -1.37719
 Alpha  occ. eigenvalues --   -1.35363  -1.33926  -1.32495  -1.31091  -1.28305
 Alpha  occ. eigenvalues --   -1.26942  -1.25071  -1.23237  -1.20433  -1.18971
 Alpha  occ. eigenvalues --   -1.17579  -1.15935  -1.15183  -1.14101  -1.12330
 Alpha  occ. eigenvalues --   -1.12279  -1.10103  -1.09422  -1.05115  -1.04306
 Alpha  occ. eigenvalues --   -1.02070  -1.01248  -1.00003  -0.97468  -0.96949
 Alpha  occ. eigenvalues --   -0.96452  -0.93677  -0.93424  -0.92250  -0.92151
 Alpha  occ. eigenvalues --   -0.91464  -0.90144  -0.87809  -0.87256  -0.86349
 Alpha  occ. eigenvalues --   -0.85933  -0.84322  -0.83808  -0.81384  -0.80052
 Alpha  occ. eigenvalues --   -0.78664  -0.78419  -0.77250  -0.76970  -0.75703
 Alpha  occ. eigenvalues --   -0.75060  -0.74580  -0.74504  -0.74195  -0.73513
 Alpha  occ. eigenvalues --   -0.72647  -0.72448  -0.71296  -0.71050  -0.70901
 Alpha  occ. eigenvalues --   -0.70106  -0.69822  -0.69185  -0.68333  -0.67436
 Alpha  occ. eigenvalues --   -0.67134  -0.66975  -0.66159  -0.65790  -0.65667
 Alpha  occ. eigenvalues --   -0.65581  -0.64906  -0.64542  -0.64046  -0.63565
 Alpha  occ. eigenvalues --   -0.63226  -0.63095  -0.62663  -0.62199  -0.61889
 Alpha  occ. eigenvalues --   -0.61718  -0.61563  -0.60588  -0.60292  -0.59929
 Alpha  occ. eigenvalues --   -0.59561  -0.58733  -0.58682  -0.58353  -0.57952
 Alpha  occ. eigenvalues --   -0.57683  -0.57556  -0.57168  -0.56929  -0.56529
 Alpha  occ. eigenvalues --   -0.56435  -0.56279  -0.55670  -0.55487  -0.54706
 Alpha  occ. eigenvalues --   -0.54530  -0.54271  -0.53694  -0.53220  -0.52697
 Alpha  occ. eigenvalues --   -0.52514  -0.52458  -0.52212  -0.51921  -0.51739
 Alpha  occ. eigenvalues --   -0.51412  -0.50892  -0.50494  -0.50126  -0.49954
 Alpha  occ. eigenvalues --   -0.49890  -0.49599  -0.49374  -0.48867  -0.48687
 Alpha  occ. eigenvalues --   -0.48402  -0.48328  -0.47912  -0.47701  -0.47509
 Alpha  occ. eigenvalues --   -0.47163  -0.47090  -0.46661  -0.46424  -0.46341
 Alpha  occ. eigenvalues --   -0.46138  -0.45794  -0.45679  -0.45481  -0.44891
 Alpha  occ. eigenvalues --   -0.44765  -0.44471  -0.44340  -0.44319  -0.43886
 Alpha  occ. eigenvalues --   -0.43836  -0.43275  -0.43011  -0.42806  -0.42406
 Alpha  occ. eigenvalues --   -0.42094  -0.41819  -0.41583  -0.39790  -0.38347
 Alpha  occ. eigenvalues --   -0.38224  -0.37536  -0.35377  -0.35136  -0.34675
 Alpha  occ. eigenvalues --   -0.33184  -0.33051  -0.32134  -0.31521  -0.27513
 Alpha  occ. eigenvalues --   -0.21838
 Alpha virt. eigenvalues --   -0.09249  -0.02629  -0.00828   0.00890   0.01439
 Alpha virt. eigenvalues --    0.02166   0.02440   0.03043   0.04651   0.05344
 Alpha virt. eigenvalues --    0.05720   0.06544   0.07325   0.07511   0.08022

 Mulliken charges:
               1
     1  Mg   0.424389
     2  C   -0.042436
     3  C   -0.081827
     4  C   -0.050069
     5  C   -0.052956
     6  N   -0.319907
     7  C    0.128472
     8  C   -0.005047
     9  C   -0.000962
    10  C    0.154719
    11  C   -0.057804
    12  C   -0.022986
    13  C    0.012343
    14  C    0.471605
    15  O   -0.519903
    16  O   -0.269913
    17  N   -0.352490
    18  C    0.131425
    19  C    0.025728
    20  C   -0.037011
    21  C    0.104967
    22  C   -0.033023
    23  C    0.330733
    24  O   -0.545519
    25  C   -0.025704
    26  N   -0.269580
    27  C    0.096869
    28  C    0.004833
    29  C    0.001849
    30  C    0.115204
    31  C   -0.043492
    32  C   -0.038870
    33  C   -0.058513
    34  N   -0.322638
    35  C    0.095359
    36  C    0.047541
    37  C   -0.047009
    38  C    0.134308
    39  C   -0.043685
    40  C    0.327253
    41  O   -0.517188
    42  C    0.058088
    43  C    0.485672
    44  O   -0.480926
    45  O   -0.307070
    46  C    0.069211
    47  C    0.097256
    48  C   -0.078619
    49  C   -0.018047
    50  C   -0.049110
    51  C   -0.024314
    52  C   -0.041304
    53  C   -0.044414
    54  C   -0.010813
    55  C   -0.057246
    56  C   -0.040013
    57  C   -0.042180
    58  C   -0.040435
    59  C   -0.013470
    60  C   -0.062081
    61  C   -0.033166
    62  C   -0.046751
    63  C   -0.026160
    64  C   -0.020810
    65  C   -0.057539
    66  C   -0.062110
    67  H    0.024055
    68  H    0.023791
    69  H    0.039178
    70  H    0.043645
    71  H    0.036754
    72  H    0.018512
    73  H    0.019881
    74  H    0.027622
    75  H    0.025317
    76  H    0.023707
    77  H    0.043469
    78  H    0.035111
    79  H    0.018626
    80  H    0.043806
    81  H    0.046087
    82  H    0.029109
    83  H    0.044075
    84  H    0.035758
    85  H    0.036131
    86  H    0.029746
    87  H    0.022044
    88  H    0.029030
    89  H    0.021021
    90  H    0.031925
    91  H    0.006816
    92  H    0.026669
    93  H    0.026572
    94  H    0.010443
    95  H    0.029667
    96  H    0.038357
    97  H    0.039252
    98  H    0.057317
    99  H    0.045151
   100  H    0.034149
   101  H    0.054730
   102  H    0.060626
   103  H    0.053277
   104  H    0.025795
   105  H    0.040258
   106  H    0.030136
   107  H    0.019535
   108  H    0.016648
   109  H    0.011602
   110  H    0.027563
   111  H    0.014879
   112  H    0.020263
   113  H    0.027800
   114  H    0.022355
   115  H    0.022668
   116  H    0.024893
   117  H    0.019402
   118  H    0.018555
   119  H    0.017095
   120  H    0.021147
   121  H    0.021982
   122  H    0.022070
   123  H    0.015733
   124  H    0.020782
   125  H    0.017899
   126  H    0.020808
   127  H    0.015746
   128  H    0.010319
   129  H    0.012578
   130  H    0.029446
   131  H    0.017347
   132  H    0.029494
   133  H    0.022593
   134  H    0.030140
   135  H    0.007741
   136  H    0.017987
   137  H    0.017570
   138  H    0.017500
   139  H    0.019963
   140  H    0.017569
 Sum of Mulliken charges =  -0.00000

 Dipole moment (field-independent basis, Debye):
    X=              1.3775    Y=              5.9216    Z=              0.5313  Tot=              6.1029
 N-N= 4.461599277908D+03 E-N= 0.000000000000D+00  KE=-9.597364111504D+03
 Leave Link  601 at Wed May  4 00:15:45 2022, MaxMem=  6710886400 cpu:               0.8 elap:               0.1
 (Enter /sw/apps/gaussian-16.0/g16/l9999.exe)
 1\1\GINC-BP1-COMPUTE067\SP\RZINDO CIS\STO-3G\C55H74Mg1N4O6\OF15641\04-
 May-2022\0\\#p ZINDO=(nstates=5)\\step_1101_chromophore_20 ZINDO\\0,1\
 Mg,0,6.323,57.038,41.26\C,0,5.174,53.846,41.357\C,0,9.505,55.81,40.354
 \C,0,7.494,60.251,40.727\C,0,3.123,58.188,42.107\N,0,7.147,55.117,40.5
 93\C,0,6.4,53.922,40.741\C,0,7.299,52.725,40.355\C,0,8.729,53.422,40.3
 36\C,0,8.51,54.875,40.547\C,0,9.804,52.585,41.18\C,0,7.036,52.239,38.8
 56\C,0,7.554,50.904,38.394\C,0,7.002,50.345,37.092\O,0,6.623,49.186,36

 Normal termination of Gaussian 16 at Wed May  4 00:15:45 2022.
