 Gaussian 16, Revision A.03,
 Gaussian 16:  ES64L-G16RevA.03 25-Dec-2016

 ------------------------------
 #p blyp/Def2SVP td=(nstates=5)
 ------------------------------

 --------------------------------------------------
 step_1301_chromophore_3 TDDFT with blyp functional
 --------------------------------------------------
 Symbolic Z-matrix:
 Charge =  0 Multiplicity = 1

                         Standard orientation:
 ---------------------------------------------------------------------
 Center     Atomic      Atomic             Coordinates (Angstroms)
 Number     Number       Type             X           Y           Z
 ---------------------------------------------------------------------
      1         12           0       -5.548762    0.855028   -0.169007
      2          6           0       -4.529028   -2.616687   -0.026797
      3          6           0       -2.177061    1.598514   -0.060448
      4          6           0       -6.499426    3.965245    0.374530
      5          6           0       -8.806919   -0.201809    0.435307
      6          7           0       -3.627862   -0.368585    0.053949
      7          6           0       -3.457049   -1.760078   -0.009978
      8          6           0       -1.973310   -2.109842   -0.167874
      9          6           0       -1.319899   -0.772112   -0.219511
     10          6           0       -2.420445    0.237271   -0.046554
     11          6           0       -0.157947   -0.597102    0.736850
     12          6           0       -1.868923   -2.852889   -1.472791
     13          6           0       -0.495531   -3.136299   -2.078496
     14          6           0        0.680310   -3.140117   -1.146598
     15          8           0        0.678809   -3.465670    0.032628
     16          8           0        1.787267   -2.672969   -1.882280
     17          7           0       -4.460846    2.581246    0.000427
     18          6           0       -3.069620    2.675628   -0.013618
     19          6           0       -2.807564    4.109120    0.010718
     20          6           0       -4.044222    4.896395    0.148632
     21          6           0       -5.100413    3.785209    0.159279
     22          6           0       -1.457732    4.744544    0.067204
     23          6           0       -4.233615    6.436882    0.194964
     24          8           0       -5.377685    6.969153    0.126652
     25          6           0       -3.088897    7.367122    0.403993
     26          7           0       -7.498507    1.798852    0.134400
     27          6           0       -7.547311    3.110283    0.389234
     28          6           0       -8.989030    3.563944    0.428819
     29          6           0       -9.789801    2.206577    0.669108
     30          6           0       -8.659081    1.174570    0.474524
     31          6           0       -9.333900    4.768080    1.363508
     32          6           0      -10.963855    1.903045   -0.316588
     33          6           0      -10.733418    1.800409   -1.768754
     34          7           0       -6.590111   -0.982402    0.010065
     35          6           0       -7.891337   -1.249475    0.265132
     36          6           0       -8.119308   -2.695111    0.380399
     37          6           0       -6.815523   -3.248587    0.202437
     38          6           0       -5.926031   -2.179923    0.055213
     39          6           0       -9.375115   -3.222090    0.706609
     40          6           0       -6.104112   -4.502802    0.277908
     41          8           0       -6.589819   -5.639740    0.471838
     42          6           0       -4.568226   -4.161569    0.174023
     43          6           0       -3.995550   -4.615723    1.410734
     44          8           0       -4.416286   -4.463005    2.563782
     45          8           0       -2.837076   -5.285410    1.137877
     46          6           0       -1.986418   -5.714459    2.225357
     47          6           0        2.987452   -2.459935   -1.027489
     48          6           0        4.211953   -2.258101   -1.884073
     49          6           0        5.459582   -2.793998   -1.868303
     50          6           0        6.075055   -3.633407   -0.723770
     51          6           0        6.412945   -2.422435   -2.986231
     52          6           0        6.761792   -0.912058   -3.048302
     53          6           0        8.260499   -0.625326   -3.249970
     54          6           0        8.951290    0.125744   -2.106959
     55          6           0        9.291579   -0.884256   -0.995149
     56          6           0       10.092120    1.112141   -2.690126
     57          6           0       10.622461    2.138248   -1.631399
     58          6           0       12.127614    2.198512   -1.575556
     59          6           0       12.680235    2.976210   -0.265135
     60          6           0       13.361370    4.338998   -0.704872
     61          6           0       13.655914    2.012462    0.499481
     62          6           0       12.980728    1.529874    1.826054
     63          6           0       13.814022    0.302834    2.338930
     64          6           0       13.710377    0.183595    3.871525
     65          6           0       15.118266   -0.020536    4.523844
     66          6           0       12.679957   -0.996633    4.266163
     67          1           0       -1.135357    1.858437   -0.258355
     68          1           0       -6.791837    4.996759    0.583196
     69          1           0       -9.805700   -0.540065    0.718540
     70          1           0       -1.662462   -2.742739    0.664377
     71          1           0       -0.979352   -0.655825   -1.247790
     72          1           0       -0.518110    0.235853    1.341870
     73          1           0        0.643025   -0.474370    0.007857
     74          1           0        0.017037   -1.414692    1.434876
     75          1           0       -2.363204   -2.213278   -2.202747
     76          1           0       -2.412314   -3.779951   -1.290274
     77          1           0       -0.236237   -2.426053   -2.864047
     78          1           0       -0.540764   -4.119804   -2.547019
     79          1           0       -1.249250    5.269852    0.999735
     80          1           0       -1.323294    5.470471   -0.734349
     81          1           0       -0.656557    4.007629    0.126347
     82          1           0       -3.455697    8.381746    0.250777
     83          1           0       -2.408420    7.261399   -0.440739
     84          1           0       -2.651444    7.253373    1.396079
     85          1           0       -9.196719    3.852499   -0.601651
     86          1           0      -10.084175    2.147897    1.716662
     87          1           0       -8.616266    4.979072    2.156577
     88          1           0      -10.310249    4.614830    1.823429
     89          1           0       -9.452728    5.700402    0.810008
     90          1           0      -11.687847    2.710895   -0.207333
     91          1           0      -11.501571    1.000289   -0.025858
     92          1           0      -11.614754    2.091136   -2.339667
     93          1           0      -10.548175    0.755729   -2.020917
     94          1           0       -9.869482    2.324450   -2.176367
     95          1           0      -10.107053   -3.291631   -0.097827
     96          1           0       -9.785404   -2.629489    1.523744
     97          1           0       -9.256544   -4.186678    1.201305
     98          1           0       -4.177135   -4.614796   -0.736628
     99          1           0       -2.547272   -6.527305    2.686926
    100          1           0       -1.725618   -4.919597    2.923603
    101          1           0       -1.093692   -6.121433    1.749970
    102          1           0        3.117884   -3.265593   -0.305614
    103          1           0        2.925324   -1.471402   -0.572430
    104          1           0        4.053530   -1.560572   -2.706112
    105          1           0        6.901289   -3.088431   -0.267519
    106          1           0        6.520290   -4.548197   -1.114506
    107          1           0        5.409602   -3.861952    0.108795
    108          1           0        5.851355   -2.610022   -3.901286
    109          1           0        7.282608   -3.061183   -3.138419
    110          1           0        6.479957   -0.467665   -2.093333
    111          1           0        6.214079   -0.463753   -3.878041
    112          1           0        8.190437    0.036970   -4.113058
    113          1           0        8.833722   -1.533893   -3.430643
    114          1           0        8.136913    0.745766   -1.731263
    115          1           0       10.341395   -1.092592   -0.788986
    116          1           0        8.837462   -1.849549   -1.217698
    117          1           0        8.803410   -0.518854   -0.092089
    118          1           0        9.517927    1.596968   -3.479930
    119          1           0       10.924684    0.554180   -3.116654
    120          1           0       10.230111    1.920380   -0.637746
    121          1           0       10.294085    3.150196   -1.868820
    122          1           0       12.502589    2.588747   -2.521441
    123          1           0       12.373724    1.137702   -1.528163
    124          1           0       11.809970    3.291509    0.310488
    125          1           0       13.005023    4.740623   -1.653667
    126          1           0       14.435235    4.310813   -0.889755
    127          1           0       13.274880    5.178263   -0.014597
    128          1           0       14.525659    2.576671    0.836611
    129          1           0       13.914406    1.168955   -0.140495
    130          1           0       11.963324    1.200784    1.613042
    131          1           0       12.981926    2.169608    2.709099
    132          1           0       14.877907    0.496540    2.203092
    133          1           0       13.578032   -0.608895    1.791959
    134          1           0       13.215722    1.024153    4.357524
    135          1           0       15.239659   -0.879259    5.183010
    136          1           0       15.360864    0.837506    5.151364
    137          1           0       15.935276   -0.303864    3.860080
    138          1           0       13.227486   -1.628900    4.966042
    139          1           0       12.331127   -1.441741    3.334317
    140          1           0       11.771073   -0.596588    4.713912
 ---------------------------------------------------------------------

 SCF Done:  E(RB-LYP) =  -3007.37036279     A.U. after   21 cycles

 Excitation energies and oscillator strengths:

 Excited State   1:      Singlet-A      1.7587 eV  704.99 nm  f=0.2854  <S**2>=0.000
     243 -> 247        0.17027
     244 -> 247       -0.11727
     245 -> 248        0.12140
     245 -> 249       -0.10995
     246 -> 247        0.67017
     246 <- 247       -0.15901
 This state for optimization and/or second-order correction.
 Total Energy, E(TD-HF/TD-DFT) =  -3007.30573335
 Copying the excited state density for this state as the 1-particle RhoCI density.

 Excited State   2:      Singlet-A      1.8281 eV  678.22 nm  f=0.0075  <S**2>=0.000
     244 -> 247        0.69216

 Excited State   3:      Singlet-A      1.8662 eV  664.35 nm  f=0.0420  <S**2>=0.000
     243 -> 247        0.64416
     245 -> 247       -0.20347
     246 -> 247       -0.18194

 Excited State   4:      Singlet-A      2.0374 eV  608.53 nm  f=0.0949  <S**2>=0.000
     241 -> 247        0.10078
     243 -> 247        0.20920
     245 -> 247        0.62011
     246 -> 248       -0.16691
     246 -> 249        0.14388

 Excited State   5:      Singlet-A      2.3421 eV  529.36 nm  f=0.0002  <S**2>=0.000
     240 -> 247        0.70696

 The electronic state is 1-A.
 Alpha  occ. eigenvalues --  -46.27529 -18.82829 -18.81384 -18.78515 -18.75906
 Alpha  occ. eigenvalues --  -18.75385 -18.75255 -14.03088 -14.02481 -14.01475
 Alpha  occ. eigenvalues --  -14.00774 -10.05098 -10.03370 -10.00309  -9.99239
 Alpha  occ. eigenvalues --   -9.98491  -9.97138  -9.96702  -9.96186  -9.96174
 Alpha  occ. eigenvalues --   -9.96083  -9.96069  -9.95486  -9.94883  -9.94722
 Alpha  occ. eigenvalues --   -9.94186  -9.94136  -9.94032  -9.94010  -9.93997
 Alpha  occ. eigenvalues --   -9.93986  -9.93801  -9.93519  -9.93088  -9.92949
 Alpha  occ. eigenvalues --   -9.92904  -9.92850  -9.92742  -9.92728  -9.92728
 Alpha  occ. eigenvalues --   -9.92691  -9.92583  -9.92403  -9.92226  -9.92201
 Alpha  occ. eigenvalues --   -9.92159  -9.92101  -9.92063  -9.92036  -9.92024
 Alpha  occ. eigenvalues --   -9.91952  -9.91626  -9.91619  -9.91531  -9.91518
 Alpha  occ. eigenvalues --   -9.91452  -9.91448  -9.91314  -9.91177  -9.91161
 Alpha  occ. eigenvalues --   -9.91084  -9.90907  -9.90883  -9.90836  -9.90786
 Alpha  occ. eigenvalues --   -9.90759  -2.92026  -1.72463  -1.71915  -1.71727
 Alpha  occ. eigenvalues --   -0.97663  -0.97356  -0.90874  -0.89503  -0.89359
 Alpha  occ. eigenvalues --   -0.88472  -0.86554  -0.85907  -0.85295  -0.84074
 Alpha  occ. eigenvalues --   -0.75371  -0.74300  -0.73912  -0.72514  -0.72380
 Alpha  occ. eigenvalues --   -0.71860  -0.71676  -0.71263  -0.70628  -0.70540
 Alpha  occ. eigenvalues --   -0.69904  -0.69546  -0.68135  -0.67939  -0.67457
 Alpha  occ. eigenvalues --   -0.66730  -0.66061  -0.65431  -0.65184  -0.64820
 Alpha  occ. eigenvalues --   -0.64128  -0.63018  -0.62221  -0.61454  -0.61057
 Alpha  occ. eigenvalues --   -0.60929  -0.59953  -0.59877  -0.59733  -0.58901
 Alpha  occ. eigenvalues --   -0.58085  -0.57605  -0.56808  -0.55841  -0.54983
 Alpha  occ. eigenvalues --   -0.53909  -0.53649  -0.52558  -0.52286  -0.51170
 Alpha  occ. eigenvalues --   -0.50893  -0.50670  -0.50600  -0.50401  -0.50386
 Alpha  occ. eigenvalues --   -0.49487  -0.49362  -0.48884  -0.48295  -0.46958
 Alpha  occ. eigenvalues --   -0.46220  -0.46112  -0.45755  -0.45161  -0.44934
 Alpha  occ. eigenvalues --   -0.44093  -0.43867  -0.43542  -0.43101  -0.42733
 Alpha  occ. eigenvalues --   -0.42245  -0.42138  -0.41882  -0.41796  -0.41705
 Alpha  occ. eigenvalues --   -0.41225  -0.41088  -0.40837  -0.40584  -0.40096
 Alpha  occ. eigenvalues --   -0.39750  -0.39708  -0.39686  -0.39349  -0.39042
 Alpha  occ. eigenvalues --   -0.38985  -0.38832  -0.38713  -0.38553  -0.38335
 Alpha  occ. eigenvalues --   -0.38015  -0.37817  -0.37646  -0.37436  -0.37057
 Alpha  occ. eigenvalues --   -0.36948  -0.36844  -0.36819  -0.36439  -0.36329
 Alpha  occ. eigenvalues --   -0.36276  -0.36019  -0.35981  -0.35559  -0.35452
 Alpha  occ. eigenvalues --   -0.35406  -0.35218  -0.34915  -0.34776  -0.34639
 Alpha  occ. eigenvalues --   -0.34455  -0.34322  -0.34197  -0.34109  -0.33924
 Alpha  occ. eigenvalues --   -0.33804  -0.33624  -0.33429  -0.33228  -0.33145
 Alpha  occ. eigenvalues --   -0.33053  -0.32551  -0.32335  -0.32181  -0.32100
 Alpha  occ. eigenvalues --   -0.31798  -0.31705  -0.31630  -0.31348  -0.31245
 Alpha  occ. eigenvalues --   -0.31025  -0.30851  -0.30771  -0.30659  -0.30596
 Alpha  occ. eigenvalues --   -0.30376  -0.30186  -0.30085  -0.29708  -0.29640
 Alpha  occ. eigenvalues --   -0.29532  -0.29302  -0.29112  -0.29086  -0.28832
 Alpha  occ. eigenvalues --   -0.28694  -0.28673  -0.28449  -0.28276  -0.27821
 Alpha  occ. eigenvalues --   -0.27728  -0.27250  -0.27131  -0.27098  -0.26471
 Alpha  occ. eigenvalues --   -0.26413  -0.26046  -0.26031  -0.25855  -0.25779
 Alpha  occ. eigenvalues --   -0.25307  -0.25010  -0.24413  -0.23755  -0.23383
 Alpha  occ. eigenvalues --   -0.23238  -0.22867  -0.22205  -0.21222  -0.20308
 Alpha  occ. eigenvalues --   -0.20147  -0.20003  -0.18486  -0.18317  -0.17381
 Alpha  occ. eigenvalues --   -0.15686
 Alpha virt. eigenvalues --   -0.11702  -0.06742  -0.05917  -0.04916  -0.04103
 Alpha virt. eigenvalues --   -0.02913  -0.02664  -0.02514  -0.01238   0.00333
 Alpha virt. eigenvalues --    0.01209   0.01446   0.01683   0.02224   0.02945

 Mulliken charges:
               1
     1  Mg   0.683783
     2  C   -0.070331
     3  C   -0.081630
     4  C   -0.026953
     5  C   -0.067844
     6  N   -0.202194
     7  C   -0.093566
     8  C    0.080675
     9  C   -0.006366
    10  C    0.005412
    11  C    0.165726
    12  C    0.085881
    13  C    0.166908
    14  C    0.075021
    15  O   -0.189683
    16  O   -0.300200
    17  N   -0.336504
    18  C    0.176969
    19  C   -0.143161
    20  C    0.022593
    21  C    0.100588
    22  C    0.165626
    23  C   -0.065775
    24  O   -0.200905
    25  C    0.161727
    26  N   -0.218661
    27  C    0.033775
    28  C    0.010313
    29  C    0.096718
    30  C   -0.019243
    31  C    0.126922
    32  C    0.084181
    33  C    0.072461
    34  N   -0.236773
    35  C    0.090699
    36  C   -0.130645
    37  C    0.096199
    38  C    0.102456
    39  C    0.170655
    40  C   -0.078480
    41  O   -0.155566
    42  C    0.103430
    43  C    0.129972
    44  O   -0.190053
    45  O   -0.274790
    46  C    0.229073
    47  C    0.345424
    48  C   -0.123448
    49  C   -0.139060
    50  C    0.130154
    51  C    0.127423
    52  C    0.063140
    53  C    0.087125
    54  C   -0.100355
    55  C    0.106591
    56  C    0.124167
    57  C    0.067334
    58  C    0.062034
    59  C   -0.025886
    60  C    0.070859
    61  C    0.134254
    62  C    0.035556
    63  C    0.096564
    64  C   -0.109604
    65  C    0.092349
    66  C    0.090000
    67  H   -0.059126
    68  H   -0.052860
    69  H   -0.074992
    70  H   -0.017816
    71  H   -0.034980
    72  H   -0.014725
    73  H   -0.000944
    74  H    0.004903
    75  H   -0.023723
    76  H   -0.015156
    77  H   -0.002475
    78  H    0.008500
    79  H   -0.005668
    80  H    0.002283
    81  H   -0.028762
    82  H   -0.016276
    83  H   -0.008077
    84  H    0.026068
    85  H   -0.008422
    86  H   -0.032904
    87  H    0.003112
    88  H   -0.016668
    89  H   -0.006161
    90  H   -0.027409
    91  H   -0.019021
    92  H   -0.009432
    93  H   -0.015913
    94  H   -0.007497
    95  H    0.006757
    96  H   -0.009520
    97  H   -0.004317
    98  H    0.006528
    99  H    0.014230
   100  H    0.020707
   101  H    0.013126
   102  H    0.003668
   103  H    0.003119
   104  H   -0.038243
   105  H   -0.000988
   106  H   -0.003938
   107  H   -0.016541
   108  H   -0.025090
   109  H   -0.033813
   110  H   -0.019834
   111  H   -0.018966
   112  H   -0.047514
   113  H   -0.027331
   114  H   -0.044343
   115  H   -0.008951
   116  H   -0.017652
   117  H   -0.011687
   118  H   -0.036948
   119  H   -0.027397
   120  H   -0.029028
   121  H   -0.035271
   122  H   -0.024258
   123  H   -0.033623
   124  H   -0.023999
   125  H   -0.026672
   126  H   -0.025515
   127  H   -0.021020
   128  H   -0.027128
   129  H   -0.015949
   130  H   -0.027543
   131  H   -0.022763
   132  H   -0.036940
   133  H   -0.022373
   134  H   -0.026249
   135  H   -0.033256
   136  H   -0.007697
   137  H   -0.016387
   138  H   -0.008884
   139  H   -0.019911
   140  H   -0.019517
 Sum of Mulliken charges =  -0.00000

 Dipole moment (field-independent basis, Debye):
    X=              5.0524    Y=              2.4766    Z=             -2.8843  Tot=              6.3229
 Quadrupole moment (field-independent basis, Debye-Ang):
   XX=           -383.9501   YY=           -442.7482   ZZ=           -404.7368
   XY=            -24.1193   XZ=             10.0120   YZ=             11.5146

 Normal termination of Gaussian 16 at Wed May  4 03:59:53 2022.
