 Gaussian 16, Revision A.03,
 Gaussian 16:  ES64L-G16RevA.03 25-Dec-2016

 -----------------------------------
 #p cam-b3lyp/Def2SVP td=(nstates=5)
 -----------------------------------

 -------------------------------------------------------
 step_1301_chromophore_3 TDDFT with cam-b3lyp functional
 -------------------------------------------------------
 Symbolic Z-matrix:
 Charge =  0 Multiplicity = 1

                         Standard orientation:
 ---------------------------------------------------------------------
 Center     Atomic      Atomic             Coordinates (Angstroms)
 Number     Number       Type             X           Y           Z
 ---------------------------------------------------------------------
      1         12           0       -5.548762    0.855028   -0.169007
      2          6           0       -4.529028   -2.616687   -0.026797
      3          6           0       -2.177061    1.598514   -0.060448
      4          6           0       -6.499426    3.965245    0.374530
      5          6           0       -8.806919   -0.201809    0.435307
      6          7           0       -3.627862   -0.368585    0.053949
      7          6           0       -3.457049   -1.760078   -0.009978
      8          6           0       -1.973310   -2.109842   -0.167874
      9          6           0       -1.319899   -0.772112   -0.219511
     10          6           0       -2.420445    0.237271   -0.046554
     11          6           0       -0.157947   -0.597102    0.736850
     12          6           0       -1.868923   -2.852889   -1.472791
     13          6           0       -0.495531   -3.136299   -2.078496
     14          6           0        0.680310   -3.140117   -1.146598
     15          8           0        0.678809   -3.465670    0.032628
     16          8           0        1.787267   -2.672969   -1.882280
     17          7           0       -4.460846    2.581246    0.000427
     18          6           0       -3.069620    2.675628   -0.013618
     19          6           0       -2.807564    4.109120    0.010718
     20          6           0       -4.044222    4.896395    0.148632
     21          6           0       -5.100413    3.785209    0.159279
     22          6           0       -1.457732    4.744544    0.067204
     23          6           0       -4.233615    6.436882    0.194964
     24          8           0       -5.377685    6.969153    0.126652
     25          6           0       -3.088897    7.367122    0.403993
     26          7           0       -7.498507    1.798852    0.134400
     27          6           0       -7.547311    3.110283    0.389234
     28          6           0       -8.989030    3.563944    0.428819
     29          6           0       -9.789801    2.206577    0.669108
     30          6           0       -8.659081    1.174570    0.474524
     31          6           0       -9.333900    4.768080    1.363508
     32          6           0      -10.963855    1.903045   -0.316588
     33          6           0      -10.733418    1.800409   -1.768754
     34          7           0       -6.590111   -0.982402    0.010065
     35          6           0       -7.891337   -1.249475    0.265132
     36          6           0       -8.119308   -2.695111    0.380399
     37          6           0       -6.815523   -3.248587    0.202437
     38          6           0       -5.926031   -2.179923    0.055213
     39          6           0       -9.375115   -3.222090    0.706609
     40          6           0       -6.104112   -4.502802    0.277908
     41          8           0       -6.589819   -5.639740    0.471838
     42          6           0       -4.568226   -4.161569    0.174023
     43          6           0       -3.995550   -4.615723    1.410734
     44          8           0       -4.416286   -4.463005    2.563782
     45          8           0       -2.837076   -5.285410    1.137877
     46          6           0       -1.986418   -5.714459    2.225357
     47          6           0        2.987452   -2.459935   -1.027489
     48          6           0        4.211953   -2.258101   -1.884073
     49          6           0        5.459582   -2.793998   -1.868303
     50          6           0        6.075055   -3.633407   -0.723770
     51          6           0        6.412945   -2.422435   -2.986231
     52          6           0        6.761792   -0.912058   -3.048302
     53          6           0        8.260499   -0.625326   -3.249970
     54          6           0        8.951290    0.125744   -2.106959
     55          6           0        9.291579   -0.884256   -0.995149
     56          6           0       10.092120    1.112141   -2.690126
     57          6           0       10.622461    2.138248   -1.631399
     58          6           0       12.127614    2.198512   -1.575556
     59          6           0       12.680235    2.976210   -0.265135
     60          6           0       13.361370    4.338998   -0.704872
     61          6           0       13.655914    2.012462    0.499481
     62          6           0       12.980728    1.529874    1.826054
     63          6           0       13.814022    0.302834    2.338930
     64          6           0       13.710377    0.183595    3.871525
     65          6           0       15.118266   -0.020536    4.523844
     66          6           0       12.679957   -0.996633    4.266163
     67          1           0       -1.135357    1.858437   -0.258355
     68          1           0       -6.791837    4.996759    0.583196
     69          1           0       -9.805700   -0.540065    0.718540
     70          1           0       -1.662462   -2.742739    0.664377
     71          1           0       -0.979352   -0.655825   -1.247790
     72          1           0       -0.518110    0.235853    1.341870
     73          1           0        0.643025   -0.474370    0.007857
     74          1           0        0.017037   -1.414692    1.434876
     75          1           0       -2.363204   -2.213278   -2.202747
     76          1           0       -2.412314   -3.779951   -1.290274
     77          1           0       -0.236237   -2.426053   -2.864047
     78          1           0       -0.540764   -4.119804   -2.547019
     79          1           0       -1.249250    5.269852    0.999735
     80          1           0       -1.323294    5.470471   -0.734349
     81          1           0       -0.656557    4.007629    0.126347
     82          1           0       -3.455697    8.381746    0.250777
     83          1           0       -2.408420    7.261399   -0.440739
     84          1           0       -2.651444    7.253373    1.396079
     85          1           0       -9.196719    3.852499   -0.601651
     86          1           0      -10.084175    2.147897    1.716662
     87          1           0       -8.616266    4.979072    2.156577
     88          1           0      -10.310249    4.614830    1.823429
     89          1           0       -9.452728    5.700402    0.810008
     90          1           0      -11.687847    2.710895   -0.207333
     91          1           0      -11.501571    1.000289   -0.025858
     92          1           0      -11.614754    2.091136   -2.339667
     93          1           0      -10.548175    0.755729   -2.020917
     94          1           0       -9.869482    2.324450   -2.176367
     95          1           0      -10.107053   -3.291631   -0.097827
     96          1           0       -9.785404   -2.629489    1.523744
     97          1           0       -9.256544   -4.186678    1.201305
     98          1           0       -4.177135   -4.614796   -0.736628
     99          1           0       -2.547272   -6.527305    2.686926
    100          1           0       -1.725618   -4.919597    2.923603
    101          1           0       -1.093692   -6.121433    1.749970
    102          1           0        3.117884   -3.265593   -0.305614
    103          1           0        2.925324   -1.471402   -0.572430
    104          1           0        4.053530   -1.560572   -2.706112
    105          1           0        6.901289   -3.088431   -0.267519
    106          1           0        6.520290   -4.548197   -1.114506
    107          1           0        5.409602   -3.861952    0.108795
    108          1           0        5.851355   -2.610022   -3.901286
    109          1           0        7.282608   -3.061183   -3.138419
    110          1           0        6.479957   -0.467665   -2.093333
    111          1           0        6.214079   -0.463753   -3.878041
    112          1           0        8.190437    0.036970   -4.113058
    113          1           0        8.833722   -1.533893   -3.430643
    114          1           0        8.136913    0.745766   -1.731263
    115          1           0       10.341395   -1.092592   -0.788986
    116          1           0        8.837462   -1.849549   -1.217698
    117          1           0        8.803410   -0.518854   -0.092089
    118          1           0        9.517927    1.596968   -3.479930
    119          1           0       10.924684    0.554180   -3.116654
    120          1           0       10.230111    1.920380   -0.637746
    121          1           0       10.294085    3.150196   -1.868820
    122          1           0       12.502589    2.588747   -2.521441
    123          1           0       12.373724    1.137702   -1.528163
    124          1           0       11.809970    3.291509    0.310488
    125          1           0       13.005023    4.740623   -1.653667
    126          1           0       14.435235    4.310813   -0.889755
    127          1           0       13.274880    5.178263   -0.014597
    128          1           0       14.525659    2.576671    0.836611
    129          1           0       13.914406    1.168955   -0.140495
    130          1           0       11.963324    1.200784    1.613042
    131          1           0       12.981926    2.169608    2.709099
    132          1           0       14.877907    0.496540    2.203092
    133          1           0       13.578032   -0.608895    1.791959
    134          1           0       13.215722    1.024153    4.357524
    135          1           0       15.239659   -0.879259    5.183010
    136          1           0       15.360864    0.837506    5.151364
    137          1           0       15.935276   -0.303864    3.860080
    138          1           0       13.227486   -1.628900    4.966042
    139          1           0       12.331127   -1.441741    3.334317
    140          1           0       11.771073   -0.596588    4.713912
 ---------------------------------------------------------------------

 SCF Done:  E(RCAM-B3LYP) =  -3007.16077361     A.U. after   19 cycles

 Excitation energies and oscillator strengths:

 Excited State   1:      Singlet-A      1.6389 eV  756.51 nm  f=0.4009  <S**2>=0.000
     245 -> 248       -0.15272
     246 -> 247        0.69102
     245 <- 248       -0.10041
 This state for optimization and/or second-order correction.
 Total Energy, E(TD-HF/TD-DFT) =  -3007.10054553
 Copying the excited state density for this state as the 1-particle RhoCI density.

 Excited State   2:      Singlet-A      2.2429 eV  552.79 nm  f=0.1500  <S**2>=0.000
     245 -> 247        0.64793
     246 -> 248        0.25504

 Excited State   3:      Singlet-A      3.2501 eV  381.48 nm  f=0.0013  <S**2>=0.000
     243 -> 247       -0.33371
     244 -> 247        0.60438

 Excited State   4:      Singlet-A      3.3373 eV  371.51 nm  f=0.0043  <S**2>=0.000
     243 -> 247        0.59437
     244 -> 247        0.32221
     246 -> 248       -0.14727

 Excited State   5:      Singlet-A      3.4609 eV  358.25 nm  f=0.0001  <S**2>=0.000
     241 -> 247        0.56864
     241 -> 249       -0.27707
     241 -> 250       -0.26630

 The electronic state is 1-A.
 Alpha  occ. eigenvalues --  -46.89125 -19.25791 -19.24274 -19.21583 -19.18937
 Alpha  occ. eigenvalues --  -19.18858 -19.18307 -14.41999 -14.41304 -14.40055
 Alpha  occ. eigenvalues --  -14.39076 -10.40539 -10.38761 -10.35854 -10.34504
 Alpha  occ. eigenvalues --  -10.32654 -10.31436 -10.31027 -10.30788 -10.30672
 Alpha  occ. eigenvalues --  -10.30592 -10.30319 -10.29935 -10.29113 -10.28929
 Alpha  occ. eigenvalues --  -10.28853 -10.28357 -10.28312 -10.28271 -10.28200
 Alpha  occ. eigenvalues --  -10.28037 -10.27923 -10.27731 -10.27161 -10.27026
 Alpha  occ. eigenvalues --  -10.26950 -10.26672 -10.26669 -10.26651 -10.26608
 Alpha  occ. eigenvalues --  -10.26571 -10.26310 -10.26300 -10.26183 -10.26165
 Alpha  occ. eigenvalues --  -10.26083 -10.25999 -10.25916 -10.25733 -10.25726
 Alpha  occ. eigenvalues --  -10.25715 -10.25706 -10.25321 -10.25266 -10.25139
 Alpha  occ. eigenvalues --  -10.25138 -10.24924 -10.24865 -10.24838 -10.24779
 Alpha  occ. eigenvalues --  -10.24753 -10.24667 -10.24525 -10.24521 -10.24512
 Alpha  occ. eigenvalues --  -10.24425  -3.17520  -1.92435  -1.91969  -1.91814
 Alpha  occ. eigenvalues --   -1.16171  -1.15840  -1.08760  -1.07919  -1.07691
 Alpha  occ. eigenvalues --   -1.06376  -1.04250  -1.03622  -1.02763  -1.01698
 Alpha  occ. eigenvalues --   -0.92472  -0.91185  -0.90792  -0.89288  -0.89089
 Alpha  occ. eigenvalues --   -0.88552  -0.88314  -0.87864  -0.87097  -0.87081
 Alpha  occ. eigenvalues --   -0.86593  -0.86101  -0.84396  -0.84121  -0.83659
 Alpha  occ. eigenvalues --   -0.82747  -0.82221  -0.81586  -0.81037  -0.80696
 Alpha  occ. eigenvalues --   -0.79957  -0.78679  -0.77879  -0.77120  -0.76457
 Alpha  occ. eigenvalues --   -0.76340  -0.75299  -0.75189  -0.75039  -0.74136
 Alpha  occ. eigenvalues --   -0.73142  -0.72567  -0.71724  -0.70674  -0.69555
 Alpha  occ. eigenvalues --   -0.68508  -0.68198  -0.67146  -0.66688  -0.65379
 Alpha  occ. eigenvalues --   -0.65073  -0.64769  -0.64573  -0.64509  -0.64289
 Alpha  occ. eigenvalues --   -0.63439  -0.63208  -0.62770  -0.61971  -0.60611
 Alpha  occ. eigenvalues --   -0.59884  -0.59582  -0.59186  -0.58666  -0.58332
 Alpha  occ. eigenvalues --   -0.57569  -0.57199  -0.56816  -0.56195  -0.55712
 Alpha  occ. eigenvalues --   -0.55376  -0.55240  -0.55065  -0.54719  -0.54635
 Alpha  occ. eigenvalues --   -0.54255  -0.53887  -0.53695  -0.53295  -0.53068
 Alpha  occ. eigenvalues --   -0.52561  -0.52474  -0.52180  -0.51933  -0.51693
 Alpha  occ. eigenvalues --   -0.51459  -0.51337  -0.51221  -0.50947  -0.50776
 Alpha  occ. eigenvalues --   -0.50359  -0.50117  -0.50004  -0.49732  -0.49452
 Alpha  occ. eigenvalues --   -0.49314  -0.49153  -0.49128  -0.48912  -0.48750
 Alpha  occ. eigenvalues --   -0.48442  -0.48370  -0.48013  -0.47991  -0.47507
 Alpha  occ. eigenvalues --   -0.47300  -0.47272  -0.47141  -0.47078  -0.46491
 Alpha  occ. eigenvalues --   -0.46418  -0.46357  -0.46064  -0.45993  -0.45735
 Alpha  occ. eigenvalues --   -0.45554  -0.45387  -0.45225  -0.45117  -0.44907
 Alpha  occ. eigenvalues --   -0.44788  -0.44187  -0.44016  -0.43855  -0.43779
 Alpha  occ. eigenvalues --   -0.43420  -0.43249  -0.43001  -0.42978  -0.42604
 Alpha  occ. eigenvalues --   -0.42434  -0.42392  -0.42177  -0.42065  -0.42037
 Alpha  occ. eigenvalues --   -0.41848  -0.41456  -0.41369  -0.41277  -0.41246
 Alpha  occ. eigenvalues --   -0.40869  -0.40780  -0.40401  -0.40275  -0.40120
 Alpha  occ. eigenvalues --   -0.39976  -0.39638  -0.39461  -0.39210  -0.38700
 Alpha  occ. eigenvalues --   -0.38561  -0.38271  -0.38020  -0.37980  -0.37561
 Alpha  occ. eigenvalues --   -0.37184  -0.37088  -0.37002  -0.36733  -0.36486
 Alpha  occ. eigenvalues --   -0.36455  -0.35755  -0.35453  -0.35128  -0.34063
 Alpha  occ. eigenvalues --   -0.33895  -0.33684  -0.32802  -0.31364  -0.31101
 Alpha  occ. eigenvalues --   -0.30371  -0.29926  -0.29600  -0.29040  -0.24218
 Alpha  occ. eigenvalues --   -0.20947
 Alpha virt. eigenvalues --   -0.08985  -0.01174   0.00289   0.01939   0.02389
 Alpha virt. eigenvalues --    0.03761   0.04529   0.05223   0.06005   0.06803
 Alpha virt. eigenvalues --    0.07374   0.07495   0.08416   0.09189   0.09319

 Mulliken charges:
               1
     1  Mg   0.814466
     2  C   -0.086462
     3  C   -0.094990
     4  C   -0.052831
     5  C   -0.078139
     6  N   -0.270793
     7  C   -0.051605
     8  C    0.028311
     9  C   -0.066723
    10  C    0.031197
    11  C    0.100741
    12  C    0.038759
    13  C    0.088441
    14  C    0.157719
    15  O   -0.230149
    16  O   -0.364424
    17  N   -0.427482
    18  C    0.186677
    19  C   -0.147980
    20  C   -0.042557
    21  C    0.134900
    22  C    0.102226
    23  C    0.015202
    24  O   -0.239408
    25  C    0.074173
    26  N   -0.289054
    27  C    0.060090
    28  C   -0.045772
    29  C    0.039453
    30  C    0.000894
    31  C    0.063951
    32  C    0.029886
    33  C    0.009466
    34  N   -0.324668
    35  C    0.095187
    36  C   -0.121342
    37  C    0.014525
    38  C    0.137761
    39  C    0.104805
    40  C    0.026817
    41  O   -0.195410
    42  C    0.014179
    43  C    0.220463
    44  O   -0.227435
    45  O   -0.338755
    46  C    0.187523
    47  C    0.313301
    48  C   -0.144414
    49  C   -0.160496
    50  C    0.074411
    51  C    0.061585
    52  C    0.011637
    53  C    0.031094
    54  C   -0.152392
    55  C    0.050336
    56  C    0.071208
    57  C    0.017935
    58  C    0.013018
    59  C   -0.086204
    60  C    0.016620
    61  C    0.075693
    62  C   -0.009000
    63  C    0.041319
    64  C   -0.173088
    65  C    0.031450
    66  C    0.039140
    67  H   -0.023532
    68  H   -0.012043
    69  H   -0.039610
    70  H    0.018095
    71  H    0.001109
    72  H    0.013311
    73  H    0.018859
    74  H    0.033493
    75  H    0.008264
    76  H    0.012791
    77  H    0.032538
    78  H    0.043515
    79  H    0.022397
    80  H    0.028384
    81  H    0.001545
    82  H    0.021872
    83  H    0.020426
    84  H    0.053931
    85  H    0.025454
    86  H    0.003975
    87  H    0.027982
    88  H    0.009061
    89  H    0.019386
    90  H    0.000499
    91  H    0.008950
    92  H    0.015450
    93  H    0.008226
    94  H    0.014479
    95  H    0.033510
    96  H    0.016180
    97  H    0.025675
    98  H    0.051697
    99  H    0.038255
   100  H    0.042476
   101  H    0.036756
   102  H    0.033230
   103  H    0.027818
   104  H   -0.004823
   105  H    0.020524
   106  H    0.020293
   107  H    0.008309
   108  H    0.007786
   109  H   -0.002879
   110  H    0.007721
   111  H    0.009171
   112  H   -0.016271
   113  H    0.000055
   114  H   -0.012402
   115  H    0.013915
   116  H    0.001762
   117  H    0.010991
   118  H   -0.007178
   119  H    0.000334
   120  H   -0.003797
   121  H   -0.007599
   122  H    0.003308
   123  H   -0.009069
   124  H    0.007837
   125  H   -0.002727
   126  H   -0.001487
   127  H    0.003550
   128  H    0.002008
   129  H    0.012474
   130  H   -0.003650
   131  H    0.004555
   132  H   -0.007450
   133  H    0.004212
   134  H    0.005908
   135  H   -0.008175
   136  H    0.016076
   137  H    0.007736
   138  H    0.013394
   139  H    0.002382
   140  H    0.003815
 Sum of Mulliken charges =  -0.00000

 Dipole moment (field-independent basis, Debye):
    X=              5.6071    Y=              3.3122    Z=             -2.9717  Tot=              7.1583
 Quadrupole moment (field-independent basis, Debye-Ang):
   XX=           -386.7094   YY=           -438.4671   ZZ=           -404.8832
   XY=            -27.1511   XZ=             10.6139   YZ=             12.2016

 Normal termination of Gaussian 16 at Wed May  4 03:02:11 2022.
