 Gaussian 16, Revision A.03,
 Gaussian 16:  ES64L-G16RevA.03 25-Dec-2016

 ---------------------------------
 #p PBE1PBE/Def2SVP td=(nstates=5)
 ---------------------------------

 -----------------------------------------------------
 step_1301_chromophore_3 TDDFT with PBE1PBE functional
 -----------------------------------------------------
 Symbolic Z-matrix:
 Charge =  0 Multiplicity = 1

                         Standard orientation:
 ---------------------------------------------------------------------
 Center     Atomic      Atomic             Coordinates (Angstroms)
 Number     Number       Type             X           Y           Z
 ---------------------------------------------------------------------
      1         12           0       -5.548762    0.855028   -0.169007
      2          6           0       -4.529028   -2.616687   -0.026797
      3          6           0       -2.177061    1.598514   -0.060448
      4          6           0       -6.499426    3.965245    0.374530
      5          6           0       -8.806919   -0.201809    0.435307
      6          7           0       -3.627862   -0.368585    0.053949
      7          6           0       -3.457049   -1.760078   -0.009978
      8          6           0       -1.973310   -2.109842   -0.167874
      9          6           0       -1.319899   -0.772112   -0.219511
     10          6           0       -2.420445    0.237271   -0.046554
     11          6           0       -0.157947   -0.597102    0.736850
     12          6           0       -1.868923   -2.852889   -1.472791
     13          6           0       -0.495531   -3.136299   -2.078496
     14          6           0        0.680310   -3.140117   -1.146598
     15          8           0        0.678809   -3.465670    0.032628
     16          8           0        1.787267   -2.672969   -1.882280
     17          7           0       -4.460846    2.581246    0.000427
     18          6           0       -3.069620    2.675628   -0.013618
     19          6           0       -2.807564    4.109120    0.010718
     20          6           0       -4.044222    4.896395    0.148632
     21          6           0       -5.100413    3.785209    0.159279
     22          6           0       -1.457732    4.744544    0.067204
     23          6           0       -4.233615    6.436882    0.194964
     24          8           0       -5.377685    6.969153    0.126652
     25          6           0       -3.088897    7.367122    0.403993
     26          7           0       -7.498507    1.798852    0.134400
     27          6           0       -7.547311    3.110283    0.389234
     28          6           0       -8.989030    3.563944    0.428819
     29          6           0       -9.789801    2.206577    0.669108
     30          6           0       -8.659081    1.174570    0.474524
     31          6           0       -9.333900    4.768080    1.363508
     32          6           0      -10.963855    1.903045   -0.316588
     33          6           0      -10.733418    1.800409   -1.768754
     34          7           0       -6.590111   -0.982402    0.010065
     35          6           0       -7.891337   -1.249475    0.265132
     36          6           0       -8.119308   -2.695111    0.380399
     37          6           0       -6.815523   -3.248587    0.202437
     38          6           0       -5.926031   -2.179923    0.055213
     39          6           0       -9.375115   -3.222090    0.706609
     40          6           0       -6.104112   -4.502802    0.277908
     41          8           0       -6.589819   -5.639740    0.471838
     42          6           0       -4.568226   -4.161569    0.174023
     43          6           0       -3.995550   -4.615723    1.410734
     44          8           0       -4.416286   -4.463005    2.563782
     45          8           0       -2.837076   -5.285410    1.137877
     46          6           0       -1.986418   -5.714459    2.225357
     47          6           0        2.987452   -2.459935   -1.027489
     48          6           0        4.211953   -2.258101   -1.884073
     49          6           0        5.459582   -2.793998   -1.868303
     50          6           0        6.075055   -3.633407   -0.723770
     51          6           0        6.412945   -2.422435   -2.986231
     52          6           0        6.761792   -0.912058   -3.048302
     53          6           0        8.260499   -0.625326   -3.249970
     54          6           0        8.951290    0.125744   -2.106959
     55          6           0        9.291579   -0.884256   -0.995149
     56          6           0       10.092120    1.112141   -2.690126
     57          6           0       10.622461    2.138248   -1.631399
     58          6           0       12.127614    2.198512   -1.575556
     59          6           0       12.680235    2.976210   -0.265135
     60          6           0       13.361370    4.338998   -0.704872
     61          6           0       13.655914    2.012462    0.499481
     62          6           0       12.980728    1.529874    1.826054
     63          6           0       13.814022    0.302834    2.338930
     64          6           0       13.710377    0.183595    3.871525
     65          6           0       15.118266   -0.020536    4.523844
     66          6           0       12.679957   -0.996633    4.266163
     67          1           0       -1.135357    1.858437   -0.258355
     68          1           0       -6.791837    4.996759    0.583196
     69          1           0       -9.805700   -0.540065    0.718540
     70          1           0       -1.662462   -2.742739    0.664377
     71          1           0       -0.979352   -0.655825   -1.247790
     72          1           0       -0.518110    0.235853    1.341870
     73          1           0        0.643025   -0.474370    0.007857
     74          1           0        0.017037   -1.414692    1.434876
     75          1           0       -2.363204   -2.213278   -2.202747
     76          1           0       -2.412314   -3.779951   -1.290274
     77          1           0       -0.236237   -2.426053   -2.864047
     78          1           0       -0.540764   -4.119804   -2.547019
     79          1           0       -1.249250    5.269852    0.999735
     80          1           0       -1.323294    5.470471   -0.734349
     81          1           0       -0.656557    4.007629    0.126347
     82          1           0       -3.455697    8.381746    0.250777
     83          1           0       -2.408420    7.261399   -0.440739
     84          1           0       -2.651444    7.253373    1.396079
     85          1           0       -9.196719    3.852499   -0.601651
     86          1           0      -10.084175    2.147897    1.716662
     87          1           0       -8.616266    4.979072    2.156577
     88          1           0      -10.310249    4.614830    1.823429
     89          1           0       -9.452728    5.700402    0.810008
     90          1           0      -11.687847    2.710895   -0.207333
     91          1           0      -11.501571    1.000289   -0.025858
     92          1           0      -11.614754    2.091136   -2.339667
     93          1           0      -10.548175    0.755729   -2.020917
     94          1           0       -9.869482    2.324450   -2.176367
     95          1           0      -10.107053   -3.291631   -0.097827
     96          1           0       -9.785404   -2.629489    1.523744
     97          1           0       -9.256544   -4.186678    1.201305
     98          1           0       -4.177135   -4.614796   -0.736628
     99          1           0       -2.547272   -6.527305    2.686926
    100          1           0       -1.725618   -4.919597    2.923603
    101          1           0       -1.093692   -6.121433    1.749970
    102          1           0        3.117884   -3.265593   -0.305614
    103          1           0        2.925324   -1.471402   -0.572430
    104          1           0        4.053530   -1.560572   -2.706112
    105          1           0        6.901289   -3.088431   -0.267519
    106          1           0        6.520290   -4.548197   -1.114506
    107          1           0        5.409602   -3.861952    0.108795
    108          1           0        5.851355   -2.610022   -3.901286
    109          1           0        7.282608   -3.061183   -3.138419
    110          1           0        6.479957   -0.467665   -2.093333
    111          1           0        6.214079   -0.463753   -3.878041
    112          1           0        8.190437    0.036970   -4.113058
    113          1           0        8.833722   -1.533893   -3.430643
    114          1           0        8.136913    0.745766   -1.731263
    115          1           0       10.341395   -1.092592   -0.788986
    116          1           0        8.837462   -1.849549   -1.217698
    117          1           0        8.803410   -0.518854   -0.092089
    118          1           0        9.517927    1.596968   -3.479930
    119          1           0       10.924684    0.554180   -3.116654
    120          1           0       10.230111    1.920380   -0.637746
    121          1           0       10.294085    3.150196   -1.868820
    122          1           0       12.502589    2.588747   -2.521441
    123          1           0       12.373724    1.137702   -1.528163
    124          1           0       11.809970    3.291509    0.310488
    125          1           0       13.005023    4.740623   -1.653667
    126          1           0       14.435235    4.310813   -0.889755
    127          1           0       13.274880    5.178263   -0.014597
    128          1           0       14.525659    2.576671    0.836611
    129          1           0       13.914406    1.168955   -0.140495
    130          1           0       11.963324    1.200784    1.613042
    131          1           0       12.981926    2.169608    2.709099
    132          1           0       14.877907    0.496540    2.203092
    133          1           0       13.578032   -0.608895    1.791959
    134          1           0       13.215722    1.024153    4.357524
    135          1           0       15.239659   -0.879259    5.183010
    136          1           0       15.360864    0.837506    5.151364
    137          1           0       15.935276   -0.303864    3.860080
    138          1           0       13.227486   -1.628900    4.966042
    139          1           0       12.331127   -1.441741    3.334317
    140          1           0       11.771073   -0.596588    4.713912
 ---------------------------------------------------------------------

 SCF Done:  E(RPBE1PBE) =  -3005.35032560     A.U. after   15 cycles

 Excitation energies and oscillator strengths:

 Excited State   1:      Singlet-A      1.8017 eV  688.16 nm  f=0.3873  <S**2>=0.000
     245 -> 248       -0.13633
     246 -> 247        0.69993
     246 <- 247       -0.12381
 This state for optimization and/or second-order correction.
 Total Energy, E(TD-HF/TD-DFT) =  -3005.28411505
 Copying the excited state density for this state as the 1-particle RhoCI density.

 Excited State   2:      Singlet-A      2.2479 eV  551.56 nm  f=0.1406  <S**2>=0.000
     245 -> 247        0.65695
     246 -> 248        0.21778
     246 -> 249       -0.11134

 Excited State   3:      Singlet-A      2.8917 eV  428.77 nm  f=0.0018  <S**2>=0.000
     241 -> 247        0.36579
     241 -> 249        0.10533
     244 -> 247        0.57958

 Excited State   4:      Singlet-A      2.9406 eV  421.62 nm  f=0.0001  <S**2>=0.000
     241 -> 247        0.45691
     243 -> 247        0.41715
     244 -> 247       -0.29739

 Excited State   5:      Singlet-A      2.9998 eV  413.31 nm  f=0.0183  <S**2>=0.000
     240 -> 247       -0.13618
     241 -> 247       -0.32364
     243 -> 247        0.53755
     244 -> 247        0.24343

 The electronic state is 1-A.
 Alpha  occ. eigenvalues --  -46.92514 -19.26484 -19.24936 -19.21834 -19.19193
 Alpha  occ. eigenvalues --  -19.18961 -19.18686 -14.41521 -14.40802 -14.39672
 Alpha  occ. eigenvalues --  -14.38818 -10.37561 -10.35766 -10.32875 -10.31793
 Alpha  occ. eigenvalues --  -10.30040 -10.29014 -10.28429 -10.28320 -10.28258
 Alpha  occ. eigenvalues --  -10.28247 -10.28164 -10.27526 -10.26790 -10.26747
 Alpha  occ. eigenvalues --  -10.26618 -10.26209 -10.26034 -10.25910 -10.25904
 Alpha  occ. eigenvalues --  -10.25881 -10.25542 -10.25449 -10.24988 -10.24603
 Alpha  occ. eigenvalues --  -10.24601 -10.24464 -10.24391 -10.24307 -10.23987
 Alpha  occ. eigenvalues --  -10.23968 -10.23957 -10.23906 -10.23768 -10.23720
 Alpha  occ. eigenvalues --  -10.23720 -10.23504 -10.23489 -10.23323 -10.23303
 Alpha  occ. eigenvalues --  -10.23303 -10.23204 -10.22882 -10.22714 -10.22680
 Alpha  occ. eigenvalues --  -10.22541 -10.22517 -10.22428 -10.22354 -10.22352
 Alpha  occ. eigenvalues --  -10.22344 -10.22314 -10.22087 -10.21946 -10.21920
 Alpha  occ. eigenvalues --  -10.21841  -3.14493  -1.87348  -1.86860  -1.86709
 Alpha  occ. eigenvalues --   -1.10925  -1.10629  -1.03607  -1.02514  -1.02497
 Alpha  occ. eigenvalues --   -1.01214  -0.98888  -0.98218  -0.97525  -0.96268
 Alpha  occ. eigenvalues --   -0.86868  -0.85444  -0.84940  -0.83389  -0.83373
 Alpha  occ. eigenvalues --   -0.82676  -0.82599  -0.82190  -0.81490  -0.81211
 Alpha  occ. eigenvalues --   -0.80748  -0.80315  -0.78661  -0.78399  -0.77889
 Alpha  occ. eigenvalues --   -0.76994  -0.76415  -0.75772  -0.75368  -0.74959
 Alpha  occ. eigenvalues --   -0.74081  -0.73001  -0.72186  -0.71377  -0.70723
 Alpha  occ. eigenvalues --   -0.70566  -0.69526  -0.69391  -0.69207  -0.68299
 Alpha  occ. eigenvalues --   -0.67478  -0.67063  -0.66128  -0.64998  -0.63934
 Alpha  occ. eigenvalues --   -0.62938  -0.62544  -0.61510  -0.60915  -0.59870
 Alpha  occ. eigenvalues --   -0.59572  -0.59174  -0.58961  -0.58774  -0.58602
 Alpha  occ. eigenvalues --   -0.57710  -0.57592  -0.56991  -0.56555  -0.55016
 Alpha  occ. eigenvalues --   -0.54381  -0.54068  -0.53801  -0.53160  -0.52956
 Alpha  occ. eigenvalues --   -0.52048  -0.51795  -0.51264  -0.50712  -0.50291
 Alpha  occ. eigenvalues --   -0.49850  -0.49791  -0.49494  -0.49229  -0.48933
 Alpha  occ. eigenvalues --   -0.48810  -0.48491  -0.48247  -0.47700  -0.47352
 Alpha  occ. eigenvalues --   -0.47214  -0.46970  -0.46785  -0.46537  -0.46199
 Alpha  occ. eigenvalues --   -0.46036  -0.45884  -0.45800  -0.45494  -0.45458
 Alpha  occ. eigenvalues --   -0.44888  -0.44607  -0.44528  -0.44278  -0.44017
 Alpha  occ. eigenvalues --   -0.43879  -0.43771  -0.43701  -0.43505  -0.43382
 Alpha  occ. eigenvalues --   -0.43106  -0.42985  -0.42613  -0.42585  -0.42151
 Alpha  occ. eigenvalues --   -0.42005  -0.41911  -0.41790  -0.41694  -0.41132
 Alpha  occ. eigenvalues --   -0.41086  -0.41015  -0.40732  -0.40634  -0.40570
 Alpha  occ. eigenvalues --   -0.40280  -0.40086  -0.39943  -0.39810  -0.39652
 Alpha  occ. eigenvalues --   -0.39533  -0.38945  -0.38871  -0.38682  -0.38559
 Alpha  occ. eigenvalues --   -0.38251  -0.37988  -0.37880  -0.37714  -0.37478
 Alpha  occ. eigenvalues --   -0.37308  -0.37147  -0.37009  -0.36850  -0.36754
 Alpha  occ. eigenvalues --   -0.36596  -0.36290  -0.36175  -0.36038  -0.35978
 Alpha  occ. eigenvalues --   -0.35754  -0.35556  -0.35179  -0.35100  -0.34956
 Alpha  occ. eigenvalues --   -0.34909  -0.34404  -0.34200  -0.34176  -0.33656
 Alpha  occ. eigenvalues --   -0.33325  -0.33210  -0.32819  -0.32723  -0.32487
 Alpha  occ. eigenvalues --   -0.32133  -0.32078  -0.32031  -0.31554  -0.31479
 Alpha  occ. eigenvalues --   -0.31321  -0.30717  -0.30454  -0.30024  -0.29296
 Alpha  occ. eigenvalues --   -0.28762  -0.28711  -0.28312  -0.26949  -0.25740
 Alpha  occ. eigenvalues --   -0.25340  -0.25230  -0.25100  -0.24824  -0.21131
 Alpha  occ. eigenvalues --   -0.18614
 Alpha virt. eigenvalues --   -0.11378  -0.04840  -0.03819  -0.02453  -0.00885
 Alpha virt. eigenvalues --   -0.00371   0.00048   0.00527   0.01549   0.03323
 Alpha virt. eigenvalues --    0.03952   0.04256   0.04433   0.05203   0.05920

 Mulliken charges:
               1
     1  Mg   0.957295
     2  C   -0.083929
     3  C   -0.085041
     4  C   -0.046404
     5  C   -0.077717
     6  N   -0.374571
     7  C    0.020777
     8  C   -0.058653
     9  C   -0.142862
    10  C    0.071560
    11  C    0.037800
    12  C   -0.011518
    13  C    0.010154
    14  C    0.224924
    15  O   -0.263443
    16  O   -0.393753
    17  N   -0.543778
    18  C    0.211896
    19  C   -0.183760
    20  C   -0.083384
    21  C    0.171049
    22  C    0.045380
    23  C    0.058478
    24  O   -0.274469
    25  C   -0.002386
    26  N   -0.389987
    27  C    0.094707
    28  C   -0.118829
    29  C   -0.042624
    30  C    0.048640
    31  C    0.003090
    32  C   -0.034845
    33  C   -0.061618
    34  N   -0.449992
    35  C    0.121984
    36  C   -0.144502
    37  C   -0.035573
    38  C    0.190058
    39  C    0.048998
    40  C    0.128853
    41  O   -0.239460
    42  C   -0.104729
    43  C    0.316880
    44  O   -0.263516
    45  O   -0.372365
    46  C    0.133045
    47  C    0.267059
    48  C   -0.157269
    49  C   -0.204152
    50  C    0.012820
    51  C   -0.000503
    52  C   -0.047513
    53  C   -0.028825
    54  C   -0.235678
    55  C   -0.008761
    56  C    0.014583
    57  C   -0.043959
    58  C   -0.042660
    59  C   -0.171484
    60  C   -0.039630
    61  C    0.016599
    62  C   -0.071823
    63  C   -0.014063
    64  C   -0.262647
    65  C   -0.027724
    66  C   -0.018539
    67  H    0.009154
    68  H    0.021228
    69  H   -0.007383
    70  H    0.058428
    71  H    0.041092
    72  H    0.043046
    73  H    0.047543
    74  H    0.060392
    75  H    0.042664
    76  H    0.051609
    77  H    0.063343
    78  H    0.076566
    79  H    0.049646
    80  H    0.055694
    81  H    0.028945
    82  H    0.049407
    83  H    0.047551
    84  H    0.079318
    85  H    0.064483
    86  H    0.041959
    87  H    0.055118
    88  H    0.037327
    89  H    0.047099
    90  H    0.034960
    91  H    0.041385
    92  H    0.043789
    93  H    0.036777
    94  H    0.042332
    95  H    0.061750
    96  H    0.043727
    97  H    0.055081
    98  H    0.087485
    99  H    0.060594
   100  H    0.063173
   101  H    0.058534
   102  H    0.059242
   103  H    0.056460
   104  H    0.025553
   105  H    0.049681
   106  H    0.047826
   107  H    0.035431
   108  H    0.042540
   109  H    0.026878
   110  H    0.040277
   111  H    0.040639
   112  H    0.016992
   113  H    0.032995
   114  H    0.027143
   115  H    0.041037
   116  H    0.032111
   117  H    0.037633
   118  H    0.026174
   119  H    0.031602
   120  H    0.029329
   121  H    0.026517
   122  H    0.034833
   123  H    0.024953
   124  H    0.043999
   125  H    0.024535
   126  H    0.025555
   127  H    0.031367
   128  H    0.035654
   129  H    0.043407
   130  H    0.031260
   131  H    0.036690
   132  H    0.026894
   133  H    0.035022
   134  H    0.042208
   135  H    0.018317
   136  H    0.043562
   137  H    0.033526
   138  H    0.039896
   139  H    0.029479
   140  H    0.031273
 Sum of Mulliken charges =  -0.00000

 Dipole moment (field-independent basis, Debye):
    X=              5.3494    Y=              3.0703    Z=             -2.9823  Tot=              6.8510
 Quadrupole moment (field-independent basis, Debye-Ang):
   XX=           -378.0751   YY=           -436.6393   ZZ=           -402.2803
   XY=            -26.3577   XZ=             10.3876   YZ=             11.9508

 Normal termination of Gaussian 16 at Wed May  4 03:22:07 2022.
