 Gaussian 16, Revision A.03,
 Gaussian 16:  ES64L-G16RevA.03 25-Dec-2016

 --------------------------------
 #p wB97XD/Def2SVP td=(nstates=5)
 --------------------------------

 ----------------------------------------------------
 step_1301_chromophore_3 TDDFT with wB97XD functional
 ----------------------------------------------------
 Symbolic Z-matrix:
 Charge =  0 Multiplicity = 1

                         Standard orientation:
 ---------------------------------------------------------------------
 Center     Atomic      Atomic             Coordinates (Angstroms)
 Number     Number       Type             X           Y           Z
 ---------------------------------------------------------------------
      1         12           0       -5.548762    0.855028   -0.169007
      2          6           0       -4.529028   -2.616687   -0.026797
      3          6           0       -2.177061    1.598514   -0.060448
      4          6           0       -6.499426    3.965245    0.374530
      5          6           0       -8.806919   -0.201809    0.435307
      6          7           0       -3.627862   -0.368585    0.053949
      7          6           0       -3.457049   -1.760078   -0.009978
      8          6           0       -1.973310   -2.109842   -0.167874
      9          6           0       -1.319899   -0.772112   -0.219511
     10          6           0       -2.420445    0.237271   -0.046554
     11          6           0       -0.157947   -0.597102    0.736850
     12          6           0       -1.868923   -2.852889   -1.472791
     13          6           0       -0.495531   -3.136299   -2.078496
     14          6           0        0.680310   -3.140117   -1.146598
     15          8           0        0.678809   -3.465670    0.032628
     16          8           0        1.787267   -2.672969   -1.882280
     17          7           0       -4.460846    2.581246    0.000427
     18          6           0       -3.069620    2.675628   -0.013618
     19          6           0       -2.807564    4.109120    0.010718
     20          6           0       -4.044222    4.896395    0.148632
     21          6           0       -5.100413    3.785209    0.159279
     22          6           0       -1.457732    4.744544    0.067204
     23          6           0       -4.233615    6.436882    0.194964
     24          8           0       -5.377685    6.969153    0.126652
     25          6           0       -3.088897    7.367122    0.403993
     26          7           0       -7.498507    1.798852    0.134400
     27          6           0       -7.547311    3.110283    0.389234
     28          6           0       -8.989030    3.563944    0.428819
     29          6           0       -9.789801    2.206577    0.669108
     30          6           0       -8.659081    1.174570    0.474524
     31          6           0       -9.333900    4.768080    1.363508
     32          6           0      -10.963855    1.903045   -0.316588
     33          6           0      -10.733418    1.800409   -1.768754
     34          7           0       -6.590111   -0.982402    0.010065
     35          6           0       -7.891337   -1.249475    0.265132
     36          6           0       -8.119308   -2.695111    0.380399
     37          6           0       -6.815523   -3.248587    0.202437
     38          6           0       -5.926031   -2.179923    0.055213
     39          6           0       -9.375115   -3.222090    0.706609
     40          6           0       -6.104112   -4.502802    0.277908
     41          8           0       -6.589819   -5.639740    0.471838
     42          6           0       -4.568226   -4.161569    0.174023
     43          6           0       -3.995550   -4.615723    1.410734
     44          8           0       -4.416286   -4.463005    2.563782
     45          8           0       -2.837076   -5.285410    1.137877
     46          6           0       -1.986418   -5.714459    2.225357
     47          6           0        2.987452   -2.459935   -1.027489
     48          6           0        4.211953   -2.258101   -1.884073
     49          6           0        5.459582   -2.793998   -1.868303
     50          6           0        6.075055   -3.633407   -0.723770
     51          6           0        6.412945   -2.422435   -2.986231
     52          6           0        6.761792   -0.912058   -3.048302
     53          6           0        8.260499   -0.625326   -3.249970
     54          6           0        8.951290    0.125744   -2.106959
     55          6           0        9.291579   -0.884256   -0.995149
     56          6           0       10.092120    1.112141   -2.690126
     57          6           0       10.622461    2.138248   -1.631399
     58          6           0       12.127614    2.198512   -1.575556
     59          6           0       12.680235    2.976210   -0.265135
     60          6           0       13.361370    4.338998   -0.704872
     61          6           0       13.655914    2.012462    0.499481
     62          6           0       12.980728    1.529874    1.826054
     63          6           0       13.814022    0.302834    2.338930
     64          6           0       13.710377    0.183595    3.871525
     65          6           0       15.118266   -0.020536    4.523844
     66          6           0       12.679957   -0.996633    4.266163
     67          1           0       -1.135357    1.858437   -0.258355
     68          1           0       -6.791837    4.996759    0.583196
     69          1           0       -9.805700   -0.540065    0.718540
     70          1           0       -1.662462   -2.742739    0.664377
     71          1           0       -0.979352   -0.655825   -1.247790
     72          1           0       -0.518110    0.235853    1.341870
     73          1           0        0.643025   -0.474370    0.007857
     74          1           0        0.017037   -1.414692    1.434876
     75          1           0       -2.363204   -2.213278   -2.202747
     76          1           0       -2.412314   -3.779951   -1.290274
     77          1           0       -0.236237   -2.426053   -2.864047
     78          1           0       -0.540764   -4.119804   -2.547019
     79          1           0       -1.249250    5.269852    0.999735
     80          1           0       -1.323294    5.470471   -0.734349
     81          1           0       -0.656557    4.007629    0.126347
     82          1           0       -3.455697    8.381746    0.250777
     83          1           0       -2.408420    7.261399   -0.440739
     84          1           0       -2.651444    7.253373    1.396079
     85          1           0       -9.196719    3.852499   -0.601651
     86          1           0      -10.084175    2.147897    1.716662
     87          1           0       -8.616266    4.979072    2.156577
     88          1           0      -10.310249    4.614830    1.823429
     89          1           0       -9.452728    5.700402    0.810008
     90          1           0      -11.687847    2.710895   -0.207333
     91          1           0      -11.501571    1.000289   -0.025858
     92          1           0      -11.614754    2.091136   -2.339667
     93          1           0      -10.548175    0.755729   -2.020917
     94          1           0       -9.869482    2.324450   -2.176367
     95          1           0      -10.107053   -3.291631   -0.097827
     96          1           0       -9.785404   -2.629489    1.523744
     97          1           0       -9.256544   -4.186678    1.201305
     98          1           0       -4.177135   -4.614796   -0.736628
     99          1           0       -2.547272   -6.527305    2.686926
    100          1           0       -1.725618   -4.919597    2.923603
    101          1           0       -1.093692   -6.121433    1.749970
    102          1           0        3.117884   -3.265593   -0.305614
    103          1           0        2.925324   -1.471402   -0.572430
    104          1           0        4.053530   -1.560572   -2.706112
    105          1           0        6.901289   -3.088431   -0.267519
    106          1           0        6.520290   -4.548197   -1.114506
    107          1           0        5.409602   -3.861952    0.108795
    108          1           0        5.851355   -2.610022   -3.901286
    109          1           0        7.282608   -3.061183   -3.138419
    110          1           0        6.479957   -0.467665   -2.093333
    111          1           0        6.214079   -0.463753   -3.878041
    112          1           0        8.190437    0.036970   -4.113058
    113          1           0        8.833722   -1.533893   -3.430643
    114          1           0        8.136913    0.745766   -1.731263
    115          1           0       10.341395   -1.092592   -0.788986
    116          1           0        8.837462   -1.849549   -1.217698
    117          1           0        8.803410   -0.518854   -0.092089
    118          1           0        9.517927    1.596968   -3.479930
    119          1           0       10.924684    0.554180   -3.116654
    120          1           0       10.230111    1.920380   -0.637746
    121          1           0       10.294085    3.150196   -1.868820
    122          1           0       12.502589    2.588747   -2.521441
    123          1           0       12.373724    1.137702   -1.528163
    124          1           0       11.809970    3.291509    0.310488
    125          1           0       13.005023    4.740623   -1.653667
    126          1           0       14.435235    4.310813   -0.889755
    127          1           0       13.274880    5.178263   -0.014597
    128          1           0       14.525659    2.576671    0.836611
    129          1           0       13.914406    1.168955   -0.140495
    130          1           0       11.963324    1.200784    1.613042
    131          1           0       12.981926    2.169608    2.709099
    132          1           0       14.877907    0.496540    2.203092
    133          1           0       13.578032   -0.608895    1.791959
    134          1           0       13.215722    1.024153    4.357524
    135          1           0       15.239659   -0.879259    5.183010
    136          1           0       15.360864    0.837506    5.151364
    137          1           0       15.935276   -0.303864    3.860080
    138          1           0       13.227486   -1.628900    4.966042
    139          1           0       12.331127   -1.441741    3.334317
    140          1           0       11.771073   -0.596588    4.713912
 ---------------------------------------------------------------------

 SCF Done:  E(RwB97XD) =  -3007.85959917     A.U. after   19 cycles

 Excitation energies and oscillator strengths:

 Excited State   1:      Singlet-A      1.5809 eV  784.26 nm  f=0.4003  <S**2>=0.000
     245 -> 248       -0.15964
     246 -> 247        0.68846
     245 <- 248       -0.11009
 This state for optimization and/or second-order correction.
 Total Energy, E(TD-HF/TD-DFT) =  -3007.80150175
 Copying the excited state density for this state as the 1-particle RhoCI density.

 Excited State   2:      Singlet-A      2.1870 eV  566.93 nm  f=0.1450  <S**2>=0.000
     245 -> 247        0.64542
     246 -> 248        0.25994

 Excited State   3:      Singlet-A      3.2835 eV  377.59 nm  f=0.0010  <S**2>=0.000
     239 -> 247       -0.10633
     243 -> 247       -0.40253
     244 -> 247        0.55374

 Excited State   4:      Singlet-A      3.3732 eV  367.56 nm  f=0.0009  <S**2>=0.000
     243 -> 247        0.53697
     244 -> 247        0.38677
     246 -> 248       -0.18346

 Excited State   5:      Singlet-A      3.5040 eV  353.84 nm  f=0.0009  <S**2>=0.000
     241 -> 247        0.54542
     241 -> 249       -0.29564
     241 -> 250       -0.28482

 The electronic state is 1-A.
 Alpha  occ. eigenvalues --  -46.95463 -19.31044 -19.29483 -19.26510 -19.23940
 Alpha  occ. eigenvalues --  -19.23874 -19.23368 -14.46618 -14.45897 -14.44675
 Alpha  occ. eigenvalues --  -14.43644 -10.44358 -10.42577 -10.39879 -10.38531
 Alpha  occ. eigenvalues --  -10.36564 -10.35529 -10.34881 -10.34731 -10.34697
 Alpha  occ. eigenvalues --  -10.34615 -10.34287 -10.33939 -10.33317 -10.32916
 Alpha  occ. eigenvalues --  -10.32818 -10.32458 -10.32439 -10.32387 -10.32232
 Alpha  occ. eigenvalues --  -10.32076 -10.31835 -10.31779 -10.31230 -10.31088
 Alpha  occ. eigenvalues --  -10.30929 -10.30703 -10.30677 -10.30639 -10.30599
 Alpha  occ. eigenvalues --  -10.30454 -10.30218 -10.30210 -10.30187 -10.30116
 Alpha  occ. eigenvalues --  -10.30102 -10.29976 -10.29875 -10.29773 -10.29686
 Alpha  occ. eigenvalues --  -10.29680 -10.29605 -10.29264 -10.29169 -10.29060
 Alpha  occ. eigenvalues --  -10.28967 -10.28803 -10.28747 -10.28724 -10.28701
 Alpha  occ. eigenvalues --  -10.28687 -10.28610 -10.28444 -10.28363 -10.28355
 Alpha  occ. eigenvalues --  -10.28251  -3.21316  -1.94916  -1.94428  -1.94276
 Alpha  occ. eigenvalues --   -1.18320  -1.18001  -1.10960  -1.10169  -1.09901
 Alpha  occ. eigenvalues --   -1.08563  -1.06242  -1.05619  -1.04780  -1.03760
 Alpha  occ. eigenvalues --   -0.94425  -0.93047  -0.92608  -0.91067  -0.90991
 Alpha  occ. eigenvalues --   -0.90342  -0.90206  -0.89770  -0.89001  -0.88887
 Alpha  occ. eigenvalues --   -0.88538  -0.88006  -0.86290  -0.86014  -0.85538
 Alpha  occ. eigenvalues --   -0.84624  -0.84144  -0.83515  -0.82984  -0.82603
 Alpha  occ. eigenvalues --   -0.81770  -0.80592  -0.79845  -0.79061  -0.78336
 Alpha  occ. eigenvalues --   -0.78230  -0.77129  -0.77092  -0.76895  -0.75976
 Alpha  occ. eigenvalues --   -0.75072  -0.74542  -0.73683  -0.72606  -0.71460
 Alpha  occ. eigenvalues --   -0.70457  -0.70136  -0.69167  -0.68567  -0.67355
 Alpha  occ. eigenvalues --   -0.67072  -0.66626  -0.66571  -0.66315  -0.66221
 Alpha  occ. eigenvalues --   -0.65283  -0.65170  -0.64623  -0.63946  -0.62533
 Alpha  occ. eigenvalues --   -0.61901  -0.61526  -0.61185  -0.60603  -0.60305
 Alpha  occ. eigenvalues --   -0.59513  -0.59183  -0.58722  -0.58126  -0.57653
 Alpha  occ. eigenvalues --   -0.57281  -0.57229  -0.56952  -0.56617  -0.56464
 Alpha  occ. eigenvalues --   -0.56174  -0.55829  -0.55607  -0.55161  -0.55013
 Alpha  occ. eigenvalues --   -0.54531  -0.54392  -0.54074  -0.53840  -0.53625
 Alpha  occ. eigenvalues --   -0.53350  -0.53243  -0.53136  -0.52828  -0.52691
 Alpha  occ. eigenvalues --   -0.52247  -0.52081  -0.51892  -0.51673  -0.51414
 Alpha  occ. eigenvalues --   -0.51207  -0.51068  -0.51028  -0.50811  -0.50659
 Alpha  occ. eigenvalues --   -0.50398  -0.50282  -0.49960  -0.49890  -0.49421
 Alpha  occ. eigenvalues --   -0.49238  -0.49155  -0.49058  -0.49016  -0.48455
 Alpha  occ. eigenvalues --   -0.48321  -0.48258  -0.47952  -0.47905  -0.47638
 Alpha  occ. eigenvalues --   -0.47457  -0.47288  -0.47121  -0.47014  -0.46801
 Alpha  occ. eigenvalues --   -0.46697  -0.46071  -0.45908  -0.45755  -0.45688
 Alpha  occ. eigenvalues --   -0.45389  -0.45136  -0.44936  -0.44904  -0.44560
 Alpha  occ. eigenvalues --   -0.44351  -0.44293  -0.44100  -0.44021  -0.43906
 Alpha  occ. eigenvalues --   -0.43727  -0.43420  -0.43321  -0.43233  -0.43156
 Alpha  occ. eigenvalues --   -0.42858  -0.42652  -0.42273  -0.42142  -0.41983
 Alpha  occ. eigenvalues --   -0.41888  -0.41484  -0.41312  -0.41093  -0.40610
 Alpha  occ. eigenvalues --   -0.40405  -0.40205  -0.39873  -0.39819  -0.39529
 Alpha  occ. eigenvalues --   -0.39214  -0.39053  -0.38926  -0.38597  -0.38385
 Alpha  occ. eigenvalues --   -0.38347  -0.37772  -0.37326  -0.37038  -0.36079
 Alpha  occ. eigenvalues --   -0.35819  -0.35530  -0.35016  -0.33554  -0.33087
 Alpha  occ. eigenvalues --   -0.32335  -0.31955  -0.31812  -0.31200  -0.26136
 Alpha  occ. eigenvalues --   -0.22743
 Alpha virt. eigenvalues --   -0.07348   0.00762   0.02314   0.04037   0.05491
 Alpha virt. eigenvalues --    0.06016   0.06720   0.07361   0.08300   0.09795
 Alpha virt. eigenvalues --    0.10216   0.10920   0.11171   0.12004   0.12697

 Mulliken charges:
               1
     1  Mg   0.949345
     2  C   -0.094176
     3  C   -0.108029
     4  C   -0.061988
     5  C   -0.088251
     6  N   -0.340015
     7  C   -0.007289
     8  C   -0.026574
     9  C   -0.118868
    10  C    0.063274
    11  C    0.051444
    12  C    0.007596
    13  C    0.025019
    14  C    0.210791
    15  O   -0.259640
    16  O   -0.392449
    17  N   -0.512169
    18  C    0.205178
    19  C   -0.168701
    20  C   -0.080569
    21  C    0.162043
    22  C    0.056318
    23  C    0.058052
    24  O   -0.268193
    25  C    0.009388
    26  N   -0.357995
    27  C    0.083015
    28  C   -0.095659
    29  C   -0.016629
    30  C    0.030791
    31  C    0.013051
    32  C   -0.017221
    33  C   -0.046416
    34  N   -0.412392
    35  C    0.110335
    36  C   -0.135946
    37  C   -0.031229
    38  C    0.171117
    39  C    0.056741
    40  C    0.107727
    41  O   -0.230464
    42  C   -0.063251
    43  C    0.289623
    44  O   -0.257313
    45  O   -0.369570
    46  C    0.145730
    47  C    0.284226
    48  C   -0.166284
    49  C   -0.188967
    50  C    0.027325
    51  C    0.013935
    52  C   -0.030313
    53  C   -0.009209
    54  C   -0.205619
    55  C    0.004874
    56  C    0.028769
    57  C   -0.025514
    58  C   -0.024322
    59  C   -0.145562
    60  C   -0.028073
    61  C    0.033317
    62  C   -0.052616
    63  C    0.002286
    64  C   -0.236985
    65  C   -0.014888
    66  C   -0.004370
    67  H    0.001594
    68  H    0.013337
    69  H   -0.016437
    70  H    0.043996
    71  H    0.026663
    72  H    0.035553
    73  H    0.038895
    74  H    0.056878
    75  H    0.033072
    76  H    0.036828
    77  H    0.058079
    78  H    0.072108
    79  H    0.044518
    80  H    0.050277
    81  H    0.025407
    82  H    0.048736
    83  H    0.041642
    84  H    0.076029
    85  H    0.051472
    86  H    0.033442
    87  H    0.049402
    88  H    0.031845
    89  H    0.042029
    90  H    0.025953
    91  H    0.033736
    92  H    0.039132
    93  H    0.029570
    94  H    0.034375
    95  H    0.057509
    96  H    0.037016
    97  H    0.051095
    98  H    0.082083
    99  H    0.056660
   100  H    0.059717
   101  H    0.056147
   102  H    0.053479
   103  H    0.050094
   104  H    0.021640
   105  H    0.041577
   106  H    0.042593
   107  H    0.030568
   108  H    0.034360
   109  H    0.019995
   110  H    0.026611
   111  H    0.034426
   112  H    0.008171
   113  H    0.022415
   114  H    0.012978
   115  H    0.036172
   116  H    0.017938
   117  H    0.032023
   118  H    0.017466
   119  H    0.023382
   120  H    0.017383
   121  H    0.017934
   122  H    0.027299
   123  H    0.010207
   124  H    0.032489
   125  H    0.017952
   126  H    0.019209
   127  H    0.026086
   128  H    0.026811
   129  H    0.034687
   130  H    0.019975
   131  H    0.027600
   132  H    0.014137
   133  H    0.026902
   134  H    0.031135
   135  H    0.011813
   136  H    0.038197
   137  H    0.027411
   138  H    0.033104
   139  H    0.022104
   140  H    0.025723
 Sum of Mulliken charges =  -0.00000

 Dipole moment (field-independent basis, Debye):
    X=              5.6991    Y=              3.4791    Z=             -3.0086  Tot=              7.3236
 Quadrupole moment (field-independent basis, Debye-Ang):
   XX=           -381.9732   YY=           -434.2492   ZZ=           -402.0706
   XY=            -27.6739   XZ=             10.8821   YZ=             12.1054

 Normal termination of Gaussian 16 at Wed May  4 03:48:39 2022.
