 Gaussian 16, Revision A.03,
 Gaussian 16:  ES64L-G16RevA.03 25-Dec-2016

 --------------------
 #p ZINDO=(nstates=5)
 --------------------

 -----------------------------
 step_1301_chromophore_3 ZINDO
 -----------------------------
 Symbolic Z-matrix:
 Charge =  0 Multiplicity = 1

                         Standard orientation:
 ---------------------------------------------------------------------
 Center     Atomic      Atomic             Coordinates (Angstroms)
 Number     Number       Type             X           Y           Z
 ---------------------------------------------------------------------
      1         12           0       -5.548762    0.855028   -0.169007
      2          6           0       -4.529028   -2.616687   -0.026797
      3          6           0       -2.177061    1.598514   -0.060448
      4          6           0       -6.499426    3.965245    0.374530
      5          6           0       -8.806919   -0.201809    0.435307
      6          7           0       -3.627862   -0.368585    0.053949
      7          6           0       -3.457049   -1.760078   -0.009978
      8          6           0       -1.973310   -2.109842   -0.167874
      9          6           0       -1.319899   -0.772112   -0.219511
     10          6           0       -2.420445    0.237271   -0.046554
     11          6           0       -0.157947   -0.597102    0.736850
     12          6           0       -1.868923   -2.852889   -1.472791
     13          6           0       -0.495531   -3.136299   -2.078496
     14          6           0        0.680310   -3.140117   -1.146598
     15          8           0        0.678809   -3.465670    0.032628
     16          8           0        1.787267   -2.672969   -1.882280
     17          7           0       -4.460846    2.581246    0.000427
     18          6           0       -3.069620    2.675628   -0.013618
     19          6           0       -2.807564    4.109120    0.010718
     20          6           0       -4.044222    4.896395    0.148632
     21          6           0       -5.100413    3.785209    0.159279
     22          6           0       -1.457732    4.744544    0.067204
     23          6           0       -4.233615    6.436882    0.194964
     24          8           0       -5.377685    6.969153    0.126652
     25          6           0       -3.088897    7.367122    0.403993
     26          7           0       -7.498507    1.798852    0.134400
     27          6           0       -7.547311    3.110283    0.389234
     28          6           0       -8.989030    3.563944    0.428819
     29          6           0       -9.789801    2.206577    0.669108
     30          6           0       -8.659081    1.174570    0.474524
     31          6           0       -9.333900    4.768080    1.363508
     32          6           0      -10.963855    1.903045   -0.316588
     33          6           0      -10.733418    1.800409   -1.768754
     34          7           0       -6.590111   -0.982402    0.010065
     35          6           0       -7.891337   -1.249475    0.265132
     36          6           0       -8.119308   -2.695111    0.380399
     37          6           0       -6.815523   -3.248587    0.202437
     38          6           0       -5.926031   -2.179923    0.055213
     39          6           0       -9.375115   -3.222090    0.706609
     40          6           0       -6.104112   -4.502802    0.277908
     41          8           0       -6.589819   -5.639740    0.471838
     42          6           0       -4.568226   -4.161569    0.174023
     43          6           0       -3.995550   -4.615723    1.410734
     44          8           0       -4.416286   -4.463005    2.563782
     45          8           0       -2.837076   -5.285410    1.137877
     46          6           0       -1.986418   -5.714459    2.225357
     47          6           0        2.987452   -2.459935   -1.027489
     48          6           0        4.211953   -2.258101   -1.884073
     49          6           0        5.459582   -2.793998   -1.868303
     50          6           0        6.075055   -3.633407   -0.723770
     51          6           0        6.412945   -2.422435   -2.986231
     52          6           0        6.761792   -0.912058   -3.048302
     53          6           0        8.260499   -0.625326   -3.249970
     54          6           0        8.951290    0.125744   -2.106959
     55          6           0        9.291579   -0.884256   -0.995149
     56          6           0       10.092120    1.112141   -2.690126
     57          6           0       10.622461    2.138248   -1.631399
     58          6           0       12.127614    2.198512   -1.575556
     59          6           0       12.680235    2.976210   -0.265135
     60          6           0       13.361370    4.338998   -0.704872
     61          6           0       13.655914    2.012462    0.499481
     62          6           0       12.980728    1.529874    1.826054
     63          6           0       13.814022    0.302834    2.338930
     64          6           0       13.710377    0.183595    3.871525
     65          6           0       15.118266   -0.020536    4.523844
     66          6           0       12.679957   -0.996633    4.266163
     67          1           0       -1.135357    1.858437   -0.258355
     68          1           0       -6.791837    4.996759    0.583196
     69          1           0       -9.805700   -0.540065    0.718540
     70          1           0       -1.662462   -2.742739    0.664377
     71          1           0       -0.979352   -0.655825   -1.247790
     72          1           0       -0.518110    0.235853    1.341870
     73          1           0        0.643025   -0.474370    0.007857
     74          1           0        0.017037   -1.414692    1.434876
     75          1           0       -2.363204   -2.213278   -2.202747
     76          1           0       -2.412314   -3.779951   -1.290274
     77          1           0       -0.236237   -2.426053   -2.864047
     78          1           0       -0.540764   -4.119804   -2.547019
     79          1           0       -1.249250    5.269852    0.999735
     80          1           0       -1.323294    5.470471   -0.734349
     81          1           0       -0.656557    4.007629    0.126347
     82          1           0       -3.455697    8.381746    0.250777
     83          1           0       -2.408420    7.261399   -0.440739
     84          1           0       -2.651444    7.253373    1.396079
     85          1           0       -9.196719    3.852499   -0.601651
     86          1           0      -10.084175    2.147897    1.716662
     87          1           0       -8.616266    4.979072    2.156577
     88          1           0      -10.310249    4.614830    1.823429
     89          1           0       -9.452728    5.700402    0.810008
     90          1           0      -11.687847    2.710895   -0.207333
     91          1           0      -11.501571    1.000289   -0.025858
     92          1           0      -11.614754    2.091136   -2.339667
     93          1           0      -10.548175    0.755729   -2.020917
     94          1           0       -9.869482    2.324450   -2.176367
     95          1           0      -10.107053   -3.291631   -0.097827
     96          1           0       -9.785404   -2.629489    1.523744
     97          1           0       -9.256544   -4.186678    1.201305
     98          1           0       -4.177135   -4.614796   -0.736628
     99          1           0       -2.547272   -6.527305    2.686926
    100          1           0       -1.725618   -4.919597    2.923603
    101          1           0       -1.093692   -6.121433    1.749970
    102          1           0        3.117884   -3.265593   -0.305614
    103          1           0        2.925324   -1.471402   -0.572430
    104          1           0        4.053530   -1.560572   -2.706112
    105          1           0        6.901289   -3.088431   -0.267519
    106          1           0        6.520290   -4.548197   -1.114506
    107          1           0        5.409602   -3.861952    0.108795
    108          1           0        5.851355   -2.610022   -3.901286
    109          1           0        7.282608   -3.061183   -3.138419
    110          1           0        6.479957   -0.467665   -2.093333
    111          1           0        6.214079   -0.463753   -3.878041
    112          1           0        8.190437    0.036970   -4.113058
    113          1           0        8.833722   -1.533893   -3.430643
    114          1           0        8.136913    0.745766   -1.731263
    115          1           0       10.341395   -1.092592   -0.788986
    116          1           0        8.837462   -1.849549   -1.217698
    117          1           0        8.803410   -0.518854   -0.092089
    118          1           0        9.517927    1.596968   -3.479930
    119          1           0       10.924684    0.554180   -3.116654
    120          1           0       10.230111    1.920380   -0.637746
    121          1           0       10.294085    3.150196   -1.868820
    122          1           0       12.502589    2.588747   -2.521441
    123          1           0       12.373724    1.137702   -1.528163
    124          1           0       11.809970    3.291509    0.310488
    125          1           0       13.005023    4.740623   -1.653667
    126          1           0       14.435235    4.310813   -0.889755
    127          1           0       13.274880    5.178263   -0.014597
    128          1           0       14.525659    2.576671    0.836611
    129          1           0       13.914406    1.168955   -0.140495
    130          1           0       11.963324    1.200784    1.613042
    131          1           0       12.981926    2.169608    2.709099
    132          1           0       14.877907    0.496540    2.203092
    133          1           0       13.578032   -0.608895    1.791959
    134          1           0       13.215722    1.024153    4.357524
    135          1           0       15.239659   -0.879259    5.183010
    136          1           0       15.360864    0.837506    5.151364
    137          1           0       15.935276   -0.303864    3.860080
    138          1           0       13.227486   -1.628900    4.966042
    139          1           0       12.331127   -1.441741    3.334317
    140          1           0       11.771073   -0.596588    4.713912
 ---------------------------------------------------------------------

 SCF Done:  E(RZINDO/S) =  -474.252081250     A.U. after   19 cycles

 Excitation energies and oscillator strengths:

 Excited State   1:      Singlet-A      1.1998 eV 1033.39 nm  f=0.6460  <S**2>=0.000
     175 ->178         0.17748
     176 ->177         0.66589
 This state for optimization and/or second-order correction.
 Total Energy, E(CIS/TDA) =  -474.207990025
 Copying the excited state density for this state as the 1-particle RhoCI density.

 Excited State   2:      Singlet-A      1.9639 eV  631.33 nm  f=0.0598  <S**2>=0.000
     175 ->177         0.55318
     176 ->178        -0.41290

 Excited State   3:      Singlet-A      2.9531 eV  419.85 nm  f=0.0188  <S**2>=0.000
     167 ->179         0.10710
     168 ->177        -0.25330
     168 ->178         0.14447
     168 ->179         0.36499
     168 ->181        -0.24008
     168 ->186         0.19322
     168 ->187         0.10205
     176 ->178         0.10512
     176 ->179         0.28620

 Excited State   4:      Singlet-A      2.9902 eV  414.64 nm  f=0.0036  <S**2>=0.000
     168 ->177        -0.10415
     168 ->179         0.12126
     168 ->181        -0.11273
     169 ->177         0.16231
     169 ->179         0.16637
     169 ->181         0.19043
     170 ->177         0.17712
     170 ->179         0.20962
     170 ->181         0.23103
     170 ->186         0.11190
     174 ->177         0.11985
     176 ->179        -0.33422

 Excited State   5:      Singlet-A      3.0054 eV  412.54 nm  f=0.0062  <S**2>=0.000
     168 ->179        -0.13872
     169 ->177         0.12824
     169 ->179         0.15022
     169 ->181         0.18951
     170 ->177         0.14783
     170 ->179         0.13784
     170 ->181         0.14220
     176 ->179         0.48256

 The electronic state is 1-A.
 Alpha  occ. eigenvalues --   -1.84595  -1.82324  -1.79477  -1.73162  -1.72531
 Alpha  occ. eigenvalues --   -1.69862  -1.64080  -1.60476  -1.57870  -1.56496
 Alpha  occ. eigenvalues --   -1.54628  -1.52503  -1.48263  -1.47454  -1.46655
 Alpha  occ. eigenvalues --   -1.44124  -1.43184  -1.40355  -1.39589  -1.38757
 Alpha  occ. eigenvalues --   -1.36961  -1.36077  -1.33230  -1.31040  -1.28815
 Alpha  occ. eigenvalues --   -1.27061  -1.25878  -1.23556  -1.21017  -1.19071
 Alpha  occ. eigenvalues --   -1.17312  -1.16226  -1.15963  -1.15453  -1.13276
 Alpha  occ. eigenvalues --   -1.12837  -1.10696  -1.09511  -1.04645  -1.03956
 Alpha  occ. eigenvalues --   -1.01941  -1.00853  -0.98579  -0.98450  -0.97186
 Alpha  occ. eigenvalues --   -0.95603  -0.94668  -0.93464  -0.92720  -0.92083
 Alpha  occ. eigenvalues --   -0.90726  -0.90487  -0.88621  -0.87931  -0.86353
 Alpha  occ. eigenvalues --   -0.85508  -0.84316  -0.83446  -0.82674  -0.80535
 Alpha  occ. eigenvalues --   -0.80040  -0.78880  -0.77798  -0.77022  -0.76896
 Alpha  occ. eigenvalues --   -0.76409  -0.75928  -0.74769  -0.74468  -0.73491
 Alpha  occ. eigenvalues --   -0.73180  -0.72901  -0.72170  -0.71632  -0.71529
 Alpha  occ. eigenvalues --   -0.71167  -0.69131  -0.68777  -0.68040  -0.67858
 Alpha  occ. eigenvalues --   -0.67512  -0.67328  -0.67241  -0.66469  -0.65639
 Alpha  occ. eigenvalues --   -0.65620  -0.64513  -0.64167  -0.64076  -0.63511
 Alpha  occ. eigenvalues --   -0.63213  -0.63164  -0.62619  -0.62221  -0.61988
 Alpha  occ. eigenvalues --   -0.61792  -0.61452  -0.60912  -0.60421  -0.60392
 Alpha  occ. eigenvalues --   -0.59666  -0.59468  -0.58653  -0.58543  -0.58310
 Alpha  occ. eigenvalues --   -0.58067  -0.57158  -0.57134  -0.56792  -0.56621
 Alpha  occ. eigenvalues --   -0.56588  -0.55372  -0.55059  -0.54915  -0.54722
 Alpha  occ. eigenvalues --   -0.53809  -0.53556  -0.53098  -0.52954  -0.52773
 Alpha  occ. eigenvalues --   -0.52564  -0.52252  -0.51922  -0.51312  -0.51263
 Alpha  occ. eigenvalues --   -0.51110  -0.50545  -0.50392  -0.50316  -0.50264
 Alpha  occ. eigenvalues --   -0.50001  -0.49482  -0.49167  -0.48809  -0.48561
 Alpha  occ. eigenvalues --   -0.48451  -0.48277  -0.48034  -0.47971  -0.47687
 Alpha  occ. eigenvalues --   -0.47599  -0.47393  -0.47133  -0.46771  -0.46592
 Alpha  occ. eigenvalues --   -0.46353  -0.45656  -0.45468  -0.45361  -0.45326
 Alpha  occ. eigenvalues --   -0.45123  -0.44528  -0.44352  -0.44233  -0.44156
 Alpha  occ. eigenvalues --   -0.43866  -0.43432  -0.43326  -0.43142  -0.42350
 Alpha  occ. eigenvalues --   -0.42041  -0.41618  -0.40692  -0.39704  -0.38915
 Alpha  occ. eigenvalues --   -0.37947  -0.36898  -0.35837  -0.34696  -0.34345
 Alpha  occ. eigenvalues --   -0.32911  -0.32675  -0.32096  -0.31748  -0.26892
 Alpha  occ. eigenvalues --   -0.21526
 Alpha virt. eigenvalues --   -0.08784  -0.01632  -0.00588   0.00924   0.01174
 Alpha virt. eigenvalues --    0.02013   0.02857   0.03078   0.04159   0.04845
 Alpha virt. eigenvalues --    0.06107   0.06569   0.07227   0.08133   0.08571

 Mulliken charges:
               1
     1  Mg   0.428176
     2  C   -0.052323
     3  C   -0.078240
     4  C   -0.063477
     5  C   -0.061720
     6  N   -0.303185
     7  C    0.112772
     8  C    0.013203
     9  C    0.010594
    10  C    0.155723
    11  C   -0.061530
    12  C   -0.018970
    13  C    0.005330
    14  C    0.470370
    15  O   -0.514209
    16  O   -0.277797
    17  N   -0.321101
    18  C    0.114739
    19  C    0.013132
    20  C   -0.069532
    21  C    0.143791
    22  C   -0.047171
    23  C    0.333928
    24  O   -0.536026
    25  C   -0.025211
    26  N   -0.273955
    27  C    0.154616
    28  C    0.005112
    29  C    0.005808
    30  C    0.114799
    31  C   -0.053592
    32  C   -0.014034
    33  C   -0.046375
    34  N   -0.317332
    35  C    0.092596
    36  C    0.045795
    37  C   -0.054894
    38  C    0.106799
    39  C   -0.026555
    40  C    0.330317
    41  O   -0.534684
    42  C    0.064518
    43  C    0.504584
    44  O   -0.526415
    45  O   -0.282059
    46  C    0.078274
    47  C    0.105729
    48  C   -0.091659
    49  C   -0.004307
    50  C   -0.044321
    51  C   -0.025439
    52  C   -0.032071
    53  C   -0.040681
    54  C   -0.019380
    55  C   -0.054931
    56  C   -0.039833
    57  C   -0.034310
    58  C   -0.041219
    59  C   -0.017427
    60  C   -0.066848
    61  C   -0.030264
    62  C   -0.046602
    63  C   -0.040361
    64  C   -0.021085
    65  C   -0.064477
    66  C   -0.073344
    67  H    0.021476
    68  H    0.039085
    69  H    0.013354
    70  H    0.048727
    71  H    0.023201
    72  H    0.027822
    73  H    0.030487
    74  H    0.036501
    75  H    0.021662
    76  H    0.027189
    77  H    0.035493
    78  H    0.046767
    79  H    0.025004
    80  H    0.034141
    81  H    0.016756
    82  H    0.033818
    83  H    0.036485
    84  H    0.048652
    85  H    0.038133
    86  H    0.033856
    87  H    0.029452
    88  H    0.013746
    89  H    0.022221
    90  H    0.007231
    91  H    0.020029
    92  H    0.016997
    93  H    0.011891
    94  H    0.022191
    95  H    0.039591
    96  H    0.024146
    97  H    0.028394
    98  H    0.054801
    99  H    0.045357
   100  H    0.050448
   101  H    0.030924
   102  H    0.059703
   103  H    0.046390
   104  H    0.023038
   105  H    0.025602
   106  H    0.027108
   107  H    0.023070
   108  H    0.012515
   109  H    0.025777
   110  H    0.022245
   111  H    0.022723
   112  H    0.010292
   113  H    0.024190
   114  H    0.016352
   115  H    0.023535
   116  H    0.016894
   117  H    0.014243
   118  H    0.020260
   119  H    0.027670
   120  H    0.020445
   121  H    0.013134
   122  H    0.025204
   123  H    0.014838
   124  H    0.029627
   125  H    0.013046
   126  H    0.014287
   127  H    0.015379
   128  H    0.021919
   129  H    0.034591
   130  H    0.018879
   131  H    0.034459
   132  H    0.013767
   133  H    0.026246
   134  H    0.025811
   135  H    0.011825
   136  H    0.018248
   137  H    0.021807
   138  H    0.029250
   139  H    0.022069
   140  H    0.015772
 Sum of Mulliken charges =  -0.00000

 Dipole moment (field-independent basis, Debye):
    X=              7.3517    Y=              4.7965    Z=             -4.4961  Tot=              9.8625
 N-N= 4.259584701101D+03 E-N= 0.000000000000D+00  KE=-9.193357898691D+03
 Leave Link  601 at Wed May  4 03:59:59 2022, MaxMem=  6710886400 cpu:               0.8 elap:               0.0
 (Enter /sw/apps/gaussian-16.0/g16/l9999.exe)
 1\1\GINC-BP1-COMPUTE102\SP\RZINDO CIS\STO-3G\C55H74Mg1N4O6\OF15641\04-
 May-2022\0\\#p ZINDO=(nstates=5)\\step_1301_chromophore_3 ZINDO\\0,1\M
 g,0,2.566,8.685,26.391\C,0,2.974,10.979,29.163\C,0,3.032,6.173,28.716\
 C,0,2.862,6.671,23.797\C,0,2.834,11.413,24.25\N,0,3.062,8.618,28.624\C
 ,0,3.078,9.668,29.555\C,0,3.108,9.115,30.984\C,0,3.075,7.641,30.771\C,
 0,3.076,7.434,29.282\C,0,4.151,6.87,31.508\C,0,1.857,9.63,31.644\C,0,1
 .427,9.071,32.999\C,0,2.488,8.439,33.851\O,0,3.672,8.744,33.892\O,0,1.

 Normal termination of Gaussian 16 at Wed May  4 04:00:00 2022.
