 Gaussian 16, Revision A.03,
 Gaussian 16:  ES64L-G16RevA.03 25-Dec-2016

 ------------------------------
 #p blyp/Def2SVP td=(nstates=5)
 ------------------------------

 -------------------------------------------------
 step_701_chromophore_1 TDDFT with blyp functional
 -------------------------------------------------
 Symbolic Z-matrix:
 Charge =  0 Multiplicity = 1

                         Standard orientation:
 ---------------------------------------------------------------------
 Center     Atomic      Atomic             Coordinates (Angstroms)
 Number     Number       Type             X           Y           Z
 ---------------------------------------------------------------------
      1         12           0        5.800915    0.460974    0.077124
      2          6           0        3.921743   -2.376868   -0.540907
      3          6           0        3.373849    2.262149   -1.698828
      4          6           0        7.772462    3.217231    0.246570
      5          6           0        8.555571   -1.493699    0.934815
      6          7           0        3.941073   -0.094665   -1.049676
      7          6           0        3.267661   -1.303612   -1.035170
      8          6           0        1.901437   -1.164134   -1.665323
      9          6           0        2.068960    0.161283   -2.484425
     10          6           0        3.079638    0.871619   -1.626083
     11          6           0        2.603421   -0.093858   -3.940050
     12          6           0        0.760008   -1.022862   -0.620081
     13          6           0       -0.531241   -1.621195   -1.012444
     14          6           0       -1.439487   -1.960261    0.171112
     15          8           0       -1.138386   -1.857887    1.364852
     16          8           0       -2.656154   -2.440146   -0.344666
     17          7           0        5.536967    2.447358   -0.504870
     18          6           0        4.424096    3.021969   -1.151514
     19          6           0        4.603017    4.431067   -1.199249
     20          6           0        5.811180    4.756865   -0.548378
     21          6           0        6.445534    3.437338   -0.252940
     22          6           0        3.614526    5.234431   -1.939995
     23          6           0        6.454545    6.020638   -0.269734
     24          8           0        7.532936    6.163171    0.246726
     25          6           0        5.718147    7.290404   -0.675149
     26          7           0        7.848542    0.857097    0.397319
     27          6           0        8.444634    2.065556    0.385888
     28          6           0        9.978549    1.983027    0.843538
     29          6           0       10.102600    0.500819    1.282788
     30          6           0        8.732867   -0.095631    0.881540
     31          6           0       10.949071    2.373736   -0.362011
     32          6           0       10.392466    0.207961    2.788933
     33          6           0        9.420237    0.814582    3.795569
     34          7           0        6.193289   -1.527967    0.183224
     35          6           0        7.390459   -2.194467    0.578529
     36          6           0        7.131943   -3.639941    0.654890
     37          6           0        5.769212   -3.711499    0.270959
     38          6           0        5.273834   -2.469408   -0.017389
     39          6           0        8.039848   -4.699818    1.050944
     40          6           0        4.669057   -4.616237    0.065260
     41          8           0        4.535570   -5.831168    0.209105
     42          6           0        3.483645   -3.819188   -0.499552
     43          6           0        2.224279   -4.053212    0.278416
     44          8           0        1.954564   -3.622294    1.367781
     45          8           0        1.353866   -4.712140   -0.479026
     46          6           0        0.007173   -5.070805    0.080129
     47          6           0       -3.770261   -2.579100    0.536601
     48          6           0       -4.879731   -1.988478   -0.290569
     49          6           0       -6.091377   -2.532554   -0.634350
     50          6           0       -6.784617   -3.802625   -0.171396
     51          6           0       -6.888776   -1.626677   -1.546447
     52          6           0       -7.934089   -0.877522   -0.689159
     53          6           0       -8.176814    0.603632   -1.199438
     54          6           0       -8.626116    1.558871   -0.017027
     55          6           0       -7.403386    2.092166    0.732505
     56          6           0       -9.577300    0.998162    0.985044
     57          6           0      -10.474941    2.063516    1.527584
     58          6           0      -11.436278    1.517917    2.537567
     59          6           0      -12.758909    2.408374    2.576297
     60          6           0      -12.978011    2.870478    4.067777
     61          6           0      -13.934730    1.498031    2.030677
     62          6           0      -14.322650    1.863507    0.605822
     63          6           0      -14.746725    0.688696   -0.311914
     64          6           0      -14.106267    0.592903   -1.731965
     65          6           0      -14.825243   -0.380496   -2.658611
     66          6           0      -12.608076    0.241630   -1.554387
     67          1           0        2.598845    2.732327   -2.308140
     68          1           0        8.395125    4.109625    0.336052
     69          1           0        9.401621   -2.138501    1.182523
     70          1           0        1.702518   -2.053328   -2.263633
     71          1           0        1.142539    0.734247   -2.528345
     72          1           0        3.565618    0.395972   -4.089809
     73          1           0        1.855614    0.353963   -4.594233
     74          1           0        2.701961   -1.171715   -4.064441
     75          1           0        0.502082    0.027886   -0.488823
     76          1           0        1.151998   -1.412422    0.319230
     77          1           0       -0.273199   -2.585382   -1.449648
     78          1           0       -0.945691   -0.944089   -1.759376
     79          1           0        3.017696    5.868369   -1.284870
     80          1           0        2.767689    4.752034   -2.427855
     81          1           0        4.033416    5.803399   -2.770595
     82          1           0        4.862406    7.358727   -0.004022
     83          1           0        5.506787    7.131672   -1.731924
     84          1           0        6.338609    8.172467   -0.515172
     85          1           0       10.252394    2.652715    1.659794
     86          1           0       10.994917    0.165574    0.754036
     87          1           0       10.374920    2.408101   -1.287618
     88          1           0       11.901417    1.845763   -0.302999
     89          1           0       11.233542    3.424459   -0.302992
     90          1           0       11.380499    0.610750    3.011568
     91          1           0       10.483285   -0.874697    2.872211
     92          1           0        8.517811    1.188142    3.312030
     93          1           0        9.892704    1.633078    4.336706
     94          1           0        9.232185    0.033116    4.532083
     95          1           0        7.365170   -5.309661    1.653491
     96          1           0        8.944664   -4.458550    1.608203
     97          1           0        8.267307   -5.317874    0.183206
     98          1           0        3.262405   -4.097193   -1.529674
     99          1           0       -0.805035   -4.908987   -0.628326
    100          1           0       -0.239412   -4.518139    0.986015
    101          1           0        0.013221   -6.137952    0.305585
    102          1           0       -3.706952   -2.073198    1.499740
    103          1           0       -4.043765   -3.629174    0.642204
    104          1           0       -4.678553   -0.993308   -0.686573
    105          1           0       -7.566313   -3.504312    0.527496
    106          1           0       -6.096937   -4.522740    0.270190
    107          1           0       -7.213469   -4.227194   -1.079853
    108          1           0       -7.478469   -2.188110   -2.271145
    109          1           0       -6.262520   -0.983168   -2.164453
    110          1           0       -7.655322   -0.900147    0.364163
    111          1           0       -8.920471   -1.339391   -0.732017
    112          1           0       -9.005866    0.561378   -1.906568
    113          1           0       -7.285511    0.868211   -1.767819
    114          1           0       -9.109639    2.362585   -0.571771
    115          1           0       -6.575041    1.504616    0.337315
    116          1           0       -7.432361    1.833301    1.790504
    117          1           0       -7.217857    3.164230    0.667410
    118          1           0       -9.279432    0.536916    1.926826
    119          1           0      -10.189461    0.334656    0.374497
    120          1           0      -10.960786    2.659628    0.754735
    121          1           0       -9.950363    2.781451    2.158525
    122          1           0      -10.906686    1.469571    3.489821
    123          1           0      -11.793465    0.496284    2.410195
    124          1           0      -12.723005    3.316065    1.974253
    125          1           0      -13.950293    2.613733    4.488723
    126          1           0      -12.960658    3.959618    4.029029
    127          1           0      -12.212412    2.602277    4.795215
    128          1           0      -14.733089    1.845928    2.685915
    129          1           0      -13.838076    0.413580    2.080254
    130          1           0      -13.643775    2.497168    0.035850
    131          1           0      -15.179327    2.515765    0.774357
    132          1           0      -15.792414    0.963919   -0.453670
    133          1           0      -14.676625   -0.313409    0.110013
    134          1           0      -14.232328    1.562925   -2.212587
    135          1           0      -15.042688    0.049578   -3.636467
    136          1           0      -15.827514   -0.618327   -2.301905
    137          1           0      -14.217356   -1.245043   -2.924630
    138          1           0      -12.190396   -0.301464   -2.401184
    139          1           0      -12.349717   -0.287697   -0.637309
    140          1           0      -11.951830    1.112190   -1.576768
 ---------------------------------------------------------------------

 SCF Done:  E(RB-LYP) =  -3007.36595689     A.U. after   21 cycles

 Excitation energies and oscillator strengths:

 Excited State   1:      Singlet-A      1.6416 eV  755.25 nm  f=0.0008  <S**2>=0.000
     244 -> 247        0.70377
 This state for optimization and/or second-order correction.
 Total Energy, E(TD-HF/TD-DFT) =  -3007.30562780
 Copying the excited state density for this state as the 1-particle RhoCI density.

 Excited State   2:      Singlet-A      1.7107 eV  724.77 nm  f=0.0388  <S**2>=0.000
     243 -> 247        0.64267
     246 -> 247        0.27933

 Excited State   3:      Singlet-A      1.7655 eV  702.25 nm  f=0.2394  <S**2>=0.000
     243 -> 247       -0.28368
     245 -> 248        0.15401
     246 -> 247        0.63854
     246 <- 247       -0.15000

 Excited State   4:      Singlet-A      1.9940 eV  621.79 nm  f=0.1217  <S**2>=0.000
     245 -> 247        0.65134
     246 -> 248       -0.21324

 Excited State   5:      Singlet-A      2.1599 eV  574.03 nm  f=0.0001  <S**2>=0.000
     242 -> 247        0.70708

 The electronic state is 1-A.
 Alpha  occ. eigenvalues --  -46.26392 -18.82338 -18.81982 -18.77932 -18.75424
 Alpha  occ. eigenvalues --  -18.74821 -18.74796 -14.03124 -14.02772 -14.01133
 Alpha  occ. eigenvalues --  -14.00428 -10.04887 -10.02967  -9.98802  -9.98649
 Alpha  occ. eigenvalues --   -9.97779  -9.97603  -9.96597  -9.96451  -9.96050
 Alpha  occ. eigenvalues --   -9.95930  -9.95772  -9.95581  -9.95454  -9.94333
 Alpha  occ. eigenvalues --   -9.94309  -9.94116  -9.93901  -9.93875  -9.93734
 Alpha  occ. eigenvalues --   -9.93549  -9.93279  -9.93183  -9.93148  -9.93060
 Alpha  occ. eigenvalues --   -9.93049  -9.92971  -9.92814  -9.92728  -9.92711
 Alpha  occ. eigenvalues --   -9.92453  -9.92364  -9.92349  -9.92325  -9.92305
 Alpha  occ. eigenvalues --   -9.92040  -9.91807  -9.91801  -9.91748  -9.91569
 Alpha  occ. eigenvalues --   -9.91525  -9.91467  -9.91387  -9.91298  -9.91083
 Alpha  occ. eigenvalues --   -9.91064  -9.90987  -9.90975  -9.90961  -9.90806
 Alpha  occ. eigenvalues --   -9.90735  -9.90699  -9.90605  -9.90540  -9.90439
 Alpha  occ. eigenvalues --   -9.90419  -2.91141  -1.71541  -1.71023  -1.70865
 Alpha  occ. eigenvalues --   -0.98329  -0.97443  -0.92085  -0.90519  -0.90342
 Alpha  occ. eigenvalues --   -0.89441  -0.86001  -0.85332  -0.84861  -0.84155
 Alpha  occ. eigenvalues --   -0.75339  -0.74107  -0.73461  -0.73037  -0.72347
 Alpha  occ. eigenvalues --   -0.72254  -0.71482  -0.71056  -0.70729  -0.70470
 Alpha  occ. eigenvalues --   -0.70249  -0.69453  -0.68304  -0.67363  -0.67209
 Alpha  occ. eigenvalues --   -0.66522  -0.66100  -0.65406  -0.65364  -0.64394
 Alpha  occ. eigenvalues --   -0.64270  -0.62882  -0.62466  -0.61505  -0.60954
 Alpha  occ. eigenvalues --   -0.60647  -0.60507  -0.59687  -0.59394  -0.59248
 Alpha  occ. eigenvalues --   -0.58286  -0.57750  -0.56414  -0.55094  -0.54850
 Alpha  occ. eigenvalues --   -0.54034  -0.53341  -0.52759  -0.52558  -0.51200
 Alpha  occ. eigenvalues --   -0.51134  -0.50696  -0.50392  -0.50147  -0.49651
 Alpha  occ. eigenvalues --   -0.49484  -0.48911  -0.48131  -0.47934  -0.46794
 Alpha  occ. eigenvalues --   -0.46462  -0.46289  -0.45775  -0.45078  -0.44575
 Alpha  occ. eigenvalues --   -0.44245  -0.43770  -0.43371  -0.43132  -0.42596
 Alpha  occ. eigenvalues --   -0.42397  -0.42124  -0.41721  -0.41598  -0.41367
 Alpha  occ. eigenvalues --   -0.41148  -0.40738  -0.40365  -0.40125  -0.39977
 Alpha  occ. eigenvalues --   -0.39760  -0.39699  -0.39417  -0.39267  -0.39194
 Alpha  occ. eigenvalues --   -0.38869  -0.38762  -0.38514  -0.38366  -0.38285
 Alpha  occ. eigenvalues --   -0.38093  -0.38037  -0.37854  -0.37568  -0.37565
 Alpha  occ. eigenvalues --   -0.37270  -0.36877  -0.36791  -0.36689  -0.36453
 Alpha  occ. eigenvalues --   -0.36338  -0.36186  -0.35587  -0.35520  -0.35378
 Alpha  occ. eigenvalues --   -0.35130  -0.35018  -0.34965  -0.34554  -0.34466
 Alpha  occ. eigenvalues --   -0.34411  -0.34155  -0.34073  -0.33779  -0.33702
 Alpha  occ. eigenvalues --   -0.33568  -0.33519  -0.33231  -0.33176  -0.33075
 Alpha  occ. eigenvalues --   -0.32760  -0.32549  -0.32386  -0.32222  -0.32165
 Alpha  occ. eigenvalues --   -0.31764  -0.31620  -0.31566  -0.31334  -0.31220
 Alpha  occ. eigenvalues --   -0.30935  -0.30815  -0.30744  -0.30692  -0.30568
 Alpha  occ. eigenvalues --   -0.30463  -0.30320  -0.30095  -0.29934  -0.29597
 Alpha  occ. eigenvalues --   -0.29488  -0.29406  -0.29357  -0.29218  -0.29040
 Alpha  occ. eigenvalues --   -0.28812  -0.28698  -0.28469  -0.28365  -0.27940
 Alpha  occ. eigenvalues --   -0.27771  -0.27735  -0.27275  -0.26643  -0.26520
 Alpha  occ. eigenvalues --   -0.26184  -0.26069  -0.25801  -0.25783  -0.24912
 Alpha  occ. eigenvalues --   -0.24726  -0.24640  -0.23830  -0.23700  -0.23498
 Alpha  occ. eigenvalues --   -0.22893  -0.22650  -0.22222  -0.21117  -0.20661
 Alpha  occ. eigenvalues --   -0.20219  -0.19835  -0.18125  -0.17853  -0.17344
 Alpha  occ. eigenvalues --   -0.15917
 Alpha virt. eigenvalues --   -0.11897  -0.06600  -0.05547  -0.04489  -0.03910
 Alpha virt. eigenvalues --   -0.02607  -0.02030  -0.01545  -0.01231   0.00930
 Alpha virt. eigenvalues --    0.01345   0.01746   0.02035   0.02532   0.02737

 Mulliken charges:
               1
     1  Mg   0.710838
     2  C    0.069739
     3  C   -0.051938
     4  C   -0.033258
     5  C   -0.084673
     6  N   -0.242763
     7  C   -0.088839
     8  C    0.011820
     9  C   -0.011443
    10  C   -0.013935
    11  C    0.165157
    12  C    0.097137
    13  C    0.127459
    14  C    0.108952
    15  O   -0.176359
    16  O   -0.285857
    17  N   -0.294649
    18  C    0.179446
    19  C   -0.090258
    20  C    0.070419
    21  C    0.068892
    22  C    0.155184
    23  C   -0.144029
    24  O   -0.144519
    25  C    0.141268
    26  N   -0.230018
    27  C    0.044583
    28  C   -0.008300
    29  C    0.035607
    30  C    0.077341
    31  C    0.108438
    32  C    0.062711
    33  C    0.075026
    34  N   -0.291446
    35  C    0.105823
    36  C   -0.159758
    37  C    0.117426
    38  C    0.042827
    39  C    0.173711
    40  C   -0.069653
    41  O   -0.147006
    42  C    0.082325
    43  C    0.072856
    44  O   -0.159685
    45  O   -0.259669
    46  C    0.179431
    47  C    0.374079
    48  C   -0.131440
    49  C   -0.166652
    50  C    0.161999
    51  C    0.150030
    52  C    0.011855
    53  C    0.078496
    54  C   -0.056386
    55  C    0.125638
    56  C    0.129424
    57  C    0.044990
    58  C    0.119309
    59  C   -0.099333
    60  C    0.094843
    61  C    0.133671
    62  C    0.065945
    63  C    0.070307
    64  C   -0.061760
    65  C    0.115285
    66  C    0.074673
    67  H   -0.071246
    68  H   -0.039252
    69  H   -0.053013
    70  H   -0.039362
    71  H   -0.043264
    72  H    0.002726
    73  H   -0.006233
    74  H   -0.001648
    75  H   -0.027668
    76  H    0.016849
    77  H   -0.008471
    78  H    0.000125
    79  H   -0.005134
    80  H   -0.034575
    81  H    0.008515
    82  H    0.004655
    83  H    0.000723
    84  H   -0.015569
    85  H   -0.019381
    86  H   -0.037863
    87  H    0.001617
    88  H   -0.001122
    89  H   -0.016135
    90  H   -0.029428
    91  H   -0.024838
    92  H    0.011340
    93  H   -0.010355
    94  H   -0.007106
    95  H    0.013974
    96  H   -0.005329
    97  H    0.008545
    98  H   -0.006684
    99  H    0.023430
   100  H    0.044974
   101  H    0.020971
   102  H    0.010057
   103  H   -0.030502
   104  H   -0.043397
   105  H    0.013858
   106  H   -0.010037
   107  H   -0.004158
   108  H   -0.042330
   109  H   -0.021585
   110  H   -0.008086
   111  H   -0.023912
   112  H   -0.034921
   113  H   -0.031570
   114  H   -0.043851
   115  H   -0.025695
   116  H   -0.028973
   117  H   -0.010615
   118  H   -0.021523
   119  H   -0.049253
   120  H   -0.032028
   121  H   -0.039126
   122  H   -0.038270
   123  H   -0.043470
   124  H   -0.022744
   125  H   -0.020131
   126  H   -0.026882
   127  H   -0.014355
   128  H   -0.046580
   129  H   -0.018663
   130  H   -0.031365
   131  H   -0.038955
   132  H   -0.039808
   133  H   -0.022931
   134  H   -0.040291
   135  H   -0.029017
   136  H   -0.023266
   137  H   -0.018888
   138  H   -0.027193
   139  H    0.008629
   140  H   -0.014267
 Sum of Mulliken charges =  -0.00000

 Dipole moment (field-independent basis, Debye):
    X=             -3.7318    Y=              1.8484    Z=             -3.2131  Tot=              5.2599
 Quadrupole moment (field-independent basis, Debye-Ang):
   XX=           -362.1338   YY=           -430.1880   ZZ=           -402.4887
   XY=             -4.3978   XZ=              7.4176   YZ=             -2.7477

 Normal termination of Gaussian 16 at Sat Apr 30 09:50:04 2022.
