 Gaussian 16, Revision A.03,
 Gaussian 16:  ES64L-G16RevA.03 25-Dec-2016

 -----------------------------------
 #p cam-b3lyp/Def2SVP td=(nstates=5)
 -----------------------------------

 ------------------------------------------------------
 step_701_chromophore_1 TDDFT with cam-b3lyp functional
 ------------------------------------------------------
 Symbolic Z-matrix:
 Charge =  0 Multiplicity = 1

                         Standard orientation:
 ---------------------------------------------------------------------
 Center     Atomic      Atomic             Coordinates (Angstroms)
 Number     Number       Type             X           Y           Z
 ---------------------------------------------------------------------
      1         12           0        5.800915    0.460974    0.077124
      2          6           0        3.921743   -2.376868   -0.540907
      3          6           0        3.373849    2.262149   -1.698828
      4          6           0        7.772462    3.217231    0.246570
      5          6           0        8.555571   -1.493699    0.934815
      6          7           0        3.941073   -0.094665   -1.049676
      7          6           0        3.267661   -1.303612   -1.035170
      8          6           0        1.901437   -1.164134   -1.665323
      9          6           0        2.068960    0.161283   -2.484425
     10          6           0        3.079638    0.871619   -1.626083
     11          6           0        2.603421   -0.093858   -3.940050
     12          6           0        0.760008   -1.022862   -0.620081
     13          6           0       -0.531241   -1.621195   -1.012444
     14          6           0       -1.439487   -1.960261    0.171112
     15          8           0       -1.138386   -1.857887    1.364852
     16          8           0       -2.656154   -2.440146   -0.344666
     17          7           0        5.536967    2.447358   -0.504870
     18          6           0        4.424096    3.021969   -1.151514
     19          6           0        4.603017    4.431067   -1.199249
     20          6           0        5.811180    4.756865   -0.548378
     21          6           0        6.445534    3.437338   -0.252940
     22          6           0        3.614526    5.234431   -1.939995
     23          6           0        6.454545    6.020638   -0.269734
     24          8           0        7.532936    6.163171    0.246726
     25          6           0        5.718147    7.290404   -0.675149
     26          7           0        7.848542    0.857097    0.397319
     27          6           0        8.444634    2.065556    0.385888
     28          6           0        9.978549    1.983027    0.843538
     29          6           0       10.102600    0.500819    1.282788
     30          6           0        8.732867   -0.095631    0.881540
     31          6           0       10.949071    2.373736   -0.362011
     32          6           0       10.392466    0.207961    2.788933
     33          6           0        9.420237    0.814582    3.795569
     34          7           0        6.193289   -1.527967    0.183224
     35          6           0        7.390459   -2.194467    0.578529
     36          6           0        7.131943   -3.639941    0.654890
     37          6           0        5.769212   -3.711499    0.270959
     38          6           0        5.273834   -2.469408   -0.017389
     39          6           0        8.039848   -4.699818    1.050944
     40          6           0        4.669057   -4.616237    0.065260
     41          8           0        4.535570   -5.831168    0.209105
     42          6           0        3.483645   -3.819188   -0.499552
     43          6           0        2.224279   -4.053212    0.278416
     44          8           0        1.954564   -3.622294    1.367781
     45          8           0        1.353866   -4.712140   -0.479026
     46          6           0        0.007173   -5.070805    0.080129
     47          6           0       -3.770261   -2.579100    0.536601
     48          6           0       -4.879731   -1.988478   -0.290569
     49          6           0       -6.091377   -2.532554   -0.634350
     50          6           0       -6.784617   -3.802625   -0.171396
     51          6           0       -6.888776   -1.626677   -1.546447
     52          6           0       -7.934089   -0.877522   -0.689159
     53          6           0       -8.176814    0.603632   -1.199438
     54          6           0       -8.626116    1.558871   -0.017027
     55          6           0       -7.403386    2.092166    0.732505
     56          6           0       -9.577300    0.998162    0.985044
     57          6           0      -10.474941    2.063516    1.527584
     58          6           0      -11.436278    1.517917    2.537567
     59          6           0      -12.758909    2.408374    2.576297
     60          6           0      -12.978011    2.870478    4.067777
     61          6           0      -13.934730    1.498031    2.030677
     62          6           0      -14.322650    1.863507    0.605822
     63          6           0      -14.746725    0.688696   -0.311914
     64          6           0      -14.106267    0.592903   -1.731965
     65          6           0      -14.825243   -0.380496   -2.658611
     66          6           0      -12.608076    0.241630   -1.554387
     67          1           0        2.598845    2.732327   -2.308140
     68          1           0        8.395125    4.109625    0.336052
     69          1           0        9.401621   -2.138501    1.182523
     70          1           0        1.702518   -2.053328   -2.263633
     71          1           0        1.142539    0.734247   -2.528345
     72          1           0        3.565618    0.395972   -4.089809
     73          1           0        1.855614    0.353963   -4.594233
     74          1           0        2.701961   -1.171715   -4.064441
     75          1           0        0.502082    0.027886   -0.488823
     76          1           0        1.151998   -1.412422    0.319230
     77          1           0       -0.273199   -2.585382   -1.449648
     78          1           0       -0.945691   -0.944089   -1.759376
     79          1           0        3.017696    5.868369   -1.284870
     80          1           0        2.767689    4.752034   -2.427855
     81          1           0        4.033416    5.803399   -2.770595
     82          1           0        4.862406    7.358727   -0.004022
     83          1           0        5.506787    7.131672   -1.731924
     84          1           0        6.338609    8.172467   -0.515172
     85          1           0       10.252394    2.652715    1.659794
     86          1           0       10.994917    0.165574    0.754036
     87          1           0       10.374920    2.408101   -1.287618
     88          1           0       11.901417    1.845763   -0.302999
     89          1           0       11.233542    3.424459   -0.302992
     90          1           0       11.380499    0.610750    3.011568
     91          1           0       10.483285   -0.874697    2.872211
     92          1           0        8.517811    1.188142    3.312030
     93          1           0        9.892704    1.633078    4.336706
     94          1           0        9.232185    0.033116    4.532083
     95          1           0        7.365170   -5.309661    1.653491
     96          1           0        8.944664   -4.458550    1.608203
     97          1           0        8.267307   -5.317874    0.183206
     98          1           0        3.262405   -4.097193   -1.529674
     99          1           0       -0.805035   -4.908987   -0.628326
    100          1           0       -0.239412   -4.518139    0.986015
    101          1           0        0.013221   -6.137952    0.305585
    102          1           0       -3.706952   -2.073198    1.499740
    103          1           0       -4.043765   -3.629174    0.642204
    104          1           0       -4.678553   -0.993308   -0.686573
    105          1           0       -7.566313   -3.504312    0.527496
    106          1           0       -6.096937   -4.522740    0.270190
    107          1           0       -7.213469   -4.227194   -1.079853
    108          1           0       -7.478469   -2.188110   -2.271145
    109          1           0       -6.262520   -0.983168   -2.164453
    110          1           0       -7.655322   -0.900147    0.364163
    111          1           0       -8.920471   -1.339391   -0.732017
    112          1           0       -9.005866    0.561378   -1.906568
    113          1           0       -7.285511    0.868211   -1.767819
    114          1           0       -9.109639    2.362585   -0.571771
    115          1           0       -6.575041    1.504616    0.337315
    116          1           0       -7.432361    1.833301    1.790504
    117          1           0       -7.217857    3.164230    0.667410
    118          1           0       -9.279432    0.536916    1.926826
    119          1           0      -10.189461    0.334656    0.374497
    120          1           0      -10.960786    2.659628    0.754735
    121          1           0       -9.950363    2.781451    2.158525
    122          1           0      -10.906686    1.469571    3.489821
    123          1           0      -11.793465    0.496284    2.410195
    124          1           0      -12.723005    3.316065    1.974253
    125          1           0      -13.950293    2.613733    4.488723
    126          1           0      -12.960658    3.959618    4.029029
    127          1           0      -12.212412    2.602277    4.795215
    128          1           0      -14.733089    1.845928    2.685915
    129          1           0      -13.838076    0.413580    2.080254
    130          1           0      -13.643775    2.497168    0.035850
    131          1           0      -15.179327    2.515765    0.774357
    132          1           0      -15.792414    0.963919   -0.453670
    133          1           0      -14.676625   -0.313409    0.110013
    134          1           0      -14.232328    1.562925   -2.212587
    135          1           0      -15.042688    0.049578   -3.636467
    136          1           0      -15.827514   -0.618327   -2.301905
    137          1           0      -14.217356   -1.245043   -2.924630
    138          1           0      -12.190396   -0.301464   -2.401184
    139          1           0      -12.349717   -0.287697   -0.637309
    140          1           0      -11.951830    1.112190   -1.576768
 ---------------------------------------------------------------------

 SCF Done:  E(RCAM-B3LYP) =  -3007.16974156     A.U. after   19 cycles

 Excitation energies and oscillator strengths:

 Excited State   1:      Singlet-A      1.6334 eV  759.07 nm  f=0.3645  <S**2>=0.000
     245 -> 248        0.16230
     246 -> 247        0.69013
     245 <- 248        0.10627
 This state for optimization and/or second-order correction.
 Total Energy, E(TD-HF/TD-DFT) =  -3007.10971653
 Copying the excited state density for this state as the 1-particle RhoCI density.

 Excited State   2:      Singlet-A      2.1739 eV  570.32 nm  f=0.1642  <S**2>=0.000
     245 -> 247        0.65534
     246 -> 248       -0.25018

 Excited State   3:      Singlet-A      3.2165 eV  385.46 nm  f=0.0025  <S**2>=0.000
     242 -> 247        0.21489
     244 -> 247        0.65271

 Excited State   4:      Singlet-A      3.3443 eV  370.73 nm  f=0.0027  <S**2>=0.000
     241 -> 247        0.17187
     241 -> 249       -0.14724
     241 -> 251       -0.10536
     242 -> 247        0.58139
     242 -> 249       -0.13919
     244 -> 247       -0.17003

 Excited State   5:      Singlet-A      3.4212 eV  362.40 nm  f=0.0000  <S**2>=0.000
     240 -> 247        0.53165
     240 -> 249        0.22387
     240 -> 251       -0.19991
     241 -> 247        0.29569

 The electronic state is 1-A.
 Alpha  occ. eigenvalues --  -46.87881 -19.25184 -19.24864 -19.20944 -19.18380
 Alpha  occ. eigenvalues --  -19.18116 -19.17921 -14.41942 -14.41760 -14.39705
 Alpha  occ. eigenvalues --  -14.38735 -10.40337 -10.38183 -10.34001 -10.33884
 Alpha  occ. eigenvalues --  -10.31765 -10.31681 -10.31112 -10.30937 -10.30680
 Alpha  occ. eigenvalues --  -10.30301 -10.30248 -10.30069 -10.29569 -10.28682
 Alpha  occ. eigenvalues --  -10.28496 -10.28358 -10.28225 -10.28170 -10.27744
 Alpha  occ. eigenvalues --  -10.27574 -10.27519 -10.27334 -10.27242 -10.27020
 Alpha  occ. eigenvalues --  -10.27009 -10.26926 -10.26856 -10.26841 -10.26724
 Alpha  occ. eigenvalues --  -10.26435 -10.26118 -10.26039 -10.25992 -10.25977
 Alpha  occ. eigenvalues --  -10.25735 -10.25637 -10.25510 -10.25455 -10.25421
 Alpha  occ. eigenvalues --  -10.25320 -10.25311 -10.25226 -10.25153 -10.24896
 Alpha  occ. eigenvalues --  -10.24744 -10.24678 -10.24656 -10.24656 -10.24616
 Alpha  occ. eigenvalues --  -10.24382 -10.24294 -10.24227 -10.24217 -10.24033
 Alpha  occ. eigenvalues --  -10.23982  -3.16534  -1.91409  -1.90982  -1.90854
 Alpha  occ. eigenvalues --   -1.16841  -1.15846  -1.10659  -1.08653  -1.08406
 Alpha  occ. eigenvalues --   -1.07309  -1.03662  -1.02940  -1.02510  -1.01708
 Alpha  occ. eigenvalues --   -0.92398  -0.91003  -0.90289  -0.89846  -0.89140
 Alpha  occ. eigenvalues --   -0.88964  -0.88163  -0.87709  -0.87296  -0.86982
 Alpha  occ. eigenvalues --   -0.86834  -0.85859  -0.84576  -0.83487  -0.83349
 Alpha  occ. eigenvalues --   -0.82589  -0.82173  -0.81335  -0.81195  -0.80365
 Alpha  occ. eigenvalues --   -0.80064  -0.78637  -0.78280  -0.76971  -0.76380
 Alpha  occ. eigenvalues --   -0.76013  -0.75862  -0.74961  -0.74681  -0.74504
 Alpha  occ. eigenvalues --   -0.73348  -0.72751  -0.71288  -0.69889  -0.69461
 Alpha  occ. eigenvalues --   -0.68689  -0.67869  -0.67210  -0.66993  -0.65412
 Alpha  occ. eigenvalues --   -0.65383  -0.64847  -0.64219  -0.64203  -0.63418
 Alpha  occ. eigenvalues --   -0.63350  -0.62802  -0.61903  -0.61614  -0.60500
 Alpha  occ. eigenvalues --   -0.60137  -0.59860  -0.59286  -0.58470  -0.58079
 Alpha  occ. eigenvalues --   -0.57584  -0.57193  -0.56487  -0.56405  -0.55716
 Alpha  occ. eigenvalues --   -0.55291  -0.55192  -0.54831  -0.54542  -0.54347
 Alpha  occ. eigenvalues --   -0.53977  -0.53675  -0.53384  -0.53173  -0.52645
 Alpha  occ. eigenvalues --   -0.52486  -0.52442  -0.52134  -0.52125  -0.51730
 Alpha  occ. eigenvalues --   -0.51591  -0.51204  -0.50993  -0.50940  -0.50711
 Alpha  occ. eigenvalues --   -0.50442  -0.50404  -0.50266  -0.49850  -0.49663
 Alpha  occ. eigenvalues --   -0.49529  -0.49477  -0.49109  -0.48890  -0.48847
 Alpha  occ. eigenvalues --   -0.48531  -0.48425  -0.48036  -0.47730  -0.47392
 Alpha  occ. eigenvalues --   -0.47254  -0.47109  -0.46994  -0.46696  -0.46345
 Alpha  occ. eigenvalues --   -0.46228  -0.46096  -0.45817  -0.45646  -0.45509
 Alpha  occ. eigenvalues --   -0.45343  -0.45330  -0.44985  -0.44800  -0.44750
 Alpha  occ. eigenvalues --   -0.44574  -0.44257  -0.44236  -0.44059  -0.43696
 Alpha  occ. eigenvalues --   -0.43467  -0.43346  -0.43169  -0.42920  -0.42788
 Alpha  occ. eigenvalues --   -0.42690  -0.42302  -0.42191  -0.42095  -0.42040
 Alpha  occ. eigenvalues --   -0.41764  -0.41667  -0.41433  -0.41176  -0.41104
 Alpha  occ. eigenvalues --   -0.40934  -0.40613  -0.40546  -0.40465  -0.40161
 Alpha  occ. eigenvalues --   -0.40016  -0.39700  -0.39420  -0.39328  -0.38995
 Alpha  occ. eigenvalues --   -0.38864  -0.38687  -0.38100  -0.37527  -0.37460
 Alpha  occ. eigenvalues --   -0.37321  -0.36954  -0.36565  -0.36446  -0.36107
 Alpha  occ. eigenvalues --   -0.36035  -0.35200  -0.34993  -0.34391  -0.34283
 Alpha  occ. eigenvalues --   -0.33583  -0.32989  -0.32957  -0.31306  -0.30314
 Alpha  occ. eigenvalues --   -0.30287  -0.29959  -0.29428  -0.29382  -0.24110
 Alpha  occ. eigenvalues --   -0.21267
 Alpha virt. eigenvalues --   -0.09208  -0.01273   0.00825   0.02441   0.02521
 Alpha virt. eigenvalues --    0.03908   0.05229   0.06104   0.06607   0.07359
 Alpha virt. eigenvalues --    0.07456   0.08316   0.08492   0.09004   0.09175

 Mulliken charges:
               1
     1  Mg   0.841487
     2  C    0.034834
     3  C   -0.070315
     4  C   -0.050904
     5  C   -0.087025
     6  N   -0.303664
     7  C   -0.045358
     8  C   -0.041863
     9  C   -0.065969
    10  C    0.007437
    11  C    0.108667
    12  C    0.043375
    13  C    0.061498
    14  C    0.189553
    15  O   -0.215540
    16  O   -0.350345
    17  N   -0.380507
    18  C    0.188274
    19  C   -0.096552
    20  C   -0.003063
    21  C    0.100628
    22  C    0.092838
    23  C   -0.063608
    24  O   -0.186773
    25  C    0.063799
    26  N   -0.300449
    27  C    0.057599
    28  C   -0.059514
    29  C   -0.015661
    30  C    0.081416
    31  C    0.053844
    32  C    0.014604
    33  C    0.010831
    34  N   -0.381965
    35  C    0.109782
    36  C   -0.154369
    37  C    0.028670
    38  C    0.087311
    39  C    0.118715
    40  C    0.032403
    41  O   -0.186747
    42  C    0.007000
    43  C    0.158438
    44  O   -0.197892
    45  O   -0.323321
    46  C    0.143776
    47  C    0.333676
    48  C   -0.143468
    49  C   -0.193234
    50  C    0.104161
    51  C    0.085618
    52  C   -0.037651
    53  C    0.034803
    54  C   -0.111408
    55  C    0.067222
    56  C    0.065297
    57  C    0.001377
    58  C    0.068859
    59  C   -0.155419
    60  C    0.038880
    61  C    0.078344
    62  C    0.013297
    63  C    0.014995
    64  C   -0.119736
    65  C    0.052379
    66  C    0.019917
    67  H   -0.035762
    68  H    0.001110
    69  H   -0.018217
    70  H   -0.003219
    71  H   -0.008495
    72  H    0.029000
    73  H    0.017467
    74  H    0.022407
    75  H    0.001984
    76  H    0.051196
    77  H    0.021451
    78  H    0.031422
    79  H    0.023200
    80  H   -0.002287
    81  H    0.035122
    82  H    0.032421
    83  H    0.025302
    84  H    0.020661
    85  H    0.015267
    86  H   -0.001878
    87  H    0.026997
    88  H    0.022466
    89  H    0.008817
    90  H   -0.001107
    91  H    0.003026
    92  H    0.031215
    93  H    0.013278
    94  H    0.017683
    95  H    0.039704
    96  H    0.019541
    97  H    0.035527
    98  H    0.037274
    99  H    0.042774
   100  H    0.069793
   101  H    0.045222
   102  H    0.042015
   103  H   -0.003504
   104  H   -0.011618
   105  H    0.037157
   106  H    0.014458
   107  H    0.019855
   108  H   -0.010770
   109  H    0.008717
   110  H    0.017067
   111  H    0.002262
   112  H   -0.008386
   113  H   -0.003405
   114  H   -0.009361
   115  H   -0.003888
   116  H   -0.004064
   117  H    0.013963
   118  H    0.005955
   119  H   -0.023930
   120  H   -0.008132
   121  H   -0.010646
   122  H   -0.009871
   123  H   -0.015773
   124  H    0.008686
   125  H    0.003931
   126  H   -0.002603
   127  H    0.009463
   128  H   -0.016071
   129  H    0.007517
   130  H   -0.005285
   131  H   -0.008417
   132  H   -0.009584
   133  H    0.003907
   134  H   -0.007970
   135  H   -0.003233
   136  H    0.002679
   137  H    0.005887
   138  H   -0.002545
   139  H    0.026688
   140  H    0.005201
 Sum of Mulliken charges =  -0.00000

 Dipole moment (field-independent basis, Debye):
    X=             -3.9036    Y=              2.6416    Z=             -3.5304  Tot=              5.8890
 Quadrupole moment (field-independent basis, Debye-Ang):
   XX=           -361.3341   YY=           -425.8198   ZZ=           -402.0994
   XY=             -0.7941   XZ=              7.0688   YZ=             -3.7870

 Normal termination of Gaussian 16 at Sat Apr 30 08:41:30 2022.
