 Gaussian 16, Revision A.03,
 Gaussian 16:  ES64L-G16RevA.03 25-Dec-2016

 ---------------------------------
 #p PBE1PBE/Def2SVP td=(nstates=5)
 ---------------------------------

 ----------------------------------------------------
 step_701_chromophore_1 TDDFT with PBE1PBE functional
 ----------------------------------------------------
 Symbolic Z-matrix:
 Charge =  0 Multiplicity = 1

                         Standard orientation:
 ---------------------------------------------------------------------
 Center     Atomic      Atomic             Coordinates (Angstroms)
 Number     Number       Type             X           Y           Z
 ---------------------------------------------------------------------
      1         12           0        5.800915    0.460974    0.077124
      2          6           0        3.921743   -2.376868   -0.540907
      3          6           0        3.373849    2.262149   -1.698828
      4          6           0        7.772462    3.217231    0.246570
      5          6           0        8.555571   -1.493699    0.934815
      6          7           0        3.941073   -0.094665   -1.049676
      7          6           0        3.267661   -1.303612   -1.035170
      8          6           0        1.901437   -1.164134   -1.665323
      9          6           0        2.068960    0.161283   -2.484425
     10          6           0        3.079638    0.871619   -1.626083
     11          6           0        2.603421   -0.093858   -3.940050
     12          6           0        0.760008   -1.022862   -0.620081
     13          6           0       -0.531241   -1.621195   -1.012444
     14          6           0       -1.439487   -1.960261    0.171112
     15          8           0       -1.138386   -1.857887    1.364852
     16          8           0       -2.656154   -2.440146   -0.344666
     17          7           0        5.536967    2.447358   -0.504870
     18          6           0        4.424096    3.021969   -1.151514
     19          6           0        4.603017    4.431067   -1.199249
     20          6           0        5.811180    4.756865   -0.548378
     21          6           0        6.445534    3.437338   -0.252940
     22          6           0        3.614526    5.234431   -1.939995
     23          6           0        6.454545    6.020638   -0.269734
     24          8           0        7.532936    6.163171    0.246726
     25          6           0        5.718147    7.290404   -0.675149
     26          7           0        7.848542    0.857097    0.397319
     27          6           0        8.444634    2.065556    0.385888
     28          6           0        9.978549    1.983027    0.843538
     29          6           0       10.102600    0.500819    1.282788
     30          6           0        8.732867   -0.095631    0.881540
     31          6           0       10.949071    2.373736   -0.362011
     32          6           0       10.392466    0.207961    2.788933
     33          6           0        9.420237    0.814582    3.795569
     34          7           0        6.193289   -1.527967    0.183224
     35          6           0        7.390459   -2.194467    0.578529
     36          6           0        7.131943   -3.639941    0.654890
     37          6           0        5.769212   -3.711499    0.270959
     38          6           0        5.273834   -2.469408   -0.017389
     39          6           0        8.039848   -4.699818    1.050944
     40          6           0        4.669057   -4.616237    0.065260
     41          8           0        4.535570   -5.831168    0.209105
     42          6           0        3.483645   -3.819188   -0.499552
     43          6           0        2.224279   -4.053212    0.278416
     44          8           0        1.954564   -3.622294    1.367781
     45          8           0        1.353866   -4.712140   -0.479026
     46          6           0        0.007173   -5.070805    0.080129
     47          6           0       -3.770261   -2.579100    0.536601
     48          6           0       -4.879731   -1.988478   -0.290569
     49          6           0       -6.091377   -2.532554   -0.634350
     50          6           0       -6.784617   -3.802625   -0.171396
     51          6           0       -6.888776   -1.626677   -1.546447
     52          6           0       -7.934089   -0.877522   -0.689159
     53          6           0       -8.176814    0.603632   -1.199438
     54          6           0       -8.626116    1.558871   -0.017027
     55          6           0       -7.403386    2.092166    0.732505
     56          6           0       -9.577300    0.998162    0.985044
     57          6           0      -10.474941    2.063516    1.527584
     58          6           0      -11.436278    1.517917    2.537567
     59          6           0      -12.758909    2.408374    2.576297
     60          6           0      -12.978011    2.870478    4.067777
     61          6           0      -13.934730    1.498031    2.030677
     62          6           0      -14.322650    1.863507    0.605822
     63          6           0      -14.746725    0.688696   -0.311914
     64          6           0      -14.106267    0.592903   -1.731965
     65          6           0      -14.825243   -0.380496   -2.658611
     66          6           0      -12.608076    0.241630   -1.554387
     67          1           0        2.598845    2.732327   -2.308140
     68          1           0        8.395125    4.109625    0.336052
     69          1           0        9.401621   -2.138501    1.182523
     70          1           0        1.702518   -2.053328   -2.263633
     71          1           0        1.142539    0.734247   -2.528345
     72          1           0        3.565618    0.395972   -4.089809
     73          1           0        1.855614    0.353963   -4.594233
     74          1           0        2.701961   -1.171715   -4.064441
     75          1           0        0.502082    0.027886   -0.488823
     76          1           0        1.151998   -1.412422    0.319230
     77          1           0       -0.273199   -2.585382   -1.449648
     78          1           0       -0.945691   -0.944089   -1.759376
     79          1           0        3.017696    5.868369   -1.284870
     80          1           0        2.767689    4.752034   -2.427855
     81          1           0        4.033416    5.803399   -2.770595
     82          1           0        4.862406    7.358727   -0.004022
     83          1           0        5.506787    7.131672   -1.731924
     84          1           0        6.338609    8.172467   -0.515172
     85          1           0       10.252394    2.652715    1.659794
     86          1           0       10.994917    0.165574    0.754036
     87          1           0       10.374920    2.408101   -1.287618
     88          1           0       11.901417    1.845763   -0.302999
     89          1           0       11.233542    3.424459   -0.302992
     90          1           0       11.380499    0.610750    3.011568
     91          1           0       10.483285   -0.874697    2.872211
     92          1           0        8.517811    1.188142    3.312030
     93          1           0        9.892704    1.633078    4.336706
     94          1           0        9.232185    0.033116    4.532083
     95          1           0        7.365170   -5.309661    1.653491
     96          1           0        8.944664   -4.458550    1.608203
     97          1           0        8.267307   -5.317874    0.183206
     98          1           0        3.262405   -4.097193   -1.529674
     99          1           0       -0.805035   -4.908987   -0.628326
    100          1           0       -0.239412   -4.518139    0.986015
    101          1           0        0.013221   -6.137952    0.305585
    102          1           0       -3.706952   -2.073198    1.499740
    103          1           0       -4.043765   -3.629174    0.642204
    104          1           0       -4.678553   -0.993308   -0.686573
    105          1           0       -7.566313   -3.504312    0.527496
    106          1           0       -6.096937   -4.522740    0.270190
    107          1           0       -7.213469   -4.227194   -1.079853
    108          1           0       -7.478469   -2.188110   -2.271145
    109          1           0       -6.262520   -0.983168   -2.164453
    110          1           0       -7.655322   -0.900147    0.364163
    111          1           0       -8.920471   -1.339391   -0.732017
    112          1           0       -9.005866    0.561378   -1.906568
    113          1           0       -7.285511    0.868211   -1.767819
    114          1           0       -9.109639    2.362585   -0.571771
    115          1           0       -6.575041    1.504616    0.337315
    116          1           0       -7.432361    1.833301    1.790504
    117          1           0       -7.217857    3.164230    0.667410
    118          1           0       -9.279432    0.536916    1.926826
    119          1           0      -10.189461    0.334656    0.374497
    120          1           0      -10.960786    2.659628    0.754735
    121          1           0       -9.950363    2.781451    2.158525
    122          1           0      -10.906686    1.469571    3.489821
    123          1           0      -11.793465    0.496284    2.410195
    124          1           0      -12.723005    3.316065    1.974253
    125          1           0      -13.950293    2.613733    4.488723
    126          1           0      -12.960658    3.959618    4.029029
    127          1           0      -12.212412    2.602277    4.795215
    128          1           0      -14.733089    1.845928    2.685915
    129          1           0      -13.838076    0.413580    2.080254
    130          1           0      -13.643775    2.497168    0.035850
    131          1           0      -15.179327    2.515765    0.774357
    132          1           0      -15.792414    0.963919   -0.453670
    133          1           0      -14.676625   -0.313409    0.110013
    134          1           0      -14.232328    1.562925   -2.212587
    135          1           0      -15.042688    0.049578   -3.636467
    136          1           0      -15.827514   -0.618327   -2.301905
    137          1           0      -14.217356   -1.245043   -2.924630
    138          1           0      -12.190396   -0.301464   -2.401184
    139          1           0      -12.349717   -0.287697   -0.637309
    140          1           0      -11.951830    1.112190   -1.576768
 ---------------------------------------------------------------------

 SCF Done:  E(RPBE1PBE) =  -3005.35900684     A.U. after   15 cycles

 Excitation energies and oscillator strengths:

 Excited State   1:      Singlet-A      1.7934 eV  691.34 nm  f=0.3443  <S**2>=0.000
     245 -> 248       -0.15360
     246 -> 247        0.69852
     246 <- 247       -0.11961
 This state for optimization and/or second-order correction.
 Total Energy, E(TD-HF/TD-DFT) =  -3005.29310113
 Copying the excited state density for this state as the 1-particle RhoCI density.

 Excited State   2:      Singlet-A      2.1872 eV  566.87 nm  f=0.1565  <S**2>=0.000
     245 -> 247        0.66301
     246 -> 248        0.22866

 Excited State   3:      Singlet-A      2.7476 eV  451.25 nm  f=0.0007  <S**2>=0.000
     243 -> 247        0.68340
     243 -> 249        0.11737

 Excited State   4:      Singlet-A      2.8099 eV  441.25 nm  f=0.0020  <S**2>=0.000
     241 -> 247        0.27661
     242 -> 247        0.62757

 Excited State   5:      Singlet-A      2.9247 eV  423.92 nm  f=0.0021  <S**2>=0.000
     240 -> 247        0.12164
     241 -> 247        0.62850
     242 -> 247       -0.28311

 The electronic state is 1-A.
 Alpha  occ. eigenvalues --  -46.91307 -19.25901 -19.25518 -19.21206 -19.18611
 Alpha  occ. eigenvalues --  -19.18229 -19.18222 -14.41493 -14.41266 -14.39328
 Alpha  occ. eigenvalues --  -14.38477 -10.37367 -10.35188 -10.31196 -10.30870
 Alpha  occ. eigenvalues --  -10.29131 -10.28911 -10.28808 -10.28777 -10.28277
 Alpha  occ. eigenvalues --  -10.28058 -10.27909 -10.27635 -10.27451 -10.26258
 Alpha  occ. eigenvalues --  -10.26151 -10.26143 -10.26023 -10.25998 -10.25568
 Alpha  occ. eigenvalues --  -10.25133 -10.25056 -10.25028 -10.24978 -10.24890
 Alpha  occ. eigenvalues --  -10.24687 -10.24575 -10.24424 -10.24182 -10.24101
 Alpha  occ. eigenvalues --  -10.23886 -10.23884 -10.23698 -10.23648 -10.23505
 Alpha  occ. eigenvalues --  -10.23251 -10.23235 -10.23137 -10.23093 -10.22996
 Alpha  occ. eigenvalues --  -10.22936 -10.22927 -10.22811 -10.22469 -10.22330
 Alpha  occ. eigenvalues --  -10.22315 -10.22314 -10.22244 -10.22148 -10.22056
 Alpha  occ. eigenvalues --  -10.21828 -10.21793 -10.21764 -10.21656 -10.21534
 Alpha  occ. eigenvalues --  -10.21345  -3.13535  -1.86350  -1.85902  -1.85777
 Alpha  occ. eigenvalues --   -1.11631  -1.10648  -1.05299  -1.03445  -1.03252
 Alpha  occ. eigenvalues --   -1.02143  -0.98308  -0.97571  -0.97097  -0.96318
 Alpha  occ. eigenvalues --   -0.86808  -0.85105  -0.84477  -0.84011  -0.83409
 Alpha  occ. eigenvalues --   -0.83062  -0.82429  -0.82032  -0.81411  -0.81313
 Alpha  occ. eigenvalues --   -0.81154  -0.80116  -0.78749  -0.77768  -0.77621
 Alpha  occ. eigenvalues --   -0.76831  -0.76403  -0.75564  -0.75439  -0.74621
 Alpha  occ. eigenvalues --   -0.74227  -0.72885  -0.72477  -0.71300  -0.70698
 Alpha  occ. eigenvalues --   -0.70202  -0.69944  -0.69293  -0.68831  -0.68657
 Alpha  occ. eigenvalues --   -0.67783  -0.67090  -0.65694  -0.64181  -0.63799
 Alpha  occ. eigenvalues --   -0.63088  -0.62115  -0.61703  -0.61193  -0.59832
 Alpha  occ. eigenvalues --   -0.59578  -0.59408  -0.58811  -0.58344  -0.57903
 Alpha  occ. eigenvalues --   -0.57822  -0.56983  -0.56183  -0.56155  -0.54913
 Alpha  occ. eigenvalues --   -0.54623  -0.54236  -0.53894  -0.53102  -0.52602
 Alpha  occ. eigenvalues --   -0.52021  -0.51710  -0.51089  -0.50845  -0.50235
 Alpha  occ. eigenvalues --   -0.49773  -0.49582  -0.49332  -0.49032  -0.48799
 Alpha  occ. eigenvalues --   -0.48401  -0.48209  -0.47820  -0.47412  -0.47241
 Alpha  occ. eigenvalues --   -0.47081  -0.46910  -0.46685  -0.46632  -0.46402
 Alpha  occ. eigenvalues --   -0.46148  -0.45716  -0.45523  -0.45482  -0.45272
 Alpha  occ. eigenvalues --   -0.45122  -0.44932  -0.44776  -0.44434  -0.44219
 Alpha  occ. eigenvalues --   -0.44103  -0.44087  -0.43719  -0.43491  -0.43440
 Alpha  occ. eigenvalues --   -0.43130  -0.43110  -0.42689  -0.42304  -0.42000
 Alpha  occ. eigenvalues --   -0.41842  -0.41730  -0.41619  -0.41348  -0.41055
 Alpha  occ. eigenvalues --   -0.40897  -0.40846  -0.40441  -0.40353  -0.40207
 Alpha  occ. eigenvalues --   -0.40016  -0.39986  -0.39777  -0.39545  -0.39377
 Alpha  occ. eigenvalues --   -0.39355  -0.39068  -0.39015  -0.38869  -0.38381
 Alpha  occ. eigenvalues --   -0.38264  -0.38115  -0.37982  -0.37662  -0.37584
 Alpha  occ. eigenvalues --   -0.37389  -0.37038  -0.36997  -0.36828  -0.36749
 Alpha  occ. eigenvalues --   -0.36573  -0.36409  -0.36299  -0.36054  -0.35815
 Alpha  occ. eigenvalues --   -0.35727  -0.35502  -0.35420  -0.35212  -0.35022
 Alpha  occ. eigenvalues --   -0.34820  -0.34631  -0.34263  -0.34171  -0.33908
 Alpha  occ. eigenvalues --   -0.33791  -0.33459  -0.32917  -0.32509  -0.32245
 Alpha  occ. eigenvalues --   -0.32165  -0.31997  -0.31646  -0.31279  -0.31087
 Alpha  occ. eigenvalues --   -0.30982  -0.30087  -0.29863  -0.29560  -0.29206
 Alpha  occ. eigenvalues --   -0.28729  -0.28289  -0.27923  -0.26890  -0.25707
 Alpha  occ. eigenvalues --   -0.25273  -0.25021  -0.24792  -0.24762  -0.21029
 Alpha  occ. eigenvalues --   -0.18882
 Alpha virt. eigenvalues --   -0.11582  -0.04860  -0.03321  -0.01905  -0.00710
 Alpha virt. eigenvalues --   -0.00299   0.00737   0.01573   0.02003   0.04003
 Alpha virt. eigenvalues --    0.04149   0.04351   0.04968   0.05527   0.05684

 Mulliken charges:
               1
     1  Mg   0.988852
     2  C    0.008737
     3  C   -0.073512
     4  C   -0.040051
     5  C   -0.071761
     6  N   -0.392946
     7  C    0.036505
     8  C   -0.124449
     9  C   -0.145497
    10  C    0.046594
    11  C    0.054942
    12  C    0.002735
    13  C   -0.019934
    14  C    0.257651
    15  O   -0.248984
    16  O   -0.379601
    17  N   -0.492665
    18  C    0.213697
    19  C   -0.134492
    20  C   -0.055925
    21  C    0.138304
    22  C    0.042179
    23  C   -0.011345
    24  O   -0.227295
    25  C   -0.011348
    26  N   -0.403877
    27  C    0.085087
    28  C   -0.129967
    29  C   -0.083850
    30  C    0.105951
    31  C   -0.001787
    32  C   -0.045902
    33  C   -0.063376
    34  N   -0.510143
    35  C    0.132665
    36  C   -0.172127
    37  C   -0.031072
    38  C    0.154173
    39  C    0.066326
    40  C    0.131343
    41  O   -0.233405
    42  C   -0.101992
    43  C    0.257061
    44  O   -0.236100
    45  O   -0.358222
    46  C    0.088850
    47  C    0.287015
    48  C   -0.147419
    49  C   -0.244245
    50  C    0.041118
    51  C    0.020416
    52  C   -0.093091
    53  C   -0.026305
    54  C   -0.191105
    55  C    0.010089
    56  C   -0.013690
    57  C   -0.053569
    58  C    0.020596
    59  C   -0.240458
    60  C   -0.017710
    61  C    0.020235
    62  C   -0.042642
    63  C   -0.042769
    64  C   -0.214716
    65  C   -0.005894
    66  C   -0.039957
    67  H   -0.002660
    68  H    0.032370
    69  H    0.012854
    70  H    0.033117
    71  H    0.026815
    72  H    0.056973
    73  H    0.044820
    74  H    0.049628
    75  H    0.036072
    76  H    0.083899
    77  H    0.056778
    78  H    0.062352
    79  H    0.050295
    80  H    0.023613
    81  H    0.060713
    82  H    0.059667
    83  H    0.052409
    84  H    0.048202
    85  H    0.050895
    86  H    0.035035
    87  H    0.054712
    88  H    0.048805
    89  H    0.036893
    90  H    0.032800
    91  H    0.035741
    92  H    0.061772
    93  H    0.040937
    94  H    0.045710
    95  H    0.068055
    96  H    0.045424
    97  H    0.064382
    98  H    0.075250
    99  H    0.063148
   100  H    0.090965
   101  H    0.067689
   102  H    0.068413
   103  H    0.026369
   104  H    0.018985
   105  H    0.064319
   106  H    0.041374
   107  H    0.047147
   108  H    0.023467
   109  H    0.038272
   110  H    0.050057
   111  H    0.034174
   112  H    0.026810
   113  H    0.028475
   114  H    0.028465
   115  H    0.025445
   116  H    0.023450
   117  H    0.040970
   118  H    0.037172
   119  H    0.020025
   120  H    0.023164
   121  H    0.024002
   122  H    0.021587
   123  H    0.015876
   124  H    0.043912
   125  H    0.030094
   126  H    0.025440
   127  H    0.035952
   128  H    0.018635
   129  H    0.037296
   130  H    0.025752
   131  H    0.025035
   132  H    0.024540
   133  H    0.035020
   134  H    0.029784
   135  H    0.024731
   136  H    0.029534
   137  H    0.032714
   138  H    0.024868
   139  H    0.052864
   140  H    0.033752
 Sum of Mulliken charges =  -0.00000

 Dipole moment (field-independent basis, Debye):
    X=             -3.8310    Y=              2.3999    Z=             -3.4568  Tot=              5.6909
 Quadrupole moment (field-independent basis, Debye-Ang):
   XX=           -353.7931   YY=           -423.7147   ZZ=           -399.1185
   XY=             -2.6710   XZ=              8.4667   YZ=             -3.8568

 Normal termination of Gaussian 16 at Sat Apr 30 09:00:48 2022.
