 Gaussian 16, Revision A.03,
 Gaussian 16:  ES64L-G16RevA.03 25-Dec-2016

 --------------------------------
 #p wB97XD/Def2SVP td=(nstates=5)
 --------------------------------

 ---------------------------------------------------
 step_701_chromophore_1 TDDFT with wB97XD functional
 ---------------------------------------------------
 Symbolic Z-matrix:
 Charge =  0 Multiplicity = 1

                         Standard orientation:
 ---------------------------------------------------------------------
 Center     Atomic      Atomic             Coordinates (Angstroms)
 Number     Number       Type             X           Y           Z
 ---------------------------------------------------------------------
      1         12           0        5.800915    0.460974    0.077124
      2          6           0        3.921743   -2.376868   -0.540907
      3          6           0        3.373849    2.262149   -1.698828
      4          6           0        7.772462    3.217231    0.246570
      5          6           0        8.555571   -1.493699    0.934815
      6          7           0        3.941073   -0.094665   -1.049676
      7          6           0        3.267661   -1.303612   -1.035170
      8          6           0        1.901437   -1.164134   -1.665323
      9          6           0        2.068960    0.161283   -2.484425
     10          6           0        3.079638    0.871619   -1.626083
     11          6           0        2.603421   -0.093858   -3.940050
     12          6           0        0.760008   -1.022862   -0.620081
     13          6           0       -0.531241   -1.621195   -1.012444
     14          6           0       -1.439487   -1.960261    0.171112
     15          8           0       -1.138386   -1.857887    1.364852
     16          8           0       -2.656154   -2.440146   -0.344666
     17          7           0        5.536967    2.447358   -0.504870
     18          6           0        4.424096    3.021969   -1.151514
     19          6           0        4.603017    4.431067   -1.199249
     20          6           0        5.811180    4.756865   -0.548378
     21          6           0        6.445534    3.437338   -0.252940
     22          6           0        3.614526    5.234431   -1.939995
     23          6           0        6.454545    6.020638   -0.269734
     24          8           0        7.532936    6.163171    0.246726
     25          6           0        5.718147    7.290404   -0.675149
     26          7           0        7.848542    0.857097    0.397319
     27          6           0        8.444634    2.065556    0.385888
     28          6           0        9.978549    1.983027    0.843538
     29          6           0       10.102600    0.500819    1.282788
     30          6           0        8.732867   -0.095631    0.881540
     31          6           0       10.949071    2.373736   -0.362011
     32          6           0       10.392466    0.207961    2.788933
     33          6           0        9.420237    0.814582    3.795569
     34          7           0        6.193289   -1.527967    0.183224
     35          6           0        7.390459   -2.194467    0.578529
     36          6           0        7.131943   -3.639941    0.654890
     37          6           0        5.769212   -3.711499    0.270959
     38          6           0        5.273834   -2.469408   -0.017389
     39          6           0        8.039848   -4.699818    1.050944
     40          6           0        4.669057   -4.616237    0.065260
     41          8           0        4.535570   -5.831168    0.209105
     42          6           0        3.483645   -3.819188   -0.499552
     43          6           0        2.224279   -4.053212    0.278416
     44          8           0        1.954564   -3.622294    1.367781
     45          8           0        1.353866   -4.712140   -0.479026
     46          6           0        0.007173   -5.070805    0.080129
     47          6           0       -3.770261   -2.579100    0.536601
     48          6           0       -4.879731   -1.988478   -0.290569
     49          6           0       -6.091377   -2.532554   -0.634350
     50          6           0       -6.784617   -3.802625   -0.171396
     51          6           0       -6.888776   -1.626677   -1.546447
     52          6           0       -7.934089   -0.877522   -0.689159
     53          6           0       -8.176814    0.603632   -1.199438
     54          6           0       -8.626116    1.558871   -0.017027
     55          6           0       -7.403386    2.092166    0.732505
     56          6           0       -9.577300    0.998162    0.985044
     57          6           0      -10.474941    2.063516    1.527584
     58          6           0      -11.436278    1.517917    2.537567
     59          6           0      -12.758909    2.408374    2.576297
     60          6           0      -12.978011    2.870478    4.067777
     61          6           0      -13.934730    1.498031    2.030677
     62          6           0      -14.322650    1.863507    0.605822
     63          6           0      -14.746725    0.688696   -0.311914
     64          6           0      -14.106267    0.592903   -1.731965
     65          6           0      -14.825243   -0.380496   -2.658611
     66          6           0      -12.608076    0.241630   -1.554387
     67          1           0        2.598845    2.732327   -2.308140
     68          1           0        8.395125    4.109625    0.336052
     69          1           0        9.401621   -2.138501    1.182523
     70          1           0        1.702518   -2.053328   -2.263633
     71          1           0        1.142539    0.734247   -2.528345
     72          1           0        3.565618    0.395972   -4.089809
     73          1           0        1.855614    0.353963   -4.594233
     74          1           0        2.701961   -1.171715   -4.064441
     75          1           0        0.502082    0.027886   -0.488823
     76          1           0        1.151998   -1.412422    0.319230
     77          1           0       -0.273199   -2.585382   -1.449648
     78          1           0       -0.945691   -0.944089   -1.759376
     79          1           0        3.017696    5.868369   -1.284870
     80          1           0        2.767689    4.752034   -2.427855
     81          1           0        4.033416    5.803399   -2.770595
     82          1           0        4.862406    7.358727   -0.004022
     83          1           0        5.506787    7.131672   -1.731924
     84          1           0        6.338609    8.172467   -0.515172
     85          1           0       10.252394    2.652715    1.659794
     86          1           0       10.994917    0.165574    0.754036
     87          1           0       10.374920    2.408101   -1.287618
     88          1           0       11.901417    1.845763   -0.302999
     89          1           0       11.233542    3.424459   -0.302992
     90          1           0       11.380499    0.610750    3.011568
     91          1           0       10.483285   -0.874697    2.872211
     92          1           0        8.517811    1.188142    3.312030
     93          1           0        9.892704    1.633078    4.336706
     94          1           0        9.232185    0.033116    4.532083
     95          1           0        7.365170   -5.309661    1.653491
     96          1           0        8.944664   -4.458550    1.608203
     97          1           0        8.267307   -5.317874    0.183206
     98          1           0        3.262405   -4.097193   -1.529674
     99          1           0       -0.805035   -4.908987   -0.628326
    100          1           0       -0.239412   -4.518139    0.986015
    101          1           0        0.013221   -6.137952    0.305585
    102          1           0       -3.706952   -2.073198    1.499740
    103          1           0       -4.043765   -3.629174    0.642204
    104          1           0       -4.678553   -0.993308   -0.686573
    105          1           0       -7.566313   -3.504312    0.527496
    106          1           0       -6.096937   -4.522740    0.270190
    107          1           0       -7.213469   -4.227194   -1.079853
    108          1           0       -7.478469   -2.188110   -2.271145
    109          1           0       -6.262520   -0.983168   -2.164453
    110          1           0       -7.655322   -0.900147    0.364163
    111          1           0       -8.920471   -1.339391   -0.732017
    112          1           0       -9.005866    0.561378   -1.906568
    113          1           0       -7.285511    0.868211   -1.767819
    114          1           0       -9.109639    2.362585   -0.571771
    115          1           0       -6.575041    1.504616    0.337315
    116          1           0       -7.432361    1.833301    1.790504
    117          1           0       -7.217857    3.164230    0.667410
    118          1           0       -9.279432    0.536916    1.926826
    119          1           0      -10.189461    0.334656    0.374497
    120          1           0      -10.960786    2.659628    0.754735
    121          1           0       -9.950363    2.781451    2.158525
    122          1           0      -10.906686    1.469571    3.489821
    123          1           0      -11.793465    0.496284    2.410195
    124          1           0      -12.723005    3.316065    1.974253
    125          1           0      -13.950293    2.613733    4.488723
    126          1           0      -12.960658    3.959618    4.029029
    127          1           0      -12.212412    2.602277    4.795215
    128          1           0      -14.733089    1.845928    2.685915
    129          1           0      -13.838076    0.413580    2.080254
    130          1           0      -13.643775    2.497168    0.035850
    131          1           0      -15.179327    2.515765    0.774357
    132          1           0      -15.792414    0.963919   -0.453670
    133          1           0      -14.676625   -0.313409    0.110013
    134          1           0      -14.232328    1.562925   -2.212587
    135          1           0      -15.042688    0.049578   -3.636467
    136          1           0      -15.827514   -0.618327   -2.301905
    137          1           0      -14.217356   -1.245043   -2.924630
    138          1           0      -12.190396   -0.301464   -2.401184
    139          1           0      -12.349717   -0.287697   -0.637309
    140          1           0      -11.951830    1.112190   -1.576768
 ---------------------------------------------------------------------

 SCF Done:  E(RwB97XD) =  -3007.87087855     A.U. after   20 cycles

 Excitation energies and oscillator strengths:

 Excited State   1:      Singlet-A      1.5747 eV  787.33 nm  f=0.3636  <S**2>=0.000
     245 -> 248       -0.16845
     246 -> 247        0.68776
     245 <- 248       -0.11577
 This state for optimization and/or second-order correction.
 Total Energy, E(TD-HF/TD-DFT) =  -3007.81300812
 Copying the excited state density for this state as the 1-particle RhoCI density.

 Excited State   2:      Singlet-A      2.1167 eV  585.75 nm  f=0.1599  <S**2>=0.000
     245 -> 247        0.65300
     246 -> 248        0.25383

 Excited State   3:      Singlet-A      3.2380 eV  382.91 nm  f=0.0023  <S**2>=0.000
     240 -> 247       -0.19326
     242 -> 247        0.19092
     243 -> 247        0.63357

 Excited State   4:      Singlet-A      3.3669 eV  368.24 nm  f=0.0012  <S**2>=0.000
     242 -> 247        0.58192
     242 -> 249        0.20459
     242 -> 250        0.11245
     243 -> 247       -0.20004
     246 -> 248        0.10777

 Excited State   5:      Singlet-A      3.4604 eV  358.29 nm  f=0.0003  <S**2>=0.000
     240 -> 247        0.40763
     240 -> 249        0.10287
     241 -> 247        0.42964
     241 -> 249       -0.18698
     241 -> 250        0.17412
     242 -> 249        0.12201

 The electronic state is 1-A.
 Alpha  occ. eigenvalues --  -46.94238 -19.30429 -19.30077 -19.25873 -19.23306
 Alpha  occ. eigenvalues --  -19.23141 -19.22964 -14.46533 -14.46399 -14.44329
 Alpha  occ. eigenvalues --  -14.43323 -10.44178 -10.42004 -10.37994 -10.37822
 Alpha  occ. eigenvalues --  -10.35625 -10.35463 -10.35183 -10.34934 -10.34748
 Alpha  occ. eigenvalues --  -10.34317 -10.34272 -10.34136 -10.33576 -10.32839
 Alpha  occ. eigenvalues --  -10.32455 -10.32420 -10.32311 -10.32259 -10.31786
 Alpha  occ. eigenvalues --  -10.31642 -10.31431 -10.31356 -10.31348 -10.31045
 Alpha  occ. eigenvalues --  -10.31015 -10.30953 -10.30946 -10.30813 -10.30559
 Alpha  occ. eigenvalues --  -10.30297 -10.30135 -10.29989 -10.29894 -10.29827
 Alpha  occ. eigenvalues --  -10.29617 -10.29597 -10.29462 -10.29432 -10.29358
 Alpha  occ. eigenvalues --  -10.29339 -10.29274 -10.29180 -10.29019 -10.28690
 Alpha  occ. eigenvalues --  -10.28674 -10.28668 -10.28592 -10.28526 -10.28505
 Alpha  occ. eigenvalues --  -10.28228 -10.28191 -10.28153 -10.28067 -10.27941
 Alpha  occ. eigenvalues --  -10.27794  -3.20321  -1.93885  -1.93441  -1.93310
 Alpha  occ. eigenvalues --   -1.19006  -1.18026  -1.12874  -1.10867  -1.10597
 Alpha  occ. eigenvalues --   -1.09488  -1.05652  -1.04944  -1.04533  -1.03747
 Alpha  occ. eigenvalues --   -0.94373  -0.92777  -0.92129  -0.91670  -0.91050
 Alpha  occ. eigenvalues --   -0.90728  -0.90056  -0.89650  -0.89074  -0.88895
 Alpha  occ. eigenvalues --   -0.88770  -0.87764  -0.86412  -0.85394  -0.85249
 Alpha  occ. eigenvalues --   -0.84476  -0.84058  -0.83231  -0.83082  -0.82317
 Alpha  occ. eigenvalues --   -0.81894  -0.80573  -0.80201  -0.78875  -0.78313
 Alpha  occ. eigenvalues --   -0.77871  -0.77643  -0.76883  -0.76503  -0.76329
 Alpha  occ. eigenvalues --   -0.75315  -0.74688  -0.73251  -0.71816  -0.71354
 Alpha  occ. eigenvalues --   -0.70660  -0.69740  -0.69219  -0.68860  -0.67372
 Alpha  occ. eigenvalues --   -0.67236  -0.66853  -0.66211  -0.66031  -0.65383
 Alpha  occ. eigenvalues --   -0.65285  -0.64628  -0.63766  -0.63586  -0.62422
 Alpha  occ. eigenvalues --   -0.62129  -0.61764  -0.61278  -0.60447  -0.60027
 Alpha  occ. eigenvalues --   -0.59508  -0.59164  -0.58456  -0.58341  -0.57657
 Alpha  occ. eigenvalues --   -0.57163  -0.57115  -0.56770  -0.56455  -0.56238
 Alpha  occ. eigenvalues --   -0.55841  -0.55579  -0.55270  -0.55107  -0.54592
 Alpha  occ. eigenvalues --   -0.54452  -0.54303  -0.54078  -0.54017  -0.53656
 Alpha  occ. eigenvalues --   -0.53480  -0.53078  -0.52904  -0.52838  -0.52602
 Alpha  occ. eigenvalues --   -0.52362  -0.52322  -0.52175  -0.51778  -0.51540
 Alpha  occ. eigenvalues --   -0.51445  -0.51389  -0.51020  -0.50793  -0.50734
 Alpha  occ. eigenvalues --   -0.50430  -0.50340  -0.49947  -0.49656  -0.49273
 Alpha  occ. eigenvalues --   -0.49195  -0.49004  -0.48899  -0.48592  -0.48274
 Alpha  occ. eigenvalues --   -0.48111  -0.48000  -0.47678  -0.47571  -0.47411
 Alpha  occ. eigenvalues --   -0.47203  -0.47189  -0.46911  -0.46671  -0.46633
 Alpha  occ. eigenvalues --   -0.46493  -0.46172  -0.46141  -0.45975  -0.45564
 Alpha  occ. eigenvalues --   -0.45402  -0.45275  -0.45120  -0.44821  -0.44719
 Alpha  occ. eigenvalues --   -0.44605  -0.44309  -0.44097  -0.43951  -0.43893
 Alpha  occ. eigenvalues --   -0.43693  -0.43542  -0.43341  -0.43145  -0.42945
 Alpha  occ. eigenvalues --   -0.42802  -0.42510  -0.42483  -0.42318  -0.42075
 Alpha  occ. eigenvalues --   -0.41892  -0.41655  -0.41260  -0.41201  -0.40896
 Alpha  occ. eigenvalues --   -0.40757  -0.40538  -0.39942  -0.39444  -0.39322
 Alpha  occ. eigenvalues --   -0.39167  -0.38920  -0.38626  -0.38292  -0.38125
 Alpha  occ. eigenvalues --   -0.37966  -0.37074  -0.36893  -0.36382  -0.36133
 Alpha  occ. eigenvalues --   -0.35565  -0.35166  -0.34836  -0.33503  -0.32387
 Alpha  occ. eigenvalues --   -0.32268  -0.32002  -0.31526  -0.31454  -0.26018
 Alpha  occ. eigenvalues --   -0.23065
 Alpha virt. eigenvalues --   -0.07561   0.00652   0.02877   0.04633   0.05620
 Alpha virt. eigenvalues --    0.06125   0.07491   0.08332   0.08830   0.10560
 Alpha virt. eigenvalues --    0.10770   0.10849   0.11651   0.12301   0.12337

 Mulliken charges:
               1
     1  Mg   0.976788
     2  C    0.014596
     3  C   -0.084479
     4  C   -0.058081
     5  C   -0.091755
     6  N   -0.365415
     7  C   -0.002291
     8  C   -0.091113
     9  C   -0.115553
    10  C    0.032005
    11  C    0.061485
    12  C    0.011143
    13  C    0.006509
    14  C    0.240197
    15  O   -0.243657
    16  O   -0.377851
    17  N   -0.461972
    18  C    0.206265
    19  C   -0.118429
    20  C   -0.049765
    21  C    0.127729
    22  C    0.047920
    23  C   -0.014027
    24  O   -0.220639
    25  C    0.002817
    26  N   -0.370123
    27  C    0.075320
    28  C   -0.110787
    29  C   -0.058417
    30  C    0.095847
    31  C    0.008243
    32  C   -0.031351
    33  C   -0.045808
    34  N   -0.472977
    35  C    0.123670
    36  C   -0.167355
    37  C   -0.022895
    38  C    0.130389
    39  C    0.074748
    40  C    0.110688
    41  O   -0.223964
    42  C   -0.059989
    43  C    0.225231
    44  O   -0.227926
    45  O   -0.353976
    46  C    0.103716
    47  C    0.300768
    48  C   -0.158632
    49  C   -0.224472
    50  C    0.054743
    51  C    0.039174
    52  C   -0.078327
    53  C   -0.004324
    54  C   -0.165315
    55  C    0.019748
    56  C    0.021562
    57  C   -0.036115
    58  C    0.033886
    59  C   -0.213307
    60  C   -0.005217
    61  C    0.038668
    62  C   -0.029029
    63  C   -0.027083
    64  C   -0.183385
    65  C    0.003524
    66  C   -0.024232
    67  H   -0.010583
    68  H    0.028203
    69  H    0.006626
    70  H    0.020089
    71  H    0.017183
    72  H    0.051160
    73  H    0.040095
    74  H    0.044113
    75  H    0.026955
    76  H    0.072970
    77  H    0.042871
    78  H    0.057432
    79  H    0.046209
    80  H    0.020880
    81  H    0.057116
    82  H    0.054597
    83  H    0.044736
    84  H    0.047534
    85  H    0.042318
    86  H    0.024796
    87  H    0.048607
    88  H    0.043575
    89  H    0.030923
    90  H    0.024743
    91  H    0.027023
    92  H    0.050669
    93  H    0.035547
    94  H    0.040818
    95  H    0.062398
    96  H    0.041418
    97  H    0.059280
    98  H    0.068007
    99  H    0.060068
   100  H    0.086373
   101  H    0.065440
   102  H    0.065176
   103  H    0.019093
   104  H    0.013662
   105  H    0.058999
   106  H    0.036279
   107  H    0.041199
   108  H    0.015753
   109  H    0.030431
   110  H    0.035446
   111  H    0.025406
   112  H    0.017387
   113  H    0.018624
   114  H    0.017814
   115  H    0.016473
   116  H    0.016764
   117  H    0.037008
   118  H    0.027546
   119  H   -0.005536
   120  H    0.010483
   121  H    0.014244
   122  H    0.012711
   123  H    0.004884
   124  H    0.032515
   125  H    0.024044
   126  H    0.019415
   127  H    0.029982
   128  H    0.008338
   129  H    0.027657
   130  H    0.014267
   131  H    0.018019
   132  H    0.015836
   133  H    0.025761
   134  H    0.019993
   135  H    0.019264
   136  H    0.024090
   137  H    0.026953
   138  H    0.018963
   139  H    0.043343
   140  H    0.024186
 Sum of Mulliken charges =  -0.00000

 Dipole moment (field-independent basis, Debye):
    X=             -3.9786    Y=              2.7690    Z=             -3.5616  Tot=              6.0151
 Quadrupole moment (field-independent basis, Debye-Ang):
   XX=           -356.4789   YY=           -421.5042   ZZ=           -398.8139
   XY=             -0.3722   XZ=              7.6797   YZ=             -4.0385

 Normal termination of Gaussian 16 at Sat Apr 30 09:34:51 2022.
