 Gaussian 16, Revision A.03,
 Gaussian 16:  ES64L-G16RevA.03 25-Dec-2016

 --------------------
 #p ZINDO=(nstates=5)
 --------------------

 ----------------------------
 step_701_chromophore_1 ZINDO
 ----------------------------
 Symbolic Z-matrix:
 Charge =  0 Multiplicity = 1

                         Standard orientation:
 ---------------------------------------------------------------------
 Center     Atomic      Atomic             Coordinates (Angstroms)
 Number     Number       Type             X           Y           Z
 ---------------------------------------------------------------------
      1         12           0        5.800915    0.460974    0.077124
      2          6           0        3.921743   -2.376868   -0.540907
      3          6           0        3.373849    2.262149   -1.698828
      4          6           0        7.772462    3.217231    0.246570
      5          6           0        8.555571   -1.493699    0.934815
      6          7           0        3.941073   -0.094665   -1.049676
      7          6           0        3.267661   -1.303612   -1.035170
      8          6           0        1.901437   -1.164134   -1.665323
      9          6           0        2.068960    0.161283   -2.484425
     10          6           0        3.079638    0.871619   -1.626083
     11          6           0        2.603421   -0.093858   -3.940050
     12          6           0        0.760008   -1.022862   -0.620081
     13          6           0       -0.531241   -1.621195   -1.012444
     14          6           0       -1.439487   -1.960261    0.171112
     15          8           0       -1.138386   -1.857887    1.364852
     16          8           0       -2.656154   -2.440146   -0.344666
     17          7           0        5.536967    2.447358   -0.504870
     18          6           0        4.424096    3.021969   -1.151514
     19          6           0        4.603017    4.431067   -1.199249
     20          6           0        5.811180    4.756865   -0.548378
     21          6           0        6.445534    3.437338   -0.252940
     22          6           0        3.614526    5.234431   -1.939995
     23          6           0        6.454545    6.020638   -0.269734
     24          8           0        7.532936    6.163171    0.246726
     25          6           0        5.718147    7.290404   -0.675149
     26          7           0        7.848542    0.857097    0.397319
     27          6           0        8.444634    2.065556    0.385888
     28          6           0        9.978549    1.983027    0.843538
     29          6           0       10.102600    0.500819    1.282788
     30          6           0        8.732867   -0.095631    0.881540
     31          6           0       10.949071    2.373736   -0.362011
     32          6           0       10.392466    0.207961    2.788933
     33          6           0        9.420237    0.814582    3.795569
     34          7           0        6.193289   -1.527967    0.183224
     35          6           0        7.390459   -2.194467    0.578529
     36          6           0        7.131943   -3.639941    0.654890
     37          6           0        5.769212   -3.711499    0.270959
     38          6           0        5.273834   -2.469408   -0.017389
     39          6           0        8.039848   -4.699818    1.050944
     40          6           0        4.669057   -4.616237    0.065260
     41          8           0        4.535570   -5.831168    0.209105
     42          6           0        3.483645   -3.819188   -0.499552
     43          6           0        2.224279   -4.053212    0.278416
     44          8           0        1.954564   -3.622294    1.367781
     45          8           0        1.353866   -4.712140   -0.479026
     46          6           0        0.007173   -5.070805    0.080129
     47          6           0       -3.770261   -2.579100    0.536601
     48          6           0       -4.879731   -1.988478   -0.290569
     49          6           0       -6.091377   -2.532554   -0.634350
     50          6           0       -6.784617   -3.802625   -0.171396
     51          6           0       -6.888776   -1.626677   -1.546447
     52          6           0       -7.934089   -0.877522   -0.689159
     53          6           0       -8.176814    0.603632   -1.199438
     54          6           0       -8.626116    1.558871   -0.017027
     55          6           0       -7.403386    2.092166    0.732505
     56          6           0       -9.577300    0.998162    0.985044
     57          6           0      -10.474941    2.063516    1.527584
     58          6           0      -11.436278    1.517917    2.537567
     59          6           0      -12.758909    2.408374    2.576297
     60          6           0      -12.978011    2.870478    4.067777
     61          6           0      -13.934730    1.498031    2.030677
     62          6           0      -14.322650    1.863507    0.605822
     63          6           0      -14.746725    0.688696   -0.311914
     64          6           0      -14.106267    0.592903   -1.731965
     65          6           0      -14.825243   -0.380496   -2.658611
     66          6           0      -12.608076    0.241630   -1.554387
     67          1           0        2.598845    2.732327   -2.308140
     68          1           0        8.395125    4.109625    0.336052
     69          1           0        9.401621   -2.138501    1.182523
     70          1           0        1.702518   -2.053328   -2.263633
     71          1           0        1.142539    0.734247   -2.528345
     72          1           0        3.565618    0.395972   -4.089809
     73          1           0        1.855614    0.353963   -4.594233
     74          1           0        2.701961   -1.171715   -4.064441
     75          1           0        0.502082    0.027886   -0.488823
     76          1           0        1.151998   -1.412422    0.319230
     77          1           0       -0.273199   -2.585382   -1.449648
     78          1           0       -0.945691   -0.944089   -1.759376
     79          1           0        3.017696    5.868369   -1.284870
     80          1           0        2.767689    4.752034   -2.427855
     81          1           0        4.033416    5.803399   -2.770595
     82          1           0        4.862406    7.358727   -0.004022
     83          1           0        5.506787    7.131672   -1.731924
     84          1           0        6.338609    8.172467   -0.515172
     85          1           0       10.252394    2.652715    1.659794
     86          1           0       10.994917    0.165574    0.754036
     87          1           0       10.374920    2.408101   -1.287618
     88          1           0       11.901417    1.845763   -0.302999
     89          1           0       11.233542    3.424459   -0.302992
     90          1           0       11.380499    0.610750    3.011568
     91          1           0       10.483285   -0.874697    2.872211
     92          1           0        8.517811    1.188142    3.312030
     93          1           0        9.892704    1.633078    4.336706
     94          1           0        9.232185    0.033116    4.532083
     95          1           0        7.365170   -5.309661    1.653491
     96          1           0        8.944664   -4.458550    1.608203
     97          1           0        8.267307   -5.317874    0.183206
     98          1           0        3.262405   -4.097193   -1.529674
     99          1           0       -0.805035   -4.908987   -0.628326
    100          1           0       -0.239412   -4.518139    0.986015
    101          1           0        0.013221   -6.137952    0.305585
    102          1           0       -3.706952   -2.073198    1.499740
    103          1           0       -4.043765   -3.629174    0.642204
    104          1           0       -4.678553   -0.993308   -0.686573
    105          1           0       -7.566313   -3.504312    0.527496
    106          1           0       -6.096937   -4.522740    0.270190
    107          1           0       -7.213469   -4.227194   -1.079853
    108          1           0       -7.478469   -2.188110   -2.271145
    109          1           0       -6.262520   -0.983168   -2.164453
    110          1           0       -7.655322   -0.900147    0.364163
    111          1           0       -8.920471   -1.339391   -0.732017
    112          1           0       -9.005866    0.561378   -1.906568
    113          1           0       -7.285511    0.868211   -1.767819
    114          1           0       -9.109639    2.362585   -0.571771
    115          1           0       -6.575041    1.504616    0.337315
    116          1           0       -7.432361    1.833301    1.790504
    117          1           0       -7.217857    3.164230    0.667410
    118          1           0       -9.279432    0.536916    1.926826
    119          1           0      -10.189461    0.334656    0.374497
    120          1           0      -10.960786    2.659628    0.754735
    121          1           0       -9.950363    2.781451    2.158525
    122          1           0      -10.906686    1.469571    3.489821
    123          1           0      -11.793465    0.496284    2.410195
    124          1           0      -12.723005    3.316065    1.974253
    125          1           0      -13.950293    2.613733    4.488723
    126          1           0      -12.960658    3.959618    4.029029
    127          1           0      -12.212412    2.602277    4.795215
    128          1           0      -14.733089    1.845928    2.685915
    129          1           0      -13.838076    0.413580    2.080254
    130          1           0      -13.643775    2.497168    0.035850
    131          1           0      -15.179327    2.515765    0.774357
    132          1           0      -15.792414    0.963919   -0.453670
    133          1           0      -14.676625   -0.313409    0.110013
    134          1           0      -14.232328    1.562925   -2.212587
    135          1           0      -15.042688    0.049578   -3.636467
    136          1           0      -15.827514   -0.618327   -2.301905
    137          1           0      -14.217356   -1.245043   -2.924630
    138          1           0      -12.190396   -0.301464   -2.401184
    139          1           0      -12.349717   -0.287697   -0.637309
    140          1           0      -11.951830    1.112190   -1.576768
 ---------------------------------------------------------------------

 SCF Done:  E(RZINDO/S) =  -474.548045065     A.U. after   19 cycles

 Excitation energies and oscillator strengths:

 Excited State   1:      Singlet-A      1.2012 eV 1032.15 nm  f=0.6235  <S**2>=0.000
     175 ->178         0.18014
     176 ->177         0.66597
 This state for optimization and/or second-order correction.
 Total Energy, E(CIS/TDA) =  -474.503900952
 Copying the excited state density for this state as the 1-particle RhoCI density.

 Excited State   2:      Singlet-A      1.9231 eV  644.70 nm  f=0.0897  <S**2>=0.000
     175 ->177         0.57807
     176 ->178        -0.37987

 Excited State   3:      Singlet-A      2.8372 eV  437.00 nm  f=0.0016  <S**2>=0.000
     168 ->177         0.13490
     168 ->179         0.14433
     169 ->177         0.30260
     169 ->178         0.12006
     169 ->179         0.33482
     169 ->180        -0.22903
     169 ->186         0.18463
     169 ->187         0.12566
     169 ->195        -0.10488
     171 ->177        -0.17152
     171 ->179        -0.13015

 Excited State   4:      Singlet-A      2.9735 eV  416.96 nm  f=0.0007  <S**2>=0.000
     170 ->177         0.32633
     170 ->179        -0.31485
     170 ->180        -0.38696
     170 ->186        -0.17816
     170 ->187         0.15136
     173 ->177         0.11464

 Excited State   5:      Singlet-A      3.0368 eV  408.27 nm  f=0.9675  <S**2>=0.000
     175 ->177         0.32978
     176 ->178         0.53288
     176 ->179         0.24620

 The electronic state is 1-A.
 Alpha  occ. eigenvalues --   -1.84691  -1.80327  -1.79727  -1.73366  -1.72111
 Alpha  occ. eigenvalues --   -1.70471  -1.67377  -1.61080  -1.60793  -1.58549
 Alpha  occ. eigenvalues --   -1.55913  -1.52937  -1.50289  -1.47556  -1.47240
 Alpha  occ. eigenvalues --   -1.43794  -1.42725  -1.40490  -1.39443  -1.38003
 Alpha  occ. eigenvalues --   -1.35665  -1.34443  -1.32423  -1.31867  -1.29477
 Alpha  occ. eigenvalues --   -1.27544  -1.25040  -1.22504  -1.21413  -1.19136
 Alpha  occ. eigenvalues --   -1.17396  -1.16458  -1.15268  -1.14356  -1.12732
 Alpha  occ. eigenvalues --   -1.12595  -1.11831  -1.11176  -1.05758  -1.04220
 Alpha  occ. eigenvalues --   -1.02741  -1.01799  -0.98599  -0.98513  -0.97694
 Alpha  occ. eigenvalues --   -0.96612  -0.94116  -0.93484  -0.92597  -0.91896
 Alpha  occ. eigenvalues --   -0.89915  -0.89634  -0.88121  -0.87921  -0.85054
 Alpha  occ. eigenvalues --   -0.84299  -0.84167  -0.82813  -0.82003  -0.80353
 Alpha  occ. eigenvalues --   -0.79192  -0.78862  -0.77830  -0.76484  -0.76337
 Alpha  occ. eigenvalues --   -0.75901  -0.75355  -0.75087  -0.74376  -0.74105
 Alpha  occ. eigenvalues --   -0.73889  -0.72882  -0.72721  -0.72563  -0.71153
 Alpha  occ. eigenvalues --   -0.70763  -0.70195  -0.69249  -0.68282  -0.67979
 Alpha  occ. eigenvalues --   -0.67641  -0.67233  -0.66758  -0.66516  -0.66361
 Alpha  occ. eigenvalues --   -0.64791  -0.64666  -0.63963  -0.63389  -0.62982
 Alpha  occ. eigenvalues --   -0.62503  -0.62410  -0.62319  -0.62168  -0.61901
 Alpha  occ. eigenvalues --   -0.61091  -0.60914  -0.60487  -0.60275  -0.59732
 Alpha  occ. eigenvalues --   -0.59170  -0.58853  -0.58354  -0.58206  -0.57556
 Alpha  occ. eigenvalues --   -0.57193  -0.57004  -0.56971  -0.56491  -0.56148
 Alpha  occ. eigenvalues --   -0.55893  -0.55539  -0.54792  -0.54634  -0.54612
 Alpha  occ. eigenvalues --   -0.54225  -0.53472  -0.52639  -0.52555  -0.52308
 Alpha  occ. eigenvalues --   -0.52140  -0.51817  -0.51675  -0.51656  -0.51430
 Alpha  occ. eigenvalues --   -0.50843  -0.50363  -0.50134  -0.49897  -0.49751
 Alpha  occ. eigenvalues --   -0.49550  -0.49444  -0.49260  -0.48952  -0.48898
 Alpha  occ. eigenvalues --   -0.48471  -0.48275  -0.48232  -0.48167  -0.47729
 Alpha  occ. eigenvalues --   -0.47470  -0.47205  -0.47075  -0.46664  -0.46503
 Alpha  occ. eigenvalues --   -0.46003  -0.45709  -0.45590  -0.45367  -0.45039
 Alpha  occ. eigenvalues --   -0.44831  -0.44732  -0.44537  -0.44216  -0.44167
 Alpha  occ. eigenvalues --   -0.43711  -0.42796  -0.42644  -0.42180  -0.41596
 Alpha  occ. eigenvalues --   -0.41239  -0.40601  -0.40009  -0.39152  -0.38889
 Alpha  occ. eigenvalues --   -0.37376  -0.37011  -0.34745  -0.34647  -0.34309
 Alpha  occ. eigenvalues --   -0.33390  -0.32421  -0.32064  -0.31195  -0.26760
 Alpha  occ. eigenvalues --   -0.21797
 Alpha virt. eigenvalues --   -0.08967  -0.01590  -0.00097   0.01528   0.01761
 Alpha virt. eigenvalues --    0.01799   0.02579   0.03979   0.04762   0.05603
 Alpha virt. eigenvalues --    0.06733   0.07468   0.08001   0.08274   0.08604

 Mulliken charges:
               1
     1  Mg   0.429649
     2  C   -0.043279
     3  C   -0.075164
     4  C   -0.058153
     5  C   -0.052153
     6  N   -0.315107
     7  C    0.130434
     8  C    0.006201
     9  C    0.008783
    10  C    0.131178
    11  C   -0.049655
    12  C   -0.024729
    13  C    0.009624
    14  C    0.462218
    15  O   -0.497367
    16  O   -0.274244
    17  N   -0.328598
    18  C    0.111770
    19  C    0.033987
    20  C   -0.042978
    21  C    0.146619
    22  C   -0.043735
    23  C    0.330715
    24  O   -0.524536
    25  C   -0.038117
    26  N   -0.263970
    27  C    0.147102
    28  C   -0.007599
    29  C   -0.004865
    30  C    0.111939
    31  C   -0.062733
    32  C   -0.027190
    33  C   -0.052833
    34  N   -0.328301
    35  C    0.063336
    36  C    0.042016
    37  C   -0.055082
    38  C    0.134195
    39  C   -0.032713
    40  C    0.332496
    41  O   -0.537680
    42  C    0.052272
    43  C    0.497499
    44  O   -0.521257
    45  O   -0.271948
    46  C    0.070054
    47  C    0.107257
    48  C   -0.102632
    49  C   -0.013189
    50  C   -0.036040
    51  C   -0.022526
    52  C   -0.036934
    53  C   -0.046478
    54  C   -0.003579
    55  C   -0.060208
    56  C   -0.025626
    57  C   -0.032670
    58  C   -0.039096
    59  C   -0.021397
    60  C   -0.066725
    61  C   -0.037977
    62  C   -0.037836
    63  C   -0.038661
    64  C   -0.003329
    65  C   -0.057709
    66  C   -0.058065
    67  H    0.021715
    68  H    0.043731
    69  H    0.031602
    70  H    0.024362
    71  H    0.021375
    72  H    0.030790
    73  H    0.021106
    74  H    0.028015
    75  H    0.018237
    76  H    0.048161
    77  H    0.042371
    78  H    0.042891
    79  H    0.027249
    80  H    0.019870
    81  H    0.028837
    82  H    0.039590
    83  H    0.037047
    84  H    0.036551
    85  H    0.035540
    86  H    0.027810
    87  H    0.031888
    88  H    0.030697
    89  H    0.012104
    90  H    0.009981
    91  H    0.019956
    92  H    0.030900
    93  H    0.018558
    94  H    0.019473
    95  H    0.036822
    96  H    0.031345
    97  H    0.037343
    98  H    0.047553
    99  H    0.031627
   100  H    0.060126
   101  H    0.039036
   102  H    0.061410
   103  H    0.039763
   104  H    0.028272
   105  H    0.036913
   106  H    0.026588
   107  H    0.026575
   108  H    0.011370
   109  H    0.026839
   110  H    0.023513
   111  H    0.016481
   112  H    0.010188
   113  H    0.026093
   114  H    0.016216
   115  H    0.015980
   116  H    0.015222
   117  H    0.022497
   118  H    0.035965
   119  H    0.010803
   120  H    0.018442
   121  H    0.013690
   122  H    0.015744
   123  H    0.016791
   124  H    0.033237
   125  H    0.019451
   126  H    0.007661
   127  H    0.023097
   128  H    0.014477
   129  H    0.032622
   130  H    0.022546
   131  H    0.010607
   132  H    0.007917
   133  H    0.026027
   134  H    0.020313
   135  H    0.009283
   136  H    0.019521
   137  H    0.022332
   138  H    0.011613
   139  H    0.024223
   140  H    0.010778
 Sum of Mulliken charges =   0.00000

 Dipole moment (field-independent basis, Debye):
    X=             -4.4561    Y=              4.5318    Z=             -6.6264  Tot=              9.1817
 N-N= 4.303415720160D+03 E-N= 0.000000000000D+00  KE=-9.281952280161D+03
 Leave Link  601 at Sat Apr 30 09:50:10 2022, MaxMem=  6710886400 cpu:               0.7 elap:               0.0
 (Enter /sw/apps/gaussian-16.0/g16/l9999.exe)
 1\1\GINC-BP1-COMPUTE142\SP\RZINDO CIS\STO-3G\C55H74Mg1N4O6\OF15641\30-
 Apr-2022\0\\#p ZINDO=(nstates=5)\\step_701_chromophore_1 ZINDO\\0,1\Mg
 ,0,-1.524,17.532,27.015\C,0,-2.294,15.372,29.605\C,0,-2.526,20.154,29.
 115\C,0,-1.219,19.687,24.412\C,0,-1.495,14.882,24.752\N,0,-2.398,17.64
 8,29.079\C,0,-2.478,16.642,30.026\C,0,-2.834,17.208,31.381\C,0,-3.429,
 18.604,30.99\C,0,-2.645,18.879,29.736\C,0,-4.976,18.545,30.72\C,0,-1.6
 02,17.378,32.313\C,0,-1.867,17.175,33.751\C,0,-0.623,16.807,34.562\O,0

 Normal termination of Gaussian 16 at Sat Apr 30 09:50:10 2022.
