 Gaussian 16, Revision A.03,
 Gaussian 16:  ES64L-G16RevA.03 25-Dec-2016

 ------------------------------
 #p blyp/Def2SVP td=(nstates=5)
 ------------------------------

 -------------------------------------------------
 step_151_chromophore_8 TDDFT with blyp functional
 -------------------------------------------------
 Symbolic Z-matrix:
 Charge =  0 Multiplicity = 1

                         Standard orientation:
 ---------------------------------------------------------------------
 Center     Atomic      Atomic             Coordinates (Angstroms)
 Number     Number       Type             X           Y           Z
 ---------------------------------------------------------------------
      1         12           0       -4.920718   -0.899946    0.006520
      2          6           0       -3.891832    2.308977    0.946461
      3          6           0       -4.094111   -0.236197   -3.227715
      4          6           0       -5.732025   -4.097222   -0.707787
      5          6           0       -5.344161   -1.666620    3.559802
      6          7           0       -4.120006    0.825131   -1.018225
      7          6           0       -3.746741    2.042626   -0.424159
      8          6           0       -3.143976    3.038282   -1.515806
      9          6           0       -3.561169    2.287253   -2.833575
     10          6           0       -3.992077    0.897832   -2.390360
     11          6           0       -4.596471    3.072679   -3.627847
     12          6           0       -1.667343    3.292752   -1.389368
     13          6           0       -1.321932    4.796035   -1.396465
     14          6           0        0.103815    5.115555   -1.849362
     15          8           0        0.459082    5.980462   -2.656611
     16          8           0        0.966550    4.353753   -1.173003
     17          7           0       -4.816811   -2.068916   -1.749484
     18          6           0       -4.417334   -1.607310   -3.009457
     19          6           0       -4.486288   -2.687604   -3.947769
     20          6           0       -5.100071   -3.788944   -3.299918
     21          6           0       -5.256051   -3.355564   -1.881110
     22          6           0       -3.766673   -2.648272   -5.305512
     23          6           0       -5.316863   -5.208257   -3.809022
     24          8           0       -5.057109   -5.403926   -5.025794
     25          6           0       -5.811643   -6.461878   -2.976124
     26          7           0       -5.168488   -2.659340    1.290310
     27          6           0       -5.716760   -3.760843    0.670772
     28          6           0       -6.279794   -4.673993    1.697211
     29          6           0       -6.058350   -4.017864    3.056078
     30          6           0       -5.455154   -2.681129    2.633122
     31          6           0       -7.799059   -5.119380    1.557895
     32          6           0       -5.179275   -4.809371    4.070496
     33          6           0       -3.672949   -4.708226    4.025459
     34          7           0       -4.652908    0.068702    1.899841
     35          6           0       -4.818518   -0.350115    3.218578
     36          6           0       -4.565563    0.705433    4.096954
     37          6           0       -4.296473    1.784229    3.251773
     38          6           0       -4.252199    1.342580    1.949216
     39          6           0       -4.686393    0.715411    5.564560
     40          6           0       -3.873681    3.180219    3.179177
     41          8           0       -3.617760    3.979411    4.054957
     42          6           0       -3.644834    3.550912    1.685414
     43          6           0       -4.596843    4.644828    1.339393
     44          8           0       -5.806893    4.652328    1.310128
     45          8           0       -3.884090    5.667595    0.793801
     46          6           0       -4.594754    6.620858   -0.012410
     47          6           0        2.404671    4.648689   -1.392965
     48          6           0        3.229567    3.437295   -0.791116
     49          6           0        4.317637    3.453266    0.006347
     50          6           0        5.012132    4.672694    0.558516
     51          6           0        4.801732    2.120745    0.585380
     52          6           0        5.953520    1.673165   -0.352577
     53          6           0        5.729203    0.203242   -0.729194
     54          6           0        6.936308   -0.355224   -1.557199
     55          6           0        6.682750   -0.390449   -3.194407
     56          6           0        7.385255   -1.807590   -1.053025
     57          6           0        8.899958   -2.038475   -0.944138
     58          6           0        9.432506   -1.518323    0.479922
     59          6           0       10.410095   -2.477747    1.136819
     60          6           0        9.654165   -3.498688    1.980902
     61          6           0       11.475659   -1.724731    1.869308
     62          6           0       12.567499   -1.055172    0.976754
     63          6           0       14.003997   -1.310565    1.567936
     64          6           0       14.927184   -1.744950    0.438599
     65          6           0       15.347981   -0.606340   -0.525855
     66          6           0       16.161489   -2.511783    0.791694
     67          1           0       -3.680848   -0.139346   -4.233322
     68          1           0       -6.243384   -5.046614   -0.883583
     69          1           0       -5.530753   -1.962615    4.594068
     70          1           0       -3.694822    3.963510   -1.347430
     71          1           0       -2.697046    2.047196   -3.451404
     72          1           0       -4.240827    3.051852   -4.658379
     73          1           0       -4.587526    4.100042   -3.264248
     74          1           0       -5.499527    2.465640   -3.572150
     75          1           0       -1.053555    2.805477   -2.146625
     76          1           0       -1.423931    2.985461   -0.372431
     77          1           0       -1.347524    5.266359   -0.413819
     78          1           0       -2.066236    5.294446   -2.018450
     79          1           0       -3.236760   -3.583485   -5.484477
     80          1           0       -2.970242   -1.904994   -5.267549
     81          1           0       -4.356744   -2.200751   -6.106034
     82          1           0       -5.092487   -6.458511   -2.157096
     83          1           0       -5.784486   -7.284312   -3.692169
     84          1           0       -6.828725   -6.319168   -2.611509
     85          1           0       -5.592069   -5.518603    1.746501
     86          1           0       -7.005039   -3.859779    3.573023
     87          1           0       -7.965919   -6.188099    1.424126
     88          1           0       -8.244613   -4.627893    0.693229
     89          1           0       -8.473981   -4.916180    2.389392
     90          1           0       -5.358394   -5.879426    3.964112
     91          1           0       -5.537934   -4.563541    5.069536
     92          1           0       -3.350215   -3.872465    3.403979
     93          1           0       -3.226060   -5.688169    3.855894
     94          1           0       -3.276527   -4.420748    4.999757
     95          1           0       -5.656491    0.478742    5.999952
     96          1           0       -4.195148    1.617685    5.928910
     97          1           0       -3.960488   -0.054280    5.826602
     98          1           0       -2.643988    3.884591    1.412249
     99          1           0       -5.321110    7.120567    0.629367
    100          1           0       -5.047653    6.248978   -0.931936
    101          1           0       -3.840449    7.300690   -0.408381
    102          1           0        2.709221    5.581730   -0.918505
    103          1           0        2.714947    4.693125   -2.437374
    104          1           0        2.807164    2.493652   -1.138753
    105          1           0        5.093892    4.642797    1.644792
    106          1           0        4.645691    5.659910    0.279325
    107          1           0        6.037971    4.639102    0.190802
    108          1           0        4.047811    1.370079    0.347097
    109          1           0        5.128379    2.239788    1.617981
    110          1           0        6.853100    1.737951    0.259617
    111          1           0        6.124294    2.127446   -1.329639
    112          1           0        4.866561    0.059482   -1.379135
    113          1           0        5.522484   -0.389170    0.161609
    114          1           0        7.824737    0.276048   -1.571885
    115          1           0        7.487367    0.138066   -3.705820
    116          1           0        5.702492    0.015377   -3.446306
    117          1           0        6.714338   -1.375839   -3.659303
    118          1           0        7.027066   -2.611841   -1.696358
    119          1           0        6.923027   -1.980560   -0.081888
    120          1           0        9.294178   -1.427123   -1.755994
    121          1           0        9.035789   -3.113696   -1.061032
    122          1           0        8.572847   -1.511678    1.148945
    123          1           0        9.904756   -0.543536    0.358709
    124          1           0       10.854285   -3.158416    0.409890
    125          1           0        9.668020   -3.188742    3.025933
    126          1           0       10.185349   -4.449458    1.938284
    127          1           0        8.585102   -3.578010    1.787365
    128          1           0       11.928341   -2.370349    2.622032
    129          1           0       10.906148   -0.914726    2.325372
    130          1           0       12.439037    0.004114    1.200352
    131          1           0       12.361168   -1.313225   -0.062518
    132          1           0       13.886047   -2.083538    2.327426
    133          1           0       14.391663   -0.490042    2.171177
    134          1           0       14.498457   -2.433132   -0.289478
    135          1           0       15.947432   -0.887139   -1.392331
    136          1           0       16.065916   -0.014387    0.042314
    137          1           0       14.491989   -0.102183   -0.974953
    138          1           0       17.039702   -2.174508    0.241455
    139          1           0       16.280950   -3.543839    0.464353
    140          1           0       16.143046   -2.482859    1.881773
 ---------------------------------------------------------------------

 SCF Done:  E(RB-LYP) =  -3007.33844147     A.U. after   21 cycles

 Excitation energies and oscillator strengths:

 Excited State   1:      Singlet-A      1.6252 eV  762.86 nm  f=0.0000  <S**2>=0.000
     244 -> 247        0.70388
 This state for optimization and/or second-order correction.
 Total Energy, E(TD-HF/TD-DFT) =  -3007.27871471
 Copying the excited state density for this state as the 1-particle RhoCI density.

 Excited State   2:      Singlet-A      1.6865 eV  735.17 nm  f=0.0173  <S**2>=0.000
     243 -> 247        0.57319
     245 -> 247       -0.36893
     246 -> 247       -0.17261

 Excited State   3:      Singlet-A      1.7894 eV  692.88 nm  f=0.2982  <S**2>=0.000
     243 -> 247        0.13779
     245 -> 247       -0.10222
     245 -> 248        0.17621
     246 -> 247        0.67195
     246 <- 247       -0.15318

 Excited State   4:      Singlet-A      1.9556 eV  633.98 nm  f=0.0062  <S**2>=0.000
     242 -> 247        0.69157
     245 -> 247        0.10584

 Excited State   5:      Singlet-A      1.9889 eV  623.38 nm  f=0.0850  <S**2>=0.000
     242 -> 247       -0.14231
     243 -> 247        0.36615
     245 -> 247        0.53083
     246 -> 248       -0.20471

 The electronic state is 1-A.
 Alpha  occ. eigenvalues --  -46.28158 -18.82706 -18.82256 -18.76988 -18.76074
 Alpha  occ. eigenvalues --  -18.75591 -18.75464 -14.04392 -14.03393 -14.01725
 Alpha  occ. eigenvalues --  -14.00693 -10.04135 -10.03846 -10.00474  -9.99483
 Alpha  occ. eigenvalues --   -9.98415  -9.97999  -9.97673  -9.97521  -9.97319
 Alpha  occ. eigenvalues --   -9.97188  -9.96285  -9.96280  -9.95379  -9.94772
 Alpha  occ. eigenvalues --   -9.94529  -9.94402  -9.94390  -9.94259  -9.93955
 Alpha  occ. eigenvalues --   -9.93946  -9.93865  -9.93865  -9.93729  -9.93617
 Alpha  occ. eigenvalues --   -9.93444  -9.93341  -9.93336  -9.93170  -9.93034
 Alpha  occ. eigenvalues --   -9.93031  -9.92872  -9.92805  -9.92803  -9.92688
 Alpha  occ. eigenvalues --   -9.92604  -9.92454  -9.92406  -9.92125  -9.91953
 Alpha  occ. eigenvalues --   -9.91836  -9.91703  -9.91621  -9.91565  -9.91411
 Alpha  occ. eigenvalues --   -9.91411  -9.91386  -9.91372  -9.91025  -9.90883
 Alpha  occ. eigenvalues --   -9.90879  -9.90653  -9.90615  -9.90599  -9.90569
 Alpha  occ. eigenvalues --   -9.90174  -2.92597  -1.73026  -1.72473  -1.72310
 Alpha  occ. eigenvalues --   -0.99164  -0.98557  -0.91836  -0.90432  -0.89684
 Alpha  occ. eigenvalues --   -0.88880  -0.86797  -0.85952  -0.85556  -0.84800
 Alpha  occ. eigenvalues --   -0.76539  -0.73980  -0.73722  -0.73523  -0.72659
 Alpha  occ. eigenvalues --   -0.71983  -0.71969  -0.71355  -0.70849  -0.70648
 Alpha  occ. eigenvalues --   -0.69970  -0.69401  -0.68221  -0.68052  -0.67407
 Alpha  occ. eigenvalues --   -0.66652  -0.66202  -0.65610  -0.65198  -0.64649
 Alpha  occ. eigenvalues --   -0.63867  -0.62819  -0.62180  -0.62090  -0.61134
 Alpha  occ. eigenvalues --   -0.60580  -0.60422  -0.60008  -0.59753  -0.58780
 Alpha  occ. eigenvalues --   -0.58633  -0.57941  -0.57360  -0.56049  -0.55336
 Alpha  occ. eigenvalues --   -0.54156  -0.53740  -0.52981  -0.52678  -0.51866
 Alpha  occ. eigenvalues --   -0.51231  -0.51104  -0.50990  -0.50683  -0.50097
 Alpha  occ. eigenvalues --   -0.49421  -0.49337  -0.48831  -0.48580  -0.46730
 Alpha  occ. eigenvalues --   -0.46538  -0.46193  -0.45783  -0.45600  -0.44983
 Alpha  occ. eigenvalues --   -0.44148  -0.43736  -0.43373  -0.43234  -0.42946
 Alpha  occ. eigenvalues --   -0.42695  -0.42292  -0.41997  -0.41885  -0.41769
 Alpha  occ. eigenvalues --   -0.41459  -0.41083  -0.40798  -0.40697  -0.40452
 Alpha  occ. eigenvalues --   -0.39999  -0.39901  -0.39588  -0.39436  -0.39274
 Alpha  occ. eigenvalues --   -0.39179  -0.38979  -0.38944  -0.38814  -0.38551
 Alpha  occ. eigenvalues --   -0.38381  -0.37930  -0.37800  -0.37713  -0.37583
 Alpha  occ. eigenvalues --   -0.37441  -0.37412  -0.37251  -0.36880  -0.36697
 Alpha  occ. eigenvalues --   -0.36344  -0.36127  -0.36037  -0.35954  -0.35756
 Alpha  occ. eigenvalues --   -0.35498  -0.35401  -0.35159  -0.35044  -0.34824
 Alpha  occ. eigenvalues --   -0.34549  -0.34212  -0.33980  -0.33922  -0.33780
 Alpha  occ. eigenvalues --   -0.33672  -0.33596  -0.33542  -0.33377  -0.33292
 Alpha  occ. eigenvalues --   -0.33093  -0.33040  -0.32926  -0.32593  -0.32426
 Alpha  occ. eigenvalues --   -0.32191  -0.32105  -0.32032  -0.31805  -0.31558
 Alpha  occ. eigenvalues --   -0.31495  -0.31351  -0.31282  -0.31092  -0.31086
 Alpha  occ. eigenvalues --   -0.30801  -0.30444  -0.30221  -0.30007  -0.29885
 Alpha  occ. eigenvalues --   -0.29853  -0.29649  -0.29567  -0.29347  -0.29115
 Alpha  occ. eigenvalues --   -0.28736  -0.28662  -0.28321  -0.28122  -0.27863
 Alpha  occ. eigenvalues --   -0.27428  -0.27418  -0.27066  -0.26844  -0.26816
 Alpha  occ. eigenvalues --   -0.26632  -0.25825  -0.25803  -0.25593  -0.25537
 Alpha  occ. eigenvalues --   -0.25303  -0.25072  -0.24170  -0.24053  -0.23705
 Alpha  occ. eigenvalues --   -0.23658  -0.22871  -0.21965  -0.21332  -0.20998
 Alpha  occ. eigenvalues --   -0.20511  -0.19660  -0.18777  -0.18366  -0.17705
 Alpha  occ. eigenvalues --   -0.16606
 Alpha virt. eigenvalues --   -0.12472  -0.07207  -0.06522  -0.04772  -0.03248
 Alpha virt. eigenvalues --   -0.02826  -0.02433  -0.01924  -0.01496  -0.00650
 Alpha virt. eigenvalues --    0.00728   0.01118   0.01359   0.01902   0.02914

 Mulliken charges:
               1
     1  Mg   0.677782
     2  C    0.034731
     3  C   -0.036685
     4  C   -0.042120
     5  C   -0.075719
     6  N   -0.247279
     7  C   -0.097456
     8  C    0.013963
     9  C   -0.012470
    10  C    0.049577
    11  C    0.171753
    12  C    0.166807
    13  C    0.097770
    14  C    0.045927
    15  O   -0.203669
    16  O   -0.256128
    17  N   -0.296169
    18  C    0.093140
    19  C   -0.119123
    20  C    0.057955
    21  C    0.099704
    22  C    0.191649
    23  C   -0.097429
    24  O   -0.204598
    25  C    0.133510
    26  N   -0.216506
    27  C    0.003929
    28  C    0.102121
    29  C    0.020707
    30  C    0.012392
    31  C    0.104648
    32  C    0.052870
    33  C    0.077238
    34  N   -0.235960
    35  C    0.106649
    36  C   -0.199276
    37  C    0.102194
    38  C    0.034057
    39  C    0.204512
    40  C   -0.060397
    41  O   -0.122170
    42  C    0.094275
    43  C    0.096886
    44  O   -0.163253
    45  O   -0.264791
    46  C    0.212640
    47  C    0.306842
    48  C   -0.130901
    49  C   -0.119042
    50  C    0.148913
    51  C    0.175035
    52  C    0.035734
    53  C    0.086403
    54  C   -0.065498
    55  C    0.060620
    56  C    0.070036
    57  C    0.077652
    58  C    0.109643
    59  C   -0.105367
    60  C    0.108289
    61  C    0.106044
    62  C    0.087689
    63  C    0.136563
    64  C   -0.075849
    65  C    0.070090
    66  C    0.114054
    67  H   -0.064740
    68  H   -0.076596
    69  H   -0.057903
    70  H   -0.023106
    71  H   -0.025265
    72  H   -0.011445
    73  H    0.001327
    74  H    0.000959
    75  H   -0.006848
    76  H   -0.014562
    77  H    0.023780
    78  H   -0.017701
    79  H    0.019284
    80  H   -0.033478
    81  H   -0.001762
    82  H    0.015906
    83  H    0.005515
    84  H    0.026501
    85  H   -0.024818
    86  H   -0.032229
    87  H   -0.011302
    88  H   -0.007226
    89  H   -0.007507
    90  H   -0.030218
    91  H   -0.024415
    92  H    0.011054
    93  H   -0.008402
    94  H   -0.023951
    95  H    0.015302
    96  H   -0.000384
    97  H   -0.017949
    98  H   -0.010202
    99  H    0.025613
   100  H    0.008226
   101  H    0.008137
   102  H   -0.005759
   103  H    0.011995
   104  H   -0.036933
   105  H   -0.004068
   106  H   -0.013919
   107  H   -0.011147
   108  H   -0.021255
   109  H   -0.016627
   110  H   -0.025462
   111  H   -0.008144
   112  H   -0.028119
   113  H   -0.027601
   114  H   -0.026658
   115  H   -0.013400
   116  H   -0.012819
   117  H   -0.017855
   118  H   -0.037527
   119  H   -0.040835
   120  H   -0.026084
   121  H   -0.024621
   122  H   -0.034825
   123  H   -0.027924
   124  H   -0.043410
   125  H   -0.035145
   126  H   -0.015451
   127  H   -0.018565
   128  H   -0.037558
   129  H   -0.044285
   130  H   -0.031052
   131  H   -0.002893
   132  H   -0.037939
   133  H   -0.029517
   134  H   -0.041455
   135  H   -0.025190
   136  H   -0.021766
   137  H   -0.014478
   138  H   -0.036431
   139  H   -0.029142
   140  H   -0.020865
 Sum of Mulliken charges =  -0.00000

 Dipole moment (field-independent basis, Debye):
    X=              0.9735    Y=             -3.1595    Z=              1.1476  Tot=              3.4996
 Quadrupole moment (field-independent basis, Debye-Ang):
   XX=           -391.1666   YY=           -419.0750   ZZ=           -425.9107
   XY=             19.1003   XZ=             -6.5530   YZ=            -35.8658

 Normal termination of Gaussian 16 at Thu Apr 28 11:42:48 2022.
