 Gaussian 16, Revision A.03,
 Gaussian 16:  ES64L-G16RevA.03 25-Dec-2016

 -----------------------------------
 #p cam-b3lyp/Def2SVP td=(nstates=5)
 -----------------------------------

 ------------------------------------------------------
 step_151_chromophore_8 TDDFT with cam-b3lyp functional
 ------------------------------------------------------
 Symbolic Z-matrix:
 Charge =  0 Multiplicity = 1

                         Standard orientation:
 ---------------------------------------------------------------------
 Center     Atomic      Atomic             Coordinates (Angstroms)
 Number     Number       Type             X           Y           Z
 ---------------------------------------------------------------------
      1         12           0       -4.920718   -0.899946    0.006520
      2          6           0       -3.891832    2.308977    0.946461
      3          6           0       -4.094111   -0.236197   -3.227715
      4          6           0       -5.732025   -4.097222   -0.707787
      5          6           0       -5.344161   -1.666620    3.559802
      6          7           0       -4.120006    0.825131   -1.018225
      7          6           0       -3.746741    2.042626   -0.424159
      8          6           0       -3.143976    3.038282   -1.515806
      9          6           0       -3.561169    2.287253   -2.833575
     10          6           0       -3.992077    0.897832   -2.390360
     11          6           0       -4.596471    3.072679   -3.627847
     12          6           0       -1.667343    3.292752   -1.389368
     13          6           0       -1.321932    4.796035   -1.396465
     14          6           0        0.103815    5.115555   -1.849362
     15          8           0        0.459082    5.980462   -2.656611
     16          8           0        0.966550    4.353753   -1.173003
     17          7           0       -4.816811   -2.068916   -1.749484
     18          6           0       -4.417334   -1.607310   -3.009457
     19          6           0       -4.486288   -2.687604   -3.947769
     20          6           0       -5.100071   -3.788944   -3.299918
     21          6           0       -5.256051   -3.355564   -1.881110
     22          6           0       -3.766673   -2.648272   -5.305512
     23          6           0       -5.316863   -5.208257   -3.809022
     24          8           0       -5.057109   -5.403926   -5.025794
     25          6           0       -5.811643   -6.461878   -2.976124
     26          7           0       -5.168488   -2.659340    1.290310
     27          6           0       -5.716760   -3.760843    0.670772
     28          6           0       -6.279794   -4.673993    1.697211
     29          6           0       -6.058350   -4.017864    3.056078
     30          6           0       -5.455154   -2.681129    2.633122
     31          6           0       -7.799059   -5.119380    1.557895
     32          6           0       -5.179275   -4.809371    4.070496
     33          6           0       -3.672949   -4.708226    4.025459
     34          7           0       -4.652908    0.068702    1.899841
     35          6           0       -4.818518   -0.350115    3.218578
     36          6           0       -4.565563    0.705433    4.096954
     37          6           0       -4.296473    1.784229    3.251773
     38          6           0       -4.252199    1.342580    1.949216
     39          6           0       -4.686393    0.715411    5.564560
     40          6           0       -3.873681    3.180219    3.179177
     41          8           0       -3.617760    3.979411    4.054957
     42          6           0       -3.644834    3.550912    1.685414
     43          6           0       -4.596843    4.644828    1.339393
     44          8           0       -5.806893    4.652328    1.310128
     45          8           0       -3.884090    5.667595    0.793801
     46          6           0       -4.594754    6.620858   -0.012410
     47          6           0        2.404671    4.648689   -1.392965
     48          6           0        3.229567    3.437295   -0.791116
     49          6           0        4.317637    3.453266    0.006347
     50          6           0        5.012132    4.672694    0.558516
     51          6           0        4.801732    2.120745    0.585380
     52          6           0        5.953520    1.673165   -0.352577
     53          6           0        5.729203    0.203242   -0.729194
     54          6           0        6.936308   -0.355224   -1.557199
     55          6           0        6.682750   -0.390449   -3.194407
     56          6           0        7.385255   -1.807590   -1.053025
     57          6           0        8.899958   -2.038475   -0.944138
     58          6           0        9.432506   -1.518323    0.479922
     59          6           0       10.410095   -2.477747    1.136819
     60          6           0        9.654165   -3.498688    1.980902
     61          6           0       11.475659   -1.724731    1.869308
     62          6           0       12.567499   -1.055172    0.976754
     63          6           0       14.003997   -1.310565    1.567936
     64          6           0       14.927184   -1.744950    0.438599
     65          6           0       15.347981   -0.606340   -0.525855
     66          6           0       16.161489   -2.511783    0.791694
     67          1           0       -3.680848   -0.139346   -4.233322
     68          1           0       -6.243384   -5.046614   -0.883583
     69          1           0       -5.530753   -1.962615    4.594068
     70          1           0       -3.694822    3.963510   -1.347430
     71          1           0       -2.697046    2.047196   -3.451404
     72          1           0       -4.240827    3.051852   -4.658379
     73          1           0       -4.587526    4.100042   -3.264248
     74          1           0       -5.499527    2.465640   -3.572150
     75          1           0       -1.053555    2.805477   -2.146625
     76          1           0       -1.423931    2.985461   -0.372431
     77          1           0       -1.347524    5.266359   -0.413819
     78          1           0       -2.066236    5.294446   -2.018450
     79          1           0       -3.236760   -3.583485   -5.484477
     80          1           0       -2.970242   -1.904994   -5.267549
     81          1           0       -4.356744   -2.200751   -6.106034
     82          1           0       -5.092487   -6.458511   -2.157096
     83          1           0       -5.784486   -7.284312   -3.692169
     84          1           0       -6.828725   -6.319168   -2.611509
     85          1           0       -5.592069   -5.518603    1.746501
     86          1           0       -7.005039   -3.859779    3.573023
     87          1           0       -7.965919   -6.188099    1.424126
     88          1           0       -8.244613   -4.627893    0.693229
     89          1           0       -8.473981   -4.916180    2.389392
     90          1           0       -5.358394   -5.879426    3.964112
     91          1           0       -5.537934   -4.563541    5.069536
     92          1           0       -3.350215   -3.872465    3.403979
     93          1           0       -3.226060   -5.688169    3.855894
     94          1           0       -3.276527   -4.420748    4.999757
     95          1           0       -5.656491    0.478742    5.999952
     96          1           0       -4.195148    1.617685    5.928910
     97          1           0       -3.960488   -0.054280    5.826602
     98          1           0       -2.643988    3.884591    1.412249
     99          1           0       -5.321110    7.120567    0.629367
    100          1           0       -5.047653    6.248978   -0.931936
    101          1           0       -3.840449    7.300690   -0.408381
    102          1           0        2.709221    5.581730   -0.918505
    103          1           0        2.714947    4.693125   -2.437374
    104          1           0        2.807164    2.493652   -1.138753
    105          1           0        5.093892    4.642797    1.644792
    106          1           0        4.645691    5.659910    0.279325
    107          1           0        6.037971    4.639102    0.190802
    108          1           0        4.047811    1.370079    0.347097
    109          1           0        5.128379    2.239788    1.617981
    110          1           0        6.853100    1.737951    0.259617
    111          1           0        6.124294    2.127446   -1.329639
    112          1           0        4.866561    0.059482   -1.379135
    113          1           0        5.522484   -0.389170    0.161609
    114          1           0        7.824737    0.276048   -1.571885
    115          1           0        7.487367    0.138066   -3.705820
    116          1           0        5.702492    0.015377   -3.446306
    117          1           0        6.714338   -1.375839   -3.659303
    118          1           0        7.027066   -2.611841   -1.696358
    119          1           0        6.923027   -1.980560   -0.081888
    120          1           0        9.294178   -1.427123   -1.755994
    121          1           0        9.035789   -3.113696   -1.061032
    122          1           0        8.572847   -1.511678    1.148945
    123          1           0        9.904756   -0.543536    0.358709
    124          1           0       10.854285   -3.158416    0.409890
    125          1           0        9.668020   -3.188742    3.025933
    126          1           0       10.185349   -4.449458    1.938284
    127          1           0        8.585102   -3.578010    1.787365
    128          1           0       11.928341   -2.370349    2.622032
    129          1           0       10.906148   -0.914726    2.325372
    130          1           0       12.439037    0.004114    1.200352
    131          1           0       12.361168   -1.313225   -0.062518
    132          1           0       13.886047   -2.083538    2.327426
    133          1           0       14.391663   -0.490042    2.171177
    134          1           0       14.498457   -2.433132   -0.289478
    135          1           0       15.947432   -0.887139   -1.392331
    136          1           0       16.065916   -0.014387    0.042314
    137          1           0       14.491989   -0.102183   -0.974953
    138          1           0       17.039702   -2.174508    0.241455
    139          1           0       16.280950   -3.543839    0.464353
    140          1           0       16.143046   -2.482859    1.881773
 ---------------------------------------------------------------------

 SCF Done:  E(RCAM-B3LYP) =  -3007.13033550     A.U. after   17 cycles

 Excitation energies and oscillator strengths:

 Excited State   1:      Singlet-A      1.6737 eV  740.78 nm  f=0.3777  <S**2>=0.000
     245 -> 248       -0.16964
     246 -> 247        0.68889
     245 <- 248       -0.10667
 This state for optimization and/or second-order correction.
 Total Energy, E(TD-HF/TD-DFT) =  -3007.06882845
 Copying the excited state density for this state as the 1-particle RhoCI density.

 Excited State   2:      Singlet-A      2.1470 eV  577.47 nm  f=0.1549  <S**2>=0.000
     245 -> 247        0.65739
     246 -> 248        0.24313

 Excited State   3:      Singlet-A      3.1083 eV  398.88 nm  f=0.0031  <S**2>=0.000
     241 -> 247        0.13835
     242 -> 247       -0.12833
     243 -> 247       -0.39231
     244 -> 247        0.53899

 Excited State   4:      Singlet-A      3.2906 eV  376.78 nm  f=0.0007  <S**2>=0.000
     240 -> 247        0.50898
     240 -> 249        0.35235
     240 -> 251       -0.13339
     241 -> 247        0.20216
     242 -> 247       -0.12283

 Excited State   5:      Singlet-A      3.3120 eV  374.34 nm  f=0.0056  <S**2>=0.000
     240 -> 247       -0.22433
     240 -> 249       -0.10649
     241 -> 247        0.50006
     242 -> 247       -0.33571
     243 -> 247        0.10002
     244 -> 247       -0.12548
     246 -> 248        0.15004

 The electronic state is 1-A.
 Alpha  occ. eigenvalues --  -46.89771 -19.25617 -19.25135 -19.20027 -19.18997
 Alpha  occ. eigenvalues --  -19.18988 -19.18536 -14.43581 -14.42084 -14.40458
 Alpha  occ. eigenvalues --  -14.38843 -10.39447 -10.39068 -10.36035 -10.34542
 Alpha  occ. eigenvalues --  -10.32573 -10.32545 -10.32233 -10.32098 -10.31938
 Alpha  occ. eigenvalues --  -10.31934 -10.31099 -10.30372 -10.29654 -10.29160
 Alpha  occ. eigenvalues --  -10.28905 -10.28734 -10.28525 -10.28519 -10.28496
 Alpha  occ. eigenvalues --  -10.28140 -10.28098 -10.28031 -10.27863 -10.27604
 Alpha  occ. eigenvalues --  -10.27495 -10.27424 -10.27303 -10.27129 -10.26941
 Alpha  occ. eigenvalues --  -10.26829 -10.26689 -10.26666 -10.26606 -10.26572
 Alpha  occ. eigenvalues --  -10.26297 -10.26244 -10.26104 -10.25956 -10.25456
 Alpha  occ. eigenvalues --  -10.25444 -10.25354 -10.25289 -10.25089 -10.25048
 Alpha  occ. eigenvalues --  -10.25040 -10.25028 -10.25026 -10.24705 -10.24578
 Alpha  occ. eigenvalues --  -10.24492 -10.24295 -10.24270 -10.24186 -10.24160
 Alpha  occ. eigenvalues --  -10.23712  -3.18104  -1.93014  -1.92554  -1.92401
 Alpha  occ. eigenvalues --   -1.17694  -1.17003  -1.10048  -1.08331  -1.08303
 Alpha  occ. eigenvalues --   -1.06714  -1.04316  -1.03527  -1.03379  -1.02502
 Alpha  occ. eigenvalues --   -0.93609  -0.90852  -0.90568  -0.90342  -0.89279
 Alpha  occ. eigenvalues --   -0.88721  -0.88640  -0.87965  -0.87430  -0.86980
 Alpha  occ. eigenvalues --   -0.86539  -0.86124  -0.84480  -0.84107  -0.83624
 Alpha  occ. eigenvalues --   -0.82569  -0.82227  -0.81562  -0.81116  -0.80712
 Alpha  occ. eigenvalues --   -0.79618  -0.78421  -0.78064  -0.77523  -0.76562
 Alpha  occ. eigenvalues --   -0.75894  -0.75759  -0.75314  -0.75066  -0.73947
 Alpha  occ. eigenvalues --   -0.73677  -0.72952  -0.72324  -0.70969  -0.69900
 Alpha  occ. eigenvalues --   -0.68765  -0.68275  -0.67467  -0.67068  -0.66134
 Alpha  occ. eigenvalues --   -0.65339  -0.65274  -0.64879  -0.64636  -0.63887
 Alpha  occ. eigenvalues --   -0.63368  -0.63291  -0.62488  -0.62461  -0.60339
 Alpha  occ. eigenvalues --   -0.60089  -0.59813  -0.59509  -0.59022  -0.58492
 Alpha  occ. eigenvalues --   -0.57594  -0.57034  -0.56545  -0.56326  -0.56098
 Alpha  occ. eigenvalues --   -0.55702  -0.55468  -0.54917  -0.54722  -0.54678
 Alpha  occ. eigenvalues --   -0.54487  -0.53998  -0.53574  -0.53300  -0.53125
 Alpha  occ. eigenvalues --   -0.52642  -0.52525  -0.52339  -0.52272  -0.52047
 Alpha  occ. eigenvalues --   -0.51839  -0.51698  -0.51436  -0.51345  -0.50915
 Alpha  occ. eigenvalues --   -0.50636  -0.50458  -0.50309  -0.50251  -0.49708
 Alpha  occ. eigenvalues --   -0.49589  -0.49538  -0.49491  -0.49188  -0.48850
 Alpha  occ. eigenvalues --   -0.48658  -0.48431  -0.48230  -0.48101  -0.47912
 Alpha  occ. eigenvalues --   -0.47762  -0.47482  -0.47187  -0.47121  -0.46821
 Alpha  occ. eigenvalues --   -0.46506  -0.46369  -0.45867  -0.45690  -0.45596
 Alpha  occ. eigenvalues --   -0.45366  -0.45261  -0.45157  -0.45029  -0.44968
 Alpha  occ. eigenvalues --   -0.44880  -0.44664  -0.44617  -0.44246  -0.44177
 Alpha  occ. eigenvalues --   -0.43817  -0.43783  -0.43515  -0.43432  -0.43333
 Alpha  occ. eigenvalues --   -0.43125  -0.43011  -0.42836  -0.42540  -0.42335
 Alpha  occ. eigenvalues --   -0.42106  -0.41931  -0.41854  -0.41717  -0.41190
 Alpha  occ. eigenvalues --   -0.41119  -0.41052  -0.40644  -0.40356  -0.40344
 Alpha  occ. eigenvalues --   -0.39774  -0.39703  -0.39345  -0.39206  -0.38823
 Alpha  occ. eigenvalues --   -0.38363  -0.38249  -0.38088  -0.37856  -0.37662
 Alpha  occ. eigenvalues --   -0.37509  -0.37063  -0.36913  -0.36541  -0.36442
 Alpha  occ. eigenvalues --   -0.35914  -0.35617  -0.34876  -0.34601  -0.34589
 Alpha  occ. eigenvalues --   -0.34181  -0.33427  -0.33150  -0.31732  -0.31003
 Alpha  occ. eigenvalues --   -0.30690  -0.30586  -0.29404  -0.29384  -0.24579
 Alpha  occ. eigenvalues --   -0.22027
 Alpha virt. eigenvalues --   -0.09827  -0.01969  -0.00083   0.02035   0.02411
 Alpha virt. eigenvalues --    0.04500   0.05082   0.05693   0.06129   0.06370
 Alpha virt. eigenvalues --    0.07221   0.07366   0.08167   0.08480   0.09087

 Mulliken charges:
               1
     1  Mg   0.807525
     2  C    0.006307
     3  C   -0.047654
     4  C   -0.069562
     5  C   -0.075950
     6  N   -0.314529
     7  C   -0.052797
     8  C   -0.030593
     9  C   -0.064368
    10  C    0.066492
    11  C    0.113936
    12  C    0.109143
    13  C    0.036011
    14  C    0.128054
    15  O   -0.247483
    16  O   -0.318693
    17  N   -0.382438
    18  C    0.100095
    19  C   -0.116585
    20  C   -0.005885
    21  C    0.133327
    22  C    0.132230
    23  C   -0.027384
    24  O   -0.242804
    25  C    0.060579
    26  N   -0.287891
    27  C    0.037740
    28  C    0.027930
    29  C   -0.026416
    30  C    0.021821
    31  C    0.045008
    32  C   -0.000851
    33  C    0.012467
    34  N   -0.323118
    35  C    0.109879
    36  C   -0.199683
    37  C    0.028719
    38  C    0.065891
    39  C    0.145783
    40  C    0.031749
    41  O   -0.162539
    42  C    0.015356
    43  C    0.188696
    44  O   -0.199812
    45  O   -0.328528
    46  C    0.172479
    47  C    0.276617
    48  C   -0.146717
    49  C   -0.147180
    50  C    0.088463
    51  C    0.108578
    52  C   -0.011942
    53  C    0.035246
    54  C   -0.123548
    55  C    0.008402
    56  C    0.024476
    57  C    0.024988
    58  C    0.054288
    59  C   -0.155578
    60  C    0.048400
    61  C    0.051867
    62  C    0.026713
    63  C    0.081260
    64  C   -0.140678
    65  C    0.015134
    66  C    0.052354
    67  H   -0.029284
    68  H   -0.042181
    69  H   -0.023276
    70  H    0.007209
    71  H    0.009275
    72  H    0.014105
    73  H    0.023716
    74  H    0.027340
    75  H    0.023310
    76  H    0.017874
    77  H    0.052806
    78  H    0.012564
    79  H    0.049067
    80  H   -0.005478
    81  H    0.028186
    82  H    0.042164
    83  H    0.041591
    84  H    0.052286
    85  H    0.011987
    86  H    0.004636
    87  H    0.013251
    88  H    0.017217
    89  H    0.018622
    90  H   -0.001940
    91  H    0.003803
    92  H    0.035495
    93  H    0.015176
    94  H    0.001761
    95  H    0.038819
    96  H    0.027344
    97  H    0.006872
    98  H    0.033300
    99  H    0.050900
   100  H    0.027094
   101  H    0.030995
   102  H    0.021077
   103  H    0.041219
   104  H   -0.004264
   105  H    0.020832
   106  H    0.011516
   107  H    0.013421
   108  H    0.010694
   109  H    0.014454
   110  H    0.001753
   111  H    0.017838
   112  H   -0.002303
   113  H    0.001028
   114  H    0.003517
   115  H    0.009287
   116  H    0.009369
   117  H    0.005463
   118  H   -0.008599
   119  H   -0.015626
   120  H   -0.000276
   121  H    0.003801
   122  H   -0.007585
   123  H   -0.000359
   124  H   -0.012215
   125  H   -0.009429
   126  H    0.009407
   127  H    0.005377
   128  H   -0.008592
   129  H   -0.014721
   130  H   -0.000946
   131  H    0.021955
   132  H   -0.008662
   133  H   -0.000325
   134  H   -0.008713
   135  H   -0.000066
   136  H    0.001614
   137  H    0.009222
   138  H   -0.009412
   139  H   -0.003042
   140  H    0.002894
 Sum of Mulliken charges =  -0.00000

 Dipole moment (field-independent basis, Debye):
    X=              0.8750    Y=             -3.8746    Z=              0.2153  Tot=              3.9780
 Quadrupole moment (field-independent basis, Debye-Ang):
   XX=           -389.0209   YY=           -415.3479   ZZ=           -424.9023
   XY=             23.2311   XZ=             -2.3090   YZ=            -35.5934

 Normal termination of Gaussian 16 at Thu Apr 28 10:46:48 2022.
