 Gaussian 16, Revision A.03,
 Gaussian 16:  ES64L-G16RevA.03 25-Dec-2016

 ---------------------------------
 #p PBE1PBE/Def2SVP td=(nstates=5)
 ---------------------------------

 ----------------------------------------------------
 step_151_chromophore_8 TDDFT with PBE1PBE functional
 ----------------------------------------------------
 Symbolic Z-matrix:
 Charge =  0 Multiplicity = 1

                         Standard orientation:
 ---------------------------------------------------------------------
 Center     Atomic      Atomic             Coordinates (Angstroms)
 Number     Number       Type             X           Y           Z
 ---------------------------------------------------------------------
      1         12           0       -4.920718   -0.899946    0.006520
      2          6           0       -3.891832    2.308977    0.946461
      3          6           0       -4.094111   -0.236197   -3.227715
      4          6           0       -5.732025   -4.097222   -0.707787
      5          6           0       -5.344161   -1.666620    3.559802
      6          7           0       -4.120006    0.825131   -1.018225
      7          6           0       -3.746741    2.042626   -0.424159
      8          6           0       -3.143976    3.038282   -1.515806
      9          6           0       -3.561169    2.287253   -2.833575
     10          6           0       -3.992077    0.897832   -2.390360
     11          6           0       -4.596471    3.072679   -3.627847
     12          6           0       -1.667343    3.292752   -1.389368
     13          6           0       -1.321932    4.796035   -1.396465
     14          6           0        0.103815    5.115555   -1.849362
     15          8           0        0.459082    5.980462   -2.656611
     16          8           0        0.966550    4.353753   -1.173003
     17          7           0       -4.816811   -2.068916   -1.749484
     18          6           0       -4.417334   -1.607310   -3.009457
     19          6           0       -4.486288   -2.687604   -3.947769
     20          6           0       -5.100071   -3.788944   -3.299918
     21          6           0       -5.256051   -3.355564   -1.881110
     22          6           0       -3.766673   -2.648272   -5.305512
     23          6           0       -5.316863   -5.208257   -3.809022
     24          8           0       -5.057109   -5.403926   -5.025794
     25          6           0       -5.811643   -6.461878   -2.976124
     26          7           0       -5.168488   -2.659340    1.290310
     27          6           0       -5.716760   -3.760843    0.670772
     28          6           0       -6.279794   -4.673993    1.697211
     29          6           0       -6.058350   -4.017864    3.056078
     30          6           0       -5.455154   -2.681129    2.633122
     31          6           0       -7.799059   -5.119380    1.557895
     32          6           0       -5.179275   -4.809371    4.070496
     33          6           0       -3.672949   -4.708226    4.025459
     34          7           0       -4.652908    0.068702    1.899841
     35          6           0       -4.818518   -0.350115    3.218578
     36          6           0       -4.565563    0.705433    4.096954
     37          6           0       -4.296473    1.784229    3.251773
     38          6           0       -4.252199    1.342580    1.949216
     39          6           0       -4.686393    0.715411    5.564560
     40          6           0       -3.873681    3.180219    3.179177
     41          8           0       -3.617760    3.979411    4.054957
     42          6           0       -3.644834    3.550912    1.685414
     43          6           0       -4.596843    4.644828    1.339393
     44          8           0       -5.806893    4.652328    1.310128
     45          8           0       -3.884090    5.667595    0.793801
     46          6           0       -4.594754    6.620858   -0.012410
     47          6           0        2.404671    4.648689   -1.392965
     48          6           0        3.229567    3.437295   -0.791116
     49          6           0        4.317637    3.453266    0.006347
     50          6           0        5.012132    4.672694    0.558516
     51          6           0        4.801732    2.120745    0.585380
     52          6           0        5.953520    1.673165   -0.352577
     53          6           0        5.729203    0.203242   -0.729194
     54          6           0        6.936308   -0.355224   -1.557199
     55          6           0        6.682750   -0.390449   -3.194407
     56          6           0        7.385255   -1.807590   -1.053025
     57          6           0        8.899958   -2.038475   -0.944138
     58          6           0        9.432506   -1.518323    0.479922
     59          6           0       10.410095   -2.477747    1.136819
     60          6           0        9.654165   -3.498688    1.980902
     61          6           0       11.475659   -1.724731    1.869308
     62          6           0       12.567499   -1.055172    0.976754
     63          6           0       14.003997   -1.310565    1.567936
     64          6           0       14.927184   -1.744950    0.438599
     65          6           0       15.347981   -0.606340   -0.525855
     66          6           0       16.161489   -2.511783    0.791694
     67          1           0       -3.680848   -0.139346   -4.233322
     68          1           0       -6.243384   -5.046614   -0.883583
     69          1           0       -5.530753   -1.962615    4.594068
     70          1           0       -3.694822    3.963510   -1.347430
     71          1           0       -2.697046    2.047196   -3.451404
     72          1           0       -4.240827    3.051852   -4.658379
     73          1           0       -4.587526    4.100042   -3.264248
     74          1           0       -5.499527    2.465640   -3.572150
     75          1           0       -1.053555    2.805477   -2.146625
     76          1           0       -1.423931    2.985461   -0.372431
     77          1           0       -1.347524    5.266359   -0.413819
     78          1           0       -2.066236    5.294446   -2.018450
     79          1           0       -3.236760   -3.583485   -5.484477
     80          1           0       -2.970242   -1.904994   -5.267549
     81          1           0       -4.356744   -2.200751   -6.106034
     82          1           0       -5.092487   -6.458511   -2.157096
     83          1           0       -5.784486   -7.284312   -3.692169
     84          1           0       -6.828725   -6.319168   -2.611509
     85          1           0       -5.592069   -5.518603    1.746501
     86          1           0       -7.005039   -3.859779    3.573023
     87          1           0       -7.965919   -6.188099    1.424126
     88          1           0       -8.244613   -4.627893    0.693229
     89          1           0       -8.473981   -4.916180    2.389392
     90          1           0       -5.358394   -5.879426    3.964112
     91          1           0       -5.537934   -4.563541    5.069536
     92          1           0       -3.350215   -3.872465    3.403979
     93          1           0       -3.226060   -5.688169    3.855894
     94          1           0       -3.276527   -4.420748    4.999757
     95          1           0       -5.656491    0.478742    5.999952
     96          1           0       -4.195148    1.617685    5.928910
     97          1           0       -3.960488   -0.054280    5.826602
     98          1           0       -2.643988    3.884591    1.412249
     99          1           0       -5.321110    7.120567    0.629367
    100          1           0       -5.047653    6.248978   -0.931936
    101          1           0       -3.840449    7.300690   -0.408381
    102          1           0        2.709221    5.581730   -0.918505
    103          1           0        2.714947    4.693125   -2.437374
    104          1           0        2.807164    2.493652   -1.138753
    105          1           0        5.093892    4.642797    1.644792
    106          1           0        4.645691    5.659910    0.279325
    107          1           0        6.037971    4.639102    0.190802
    108          1           0        4.047811    1.370079    0.347097
    109          1           0        5.128379    2.239788    1.617981
    110          1           0        6.853100    1.737951    0.259617
    111          1           0        6.124294    2.127446   -1.329639
    112          1           0        4.866561    0.059482   -1.379135
    113          1           0        5.522484   -0.389170    0.161609
    114          1           0        7.824737    0.276048   -1.571885
    115          1           0        7.487367    0.138066   -3.705820
    116          1           0        5.702492    0.015377   -3.446306
    117          1           0        6.714338   -1.375839   -3.659303
    118          1           0        7.027066   -2.611841   -1.696358
    119          1           0        6.923027   -1.980560   -0.081888
    120          1           0        9.294178   -1.427123   -1.755994
    121          1           0        9.035789   -3.113696   -1.061032
    122          1           0        8.572847   -1.511678    1.148945
    123          1           0        9.904756   -0.543536    0.358709
    124          1           0       10.854285   -3.158416    0.409890
    125          1           0        9.668020   -3.188742    3.025933
    126          1           0       10.185349   -4.449458    1.938284
    127          1           0        8.585102   -3.578010    1.787365
    128          1           0       11.928341   -2.370349    2.622032
    129          1           0       10.906148   -0.914726    2.325372
    130          1           0       12.439037    0.004114    1.200352
    131          1           0       12.361168   -1.313225   -0.062518
    132          1           0       13.886047   -2.083538    2.327426
    133          1           0       14.391663   -0.490042    2.171177
    134          1           0       14.498457   -2.433132   -0.289478
    135          1           0       15.947432   -0.887139   -1.392331
    136          1           0       16.065916   -0.014387    0.042314
    137          1           0       14.491989   -0.102183   -0.974953
    138          1           0       17.039702   -2.174508    0.241455
    139          1           0       16.280950   -3.543839    0.464353
    140          1           0       16.143046   -2.482859    1.881773
 ---------------------------------------------------------------------

 SCF Done:  E(RPBE1PBE) =  -3005.31891786     A.U. after   16 cycles

 Excitation energies and oscillator strengths:

 Excited State   1:      Singlet-A      1.8221 eV  680.46 nm  f=0.3628  <S**2>=0.000
     245 -> 248       -0.16697
     246 -> 247        0.69611
     246 <- 247       -0.11414
 This state for optimization and/or second-order correction.
 Total Energy, E(TD-HF/TD-DFT) =  -3005.25195855
 Copying the excited state density for this state as the 1-particle RhoCI density.

 Excited State   2:      Singlet-A      2.1500 eV  576.66 nm  f=0.1393  <S**2>=0.000
     245 -> 247        0.66360
     246 -> 248        0.22209

 Excited State   3:      Singlet-A      2.7261 eV  454.81 nm  f=0.0067  <S**2>=0.000
     241 -> 247        0.12381
     243 -> 247        0.67760

 Excited State   4:      Singlet-A      2.7643 eV  448.52 nm  f=0.0003  <S**2>=0.000
     242 -> 247        0.67285
     242 -> 249        0.18544

 Excited State   5:      Singlet-A      2.8881 eV  429.29 nm  f=0.0006  <S**2>=0.000
     240 -> 247       -0.12723
     241 -> 247        0.66918
     243 -> 247       -0.12828

 The electronic state is 1-A.
 Alpha  occ. eigenvalues --  -46.93149 -19.26298 -19.25812 -19.20274 -19.19331
 Alpha  occ. eigenvalues --  -19.19040 -19.18945 -14.42980 -14.41713 -14.39973
 Alpha  occ. eigenvalues --  -14.38673 -10.36499 -10.36139 -10.33065 -10.31863
 Alpha  occ. eigenvalues --  -10.30049 -10.29989 -10.29875 -10.29623 -10.29607
 Alpha  occ. eigenvalues --  -10.29185 -10.28491 -10.28312 -10.27208 -10.26972
 Alpha  occ. eigenvalues --  -10.26742 -10.26511 -10.26229 -10.26085 -10.25986
 Alpha  occ. eigenvalues --  -10.25914 -10.25770 -10.25737 -10.25645 -10.25163
 Alpha  occ. eigenvalues --  -10.25129 -10.25034 -10.24925 -10.24805 -10.24606
 Alpha  occ. eigenvalues --  -10.24597 -10.24438 -10.24309 -10.24070 -10.24002
 Alpha  occ. eigenvalues --  -10.23831 -10.23689 -10.23619 -10.23523 -10.23110
 Alpha  occ. eigenvalues --  -10.23016 -10.22916 -10.22873 -10.22674 -10.22643
 Alpha  occ. eigenvalues --  -10.22608 -10.22501 -10.22488 -10.22279 -10.22266
 Alpha  occ. eigenvalues --  -10.22169 -10.22157 -10.21830 -10.21582 -10.21547
 Alpha  occ. eigenvalues --  -10.21085  -3.15069  -1.87918  -1.87437  -1.87287
 Alpha  occ. eigenvalues --   -1.12512  -1.11853  -1.04969  -1.03192  -1.02835
 Alpha  occ. eigenvalues --   -1.01606  -0.99091  -0.98200  -0.97875  -0.97042
 Alpha  occ. eigenvalues --   -0.88064  -0.85043  -0.84719  -0.84454  -0.83605
 Alpha  occ. eigenvalues --   -0.82991  -0.82740  -0.82271  -0.81560  -0.81462
 Alpha  occ. eigenvalues --   -0.80789  -0.80281  -0.78662  -0.78473  -0.77844
 Alpha  occ. eigenvalues --   -0.76868  -0.76408  -0.75758  -0.75393  -0.74921
 Alpha  occ. eigenvalues --   -0.73784  -0.72726  -0.72197  -0.71891  -0.70892
 Alpha  occ. eigenvalues --   -0.70213  -0.69948  -0.69451  -0.69144  -0.68236
 Alpha  occ. eigenvalues --   -0.68065  -0.67266  -0.66706  -0.65249  -0.64314
 Alpha  occ. eigenvalues --   -0.63225  -0.62515  -0.61927  -0.61277  -0.60511
 Alpha  occ. eigenvalues --   -0.59887  -0.59475  -0.59458  -0.59179  -0.58389
 Alpha  occ. eigenvalues --   -0.57538  -0.57460  -0.57115  -0.56644  -0.54879
 Alpha  occ. eigenvalues --   -0.54504  -0.54237  -0.54024  -0.53609  -0.53058
 Alpha  occ. eigenvalues --   -0.52220  -0.51494  -0.50962  -0.50886  -0.50651
 Alpha  occ. eigenvalues --   -0.50265  -0.49953  -0.49391  -0.49326  -0.49114
 Alpha  occ. eigenvalues --   -0.48930  -0.48558  -0.48024  -0.47973  -0.47778
 Alpha  occ. eigenvalues --   -0.47223  -0.47089  -0.46789  -0.46728  -0.46389
 Alpha  occ. eigenvalues --   -0.46327  -0.46307  -0.45984  -0.45907  -0.45506
 Alpha  occ. eigenvalues --   -0.45420  -0.44965  -0.44891  -0.44727  -0.44351
 Alpha  occ. eigenvalues --   -0.44252  -0.44125  -0.44061  -0.43901  -0.43496
 Alpha  occ. eigenvalues --   -0.43296  -0.43019  -0.42819  -0.42626  -0.42496
 Alpha  occ. eigenvalues --   -0.42381  -0.42211  -0.41942  -0.41859  -0.41489
 Alpha  occ. eigenvalues --   -0.41214  -0.40960  -0.40565  -0.40376  -0.40324
 Alpha  occ. eigenvalues --   -0.40104  -0.39994  -0.39923  -0.39778  -0.39683
 Alpha  occ. eigenvalues --   -0.39554  -0.39482  -0.39244  -0.39051  -0.38872
 Alpha  occ. eigenvalues --   -0.38645  -0.38605  -0.38267  -0.38186  -0.38155
 Alpha  occ. eigenvalues --   -0.37935  -0.37808  -0.37457  -0.37421  -0.37240
 Alpha  occ. eigenvalues --   -0.36832  -0.36764  -0.36557  -0.36442  -0.35998
 Alpha  occ. eigenvalues --   -0.35972  -0.35921  -0.35400  -0.35234  -0.35116
 Alpha  occ. eigenvalues --   -0.34627  -0.34505  -0.34231  -0.34045  -0.33662
 Alpha  occ. eigenvalues --   -0.33321  -0.33079  -0.33029  -0.32701  -0.32671
 Alpha  occ. eigenvalues --   -0.32398  -0.32012  -0.31902  -0.31618  -0.31258
 Alpha  occ. eigenvalues --   -0.30717  -0.30574  -0.29877  -0.29725  -0.29533
 Alpha  occ. eigenvalues --   -0.29003  -0.28817  -0.28235  -0.27304  -0.26083
 Alpha  occ. eigenvalues --   -0.25770  -0.25544  -0.25163  -0.24669  -0.21485
 Alpha  occ. eigenvalues --   -0.19618
 Alpha virt. eigenvalues --   -0.12200  -0.05518  -0.04246  -0.02123  -0.00768
 Alpha virt. eigenvalues --    0.00080   0.00455   0.01230   0.01603   0.02374
 Alpha virt. eigenvalues --    0.03652   0.03840   0.04133   0.04786   0.05897

 Mulliken charges:
               1
     1  Mg   0.951324
     2  C   -0.010331
     3  C   -0.043364
     4  C   -0.063277
     5  C   -0.054767
     6  N   -0.417859
     7  C    0.032482
     8  C   -0.110136
     9  C   -0.137152
    10  C    0.100829
    11  C    0.054007
    12  C    0.057714
    13  C   -0.040768
    14  C    0.195803
    15  O   -0.282218
    16  O   -0.346044
    17  N   -0.489745
    18  C    0.116258
    19  C   -0.141248
    20  C   -0.052562
    21  C    0.162473
    22  C    0.073676
    23  C    0.019968
    24  O   -0.273541
    25  C   -0.016313
    26  N   -0.387787
    27  C    0.069474
    28  C   -0.057990
    29  C   -0.092386
    30  C    0.049756
    31  C   -0.013484
    32  C   -0.062767
    33  C   -0.058574
    34  N   -0.448892
    35  C    0.135802
    36  C   -0.221378
    37  C   -0.016983
    38  C    0.123267
    39  C    0.088101
    40  C    0.126998
    41  O   -0.207826
    42  C   -0.107061
    43  C    0.285886
    44  O   -0.236585
    45  O   -0.362341
    46  C    0.116983
    47  C    0.233900
    48  C   -0.152126
    49  C   -0.200126
    50  C    0.030216
    51  C    0.036915
    52  C   -0.070582
    53  C   -0.022022
    54  C   -0.201281
    55  C   -0.048712
    56  C   -0.027676
    57  C   -0.041275
    58  C   -0.002590
    59  C   -0.236937
    60  C   -0.010419
    61  C   -0.006008
    62  C   -0.037346
    63  C    0.026144
    64  C   -0.237235
    65  C   -0.045033
    66  C   -0.004247
    67  H    0.001671
    68  H   -0.005889
    69  H    0.007971
    70  H    0.053744
    71  H    0.045699
    72  H    0.041946
    73  H    0.049936
    74  H    0.055666
    75  H    0.055298
    76  H    0.053086
    77  H    0.085440
    78  H    0.046038
    79  H    0.074774
    80  H    0.021102
    81  H    0.054831
    82  H    0.068703
    83  H    0.068245
    84  H    0.076765
    85  H    0.051322
    86  H    0.042027
    87  H    0.040608
    88  H    0.044786
    89  H    0.044101
    90  H    0.032467
    91  H    0.035176
    92  H    0.064760
    93  H    0.042903
    94  H    0.030055
    95  H    0.066417
    96  H    0.056908
    97  H    0.037515
    98  H    0.073975
    99  H    0.072914
   100  H    0.048420
   101  H    0.053009
   102  H    0.048189
   103  H    0.067999
   104  H    0.025335
   105  H    0.047479
   106  H    0.037917
   107  H    0.042256
   108  H    0.044946
   109  H    0.045656
   110  H    0.035828
   111  H    0.050574
   112  H    0.030793
   113  H    0.032983
   114  H    0.040215
   115  H    0.035978
   116  H    0.035835
   117  H    0.031817
   118  H    0.024004
   119  H    0.016587
   120  H    0.033838
   121  H    0.035687
   122  H    0.025587
   123  H    0.032089
   124  H    0.025753
   125  H    0.018759
   126  H    0.037238
   127  H    0.032955
   128  H    0.023040
   129  H    0.019847
   130  H    0.033376
   131  H    0.051653
   132  H    0.023961
   133  H    0.030347
   134  H    0.031133
   135  H    0.028125
   136  H    0.030318
   137  H    0.036883
   138  H    0.016873
   139  H    0.024141
   140  H    0.030635
 Sum of Mulliken charges =  -0.00000

 Dipole moment (field-independent basis, Debye):
    X=              0.9475    Y=             -3.7142    Z=              0.8307  Tot=              3.9221
 Quadrupole moment (field-independent basis, Debye-Ang):
   XX=           -386.1153   YY=           -412.4563   ZZ=           -420.6775
   XY=             22.5446   XZ=             -5.8882   YZ=            -37.3924

 Normal termination of Gaussian 16 at Thu Apr 28 11:04:34 2022.
