 Gaussian 16, Revision A.03,
 Gaussian 16:  ES64L-G16RevA.03 25-Dec-2016

 --------------------------------
 #p wB97XD/Def2SVP td=(nstates=5)
 --------------------------------

 ---------------------------------------------------
 step_151_chromophore_8 TDDFT with wB97XD functional
 ---------------------------------------------------
 Symbolic Z-matrix:
 Charge =  0 Multiplicity = 1

                         Standard orientation:
 ---------------------------------------------------------------------
 Center     Atomic      Atomic             Coordinates (Angstroms)
 Number     Number       Type             X           Y           Z
 ---------------------------------------------------------------------
      1         12           0       -4.920718   -0.899946    0.006520
      2          6           0       -3.891832    2.308977    0.946461
      3          6           0       -4.094111   -0.236197   -3.227715
      4          6           0       -5.732025   -4.097222   -0.707787
      5          6           0       -5.344161   -1.666620    3.559802
      6          7           0       -4.120006    0.825131   -1.018225
      7          6           0       -3.746741    2.042626   -0.424159
      8          6           0       -3.143976    3.038282   -1.515806
      9          6           0       -3.561169    2.287253   -2.833575
     10          6           0       -3.992077    0.897832   -2.390360
     11          6           0       -4.596471    3.072679   -3.627847
     12          6           0       -1.667343    3.292752   -1.389368
     13          6           0       -1.321932    4.796035   -1.396465
     14          6           0        0.103815    5.115555   -1.849362
     15          8           0        0.459082    5.980462   -2.656611
     16          8           0        0.966550    4.353753   -1.173003
     17          7           0       -4.816811   -2.068916   -1.749484
     18          6           0       -4.417334   -1.607310   -3.009457
     19          6           0       -4.486288   -2.687604   -3.947769
     20          6           0       -5.100071   -3.788944   -3.299918
     21          6           0       -5.256051   -3.355564   -1.881110
     22          6           0       -3.766673   -2.648272   -5.305512
     23          6           0       -5.316863   -5.208257   -3.809022
     24          8           0       -5.057109   -5.403926   -5.025794
     25          6           0       -5.811643   -6.461878   -2.976124
     26          7           0       -5.168488   -2.659340    1.290310
     27          6           0       -5.716760   -3.760843    0.670772
     28          6           0       -6.279794   -4.673993    1.697211
     29          6           0       -6.058350   -4.017864    3.056078
     30          6           0       -5.455154   -2.681129    2.633122
     31          6           0       -7.799059   -5.119380    1.557895
     32          6           0       -5.179275   -4.809371    4.070496
     33          6           0       -3.672949   -4.708226    4.025459
     34          7           0       -4.652908    0.068702    1.899841
     35          6           0       -4.818518   -0.350115    3.218578
     36          6           0       -4.565563    0.705433    4.096954
     37          6           0       -4.296473    1.784229    3.251773
     38          6           0       -4.252199    1.342580    1.949216
     39          6           0       -4.686393    0.715411    5.564560
     40          6           0       -3.873681    3.180219    3.179177
     41          8           0       -3.617760    3.979411    4.054957
     42          6           0       -3.644834    3.550912    1.685414
     43          6           0       -4.596843    4.644828    1.339393
     44          8           0       -5.806893    4.652328    1.310128
     45          8           0       -3.884090    5.667595    0.793801
     46          6           0       -4.594754    6.620858   -0.012410
     47          6           0        2.404671    4.648689   -1.392965
     48          6           0        3.229567    3.437295   -0.791116
     49          6           0        4.317637    3.453266    0.006347
     50          6           0        5.012132    4.672694    0.558516
     51          6           0        4.801732    2.120745    0.585380
     52          6           0        5.953520    1.673165   -0.352577
     53          6           0        5.729203    0.203242   -0.729194
     54          6           0        6.936308   -0.355224   -1.557199
     55          6           0        6.682750   -0.390449   -3.194407
     56          6           0        7.385255   -1.807590   -1.053025
     57          6           0        8.899958   -2.038475   -0.944138
     58          6           0        9.432506   -1.518323    0.479922
     59          6           0       10.410095   -2.477747    1.136819
     60          6           0        9.654165   -3.498688    1.980902
     61          6           0       11.475659   -1.724731    1.869308
     62          6           0       12.567499   -1.055172    0.976754
     63          6           0       14.003997   -1.310565    1.567936
     64          6           0       14.927184   -1.744950    0.438599
     65          6           0       15.347981   -0.606340   -0.525855
     66          6           0       16.161489   -2.511783    0.791694
     67          1           0       -3.680848   -0.139346   -4.233322
     68          1           0       -6.243384   -5.046614   -0.883583
     69          1           0       -5.530753   -1.962615    4.594068
     70          1           0       -3.694822    3.963510   -1.347430
     71          1           0       -2.697046    2.047196   -3.451404
     72          1           0       -4.240827    3.051852   -4.658379
     73          1           0       -4.587526    4.100042   -3.264248
     74          1           0       -5.499527    2.465640   -3.572150
     75          1           0       -1.053555    2.805477   -2.146625
     76          1           0       -1.423931    2.985461   -0.372431
     77          1           0       -1.347524    5.266359   -0.413819
     78          1           0       -2.066236    5.294446   -2.018450
     79          1           0       -3.236760   -3.583485   -5.484477
     80          1           0       -2.970242   -1.904994   -5.267549
     81          1           0       -4.356744   -2.200751   -6.106034
     82          1           0       -5.092487   -6.458511   -2.157096
     83          1           0       -5.784486   -7.284312   -3.692169
     84          1           0       -6.828725   -6.319168   -2.611509
     85          1           0       -5.592069   -5.518603    1.746501
     86          1           0       -7.005039   -3.859779    3.573023
     87          1           0       -7.965919   -6.188099    1.424126
     88          1           0       -8.244613   -4.627893    0.693229
     89          1           0       -8.473981   -4.916180    2.389392
     90          1           0       -5.358394   -5.879426    3.964112
     91          1           0       -5.537934   -4.563541    5.069536
     92          1           0       -3.350215   -3.872465    3.403979
     93          1           0       -3.226060   -5.688169    3.855894
     94          1           0       -3.276527   -4.420748    4.999757
     95          1           0       -5.656491    0.478742    5.999952
     96          1           0       -4.195148    1.617685    5.928910
     97          1           0       -3.960488   -0.054280    5.826602
     98          1           0       -2.643988    3.884591    1.412249
     99          1           0       -5.321110    7.120567    0.629367
    100          1           0       -5.047653    6.248978   -0.931936
    101          1           0       -3.840449    7.300690   -0.408381
    102          1           0        2.709221    5.581730   -0.918505
    103          1           0        2.714947    4.693125   -2.437374
    104          1           0        2.807164    2.493652   -1.138753
    105          1           0        5.093892    4.642797    1.644792
    106          1           0        4.645691    5.659910    0.279325
    107          1           0        6.037971    4.639102    0.190802
    108          1           0        4.047811    1.370079    0.347097
    109          1           0        5.128379    2.239788    1.617981
    110          1           0        6.853100    1.737951    0.259617
    111          1           0        6.124294    2.127446   -1.329639
    112          1           0        4.866561    0.059482   -1.379135
    113          1           0        5.522484   -0.389170    0.161609
    114          1           0        7.824737    0.276048   -1.571885
    115          1           0        7.487367    0.138066   -3.705820
    116          1           0        5.702492    0.015377   -3.446306
    117          1           0        6.714338   -1.375839   -3.659303
    118          1           0        7.027066   -2.611841   -1.696358
    119          1           0        6.923027   -1.980560   -0.081888
    120          1           0        9.294178   -1.427123   -1.755994
    121          1           0        9.035789   -3.113696   -1.061032
    122          1           0        8.572847   -1.511678    1.148945
    123          1           0        9.904756   -0.543536    0.358709
    124          1           0       10.854285   -3.158416    0.409890
    125          1           0        9.668020   -3.188742    3.025933
    126          1           0       10.185349   -4.449458    1.938284
    127          1           0        8.585102   -3.578010    1.787365
    128          1           0       11.928341   -2.370349    2.622032
    129          1           0       10.906148   -0.914726    2.325372
    130          1           0       12.439037    0.004114    1.200352
    131          1           0       12.361168   -1.313225   -0.062518
    132          1           0       13.886047   -2.083538    2.327426
    133          1           0       14.391663   -0.490042    2.171177
    134          1           0       14.498457   -2.433132   -0.289478
    135          1           0       15.947432   -0.887139   -1.392331
    136          1           0       16.065916   -0.014387    0.042314
    137          1           0       14.491989   -0.102183   -0.974953
    138          1           0       17.039702   -2.174508    0.241455
    139          1           0       16.280950   -3.543839    0.464353
    140          1           0       16.143046   -2.482859    1.881773
 ---------------------------------------------------------------------

 SCF Done:  E(RwB97XD) =  -3007.82802507     A.U. after   17 cycles

 Excitation energies and oscillator strengths:

 Excited State   1:      Singlet-A      1.6251 eV  762.91 nm  f=0.3774  <S**2>=0.000
     245 -> 248       -0.17391
     246 -> 247        0.68652
     245 <- 248       -0.11490
 This state for optimization and/or second-order correction.
 Total Energy, E(TD-HF/TD-DFT) =  -3007.76830224
 Copying the excited state density for this state as the 1-particle RhoCI density.

 Excited State   2:      Singlet-A      2.0934 eV  592.26 nm  f=0.1507  <S**2>=0.000
     245 -> 247        0.65462
     246 -> 248        0.24628

 Excited State   3:      Singlet-A      3.1458 eV  394.13 nm  f=0.0026  <S**2>=0.000
     240 -> 247       -0.10309
     241 -> 247       -0.21628
     243 -> 247        0.63984

 Excited State   4:      Singlet-A      3.2985 eV  375.88 nm  f=0.0002  <S**2>=0.000
     240 -> 247        0.43331
     240 -> 249        0.35066
     240 -> 250       -0.13449
     241 -> 247       -0.32370
     241 -> 249       -0.17432

 Excited State   5:      Singlet-A      3.3348 eV  371.79 nm  f=0.0038  <S**2>=0.000
     239 -> 247        0.11564
     240 -> 247        0.34711
     241 -> 247        0.50887
     243 -> 247        0.20772
     246 -> 248       -0.18443

 The electronic state is 1-A.
 Alpha  occ. eigenvalues --  -46.96106 -19.30853 -19.30340 -19.24947 -19.24101
 Alpha  occ. eigenvalues --  -19.23975 -19.23520 -14.48247 -14.46649 -14.45103
 Alpha  occ. eigenvalues --  -14.43400 -10.43274 -10.42896 -10.40104 -10.38501
 Alpha  occ. eigenvalues --  -10.36649 -10.36488 -10.36394 -10.36171 -10.35962
 Alpha  occ. eigenvalues --  -10.35675 -10.35250 -10.34314 -10.33905 -10.33090
 Alpha  occ. eigenvalues --  -10.32994 -10.32867 -10.32718 -10.32630 -10.32584
 Alpha  occ. eigenvalues --  -10.32133 -10.32105 -10.32053 -10.31895 -10.31534
 Alpha  occ. eigenvalues --  -10.31502 -10.31351 -10.31271 -10.31146 -10.30894
 Alpha  occ. eigenvalues --  -10.30721 -10.30692 -10.30604 -10.30566 -10.30551
 Alpha  occ. eigenvalues --  -10.30202 -10.30072 -10.30044 -10.29905 -10.29368
 Alpha  occ. eigenvalues --  -10.29276 -10.29253 -10.29226 -10.29005 -10.28968
 Alpha  occ. eigenvalues --  -10.28952 -10.28898 -10.28804 -10.28640 -10.28514
 Alpha  occ. eigenvalues --  -10.28436 -10.28251 -10.28185 -10.28005 -10.27983
 Alpha  occ. eigenvalues --  -10.27503  -3.21905  -1.95499  -1.95017  -1.94866
 Alpha  occ. eigenvalues --   -1.19853  -1.19212  -1.12225  -1.10582  -1.10509
 Alpha  occ. eigenvalues --   -1.08931  -1.06298  -1.05555  -1.05410  -1.04560
 Alpha  occ. eigenvalues --   -0.95563  -0.92696  -0.92379  -0.92107  -0.91143
 Alpha  occ. eigenvalues --   -0.90663  -0.90393  -0.89882  -0.89229  -0.88917
 Alpha  occ. eigenvalues --   -0.88477  -0.88086  -0.86326  -0.86002  -0.85523
 Alpha  occ. eigenvalues --   -0.84440  -0.84080  -0.83468  -0.83079  -0.82641
 Alpha  occ. eigenvalues --   -0.81445  -0.80328  -0.80055  -0.79425  -0.78494
 Alpha  occ. eigenvalues --   -0.77816  -0.77625  -0.77120  -0.76841  -0.75801
 Alpha  occ. eigenvalues --   -0.75617  -0.74883  -0.74288  -0.72917  -0.71806
 Alpha  occ. eigenvalues --   -0.70753  -0.70148  -0.69497  -0.68918  -0.68120
 Alpha  occ. eigenvalues --   -0.67355  -0.67114  -0.66853  -0.66580  -0.65861
 Alpha  occ. eigenvalues --   -0.65184  -0.65118  -0.64450  -0.64278  -0.62325
 Alpha  occ. eigenvalues --   -0.62017  -0.61781  -0.61535  -0.60990  -0.60444
 Alpha  occ. eigenvalues --   -0.59606  -0.58957  -0.58433  -0.58265  -0.58017
 Alpha  occ. eigenvalues --   -0.57636  -0.57439  -0.56807  -0.56652  -0.56557
 Alpha  occ. eigenvalues --   -0.56364  -0.55945  -0.55437  -0.55241  -0.55023
 Alpha  occ. eigenvalues --   -0.54585  -0.54489  -0.54235  -0.54199  -0.54009
 Alpha  occ. eigenvalues --   -0.53694  -0.53608  -0.53327  -0.53286  -0.52799
 Alpha  occ. eigenvalues --   -0.52531  -0.52446  -0.52174  -0.52161  -0.51601
 Alpha  occ. eigenvalues --   -0.51475  -0.51435  -0.51393  -0.51114  -0.50777
 Alpha  occ. eigenvalues --   -0.50547  -0.50399  -0.50160  -0.50080  -0.49781
 Alpha  occ. eigenvalues --   -0.49691  -0.49399  -0.49116  -0.49020  -0.48700
 Alpha  occ. eigenvalues --   -0.48437  -0.48335  -0.47798  -0.47593  -0.47503
 Alpha  occ. eigenvalues --   -0.47250  -0.47132  -0.47034  -0.46985  -0.46863
 Alpha  occ. eigenvalues --   -0.46752  -0.46547  -0.46464  -0.46179  -0.46116
 Alpha  occ. eigenvalues --   -0.45732  -0.45714  -0.45383  -0.45324  -0.45282
 Alpha  occ. eigenvalues --   -0.45048  -0.44930  -0.44681  -0.44507  -0.44249
 Alpha  occ. eigenvalues --   -0.43969  -0.43943  -0.43855  -0.43564  -0.43060
 Alpha  occ. eigenvalues --   -0.43007  -0.42961  -0.42498  -0.42297  -0.42190
 Alpha  occ. eigenvalues --   -0.41612  -0.41584  -0.41239  -0.41067  -0.40686
 Alpha  occ. eigenvalues --   -0.40278  -0.40080  -0.40027  -0.39703  -0.39675
 Alpha  occ. eigenvalues --   -0.39364  -0.39057  -0.38950  -0.38582  -0.38266
 Alpha  occ. eigenvalues --   -0.37743  -0.37492  -0.36835  -0.36570  -0.36431
 Alpha  occ. eigenvalues --   -0.36002  -0.35449  -0.35289  -0.33944  -0.33003
 Alpha  occ. eigenvalues --   -0.32886  -0.32559  -0.31480  -0.31394  -0.26499
 Alpha  occ. eigenvalues --   -0.23836
 Alpha virt. eigenvalues --   -0.08182  -0.00049   0.01964   0.04506   0.05184
 Alpha virt. eigenvalues --    0.06794   0.07293   0.08073   0.08348   0.08992
 Alpha virt. eigenvalues --    0.09919   0.10640   0.10970   0.11640   0.12554

 Mulliken charges:
               1
     1  Mg   0.943296
     2  C   -0.009158
     3  C   -0.058035
     4  C   -0.081442
     5  C   -0.078075
     6  N   -0.384774
     7  C   -0.006725
     8  C   -0.067640
     9  C   -0.112029
    10  C    0.087632
    11  C    0.064828
    12  C    0.066875
    13  C   -0.020908
    14  C    0.186525
    15  O   -0.279669
    16  O   -0.346122
    17  N   -0.461863
    18  C    0.114739
    19  C   -0.131817
    20  C   -0.045300
    21  C    0.160408
    22  C    0.084782
    23  C    0.013322
    24  O   -0.269200
    25  C    0.000832
    26  N   -0.358211
    27  C    0.063948
    28  C   -0.032691
    29  C   -0.069393
    30  C    0.040685
    31  C   -0.001408
    32  C   -0.048543
    33  C   -0.042438
    34  N   -0.410729
    35  C    0.122992
    36  C   -0.215579
    37  C   -0.013172
    38  C    0.100103
    39  C    0.097936
    40  C    0.106422
    41  O   -0.200045
    42  C   -0.056297
    43  C    0.258148
    44  O   -0.230178
    45  O   -0.358746
    46  C    0.130544
    47  C    0.248292
    48  C   -0.164510
    49  C   -0.180623
    50  C    0.040915
    51  C    0.059222
    52  C   -0.056401
    53  C   -0.002283
    54  C   -0.178507
    55  C   -0.036266
    56  C   -0.007701
    57  C   -0.023829
    58  C    0.015762
    59  C   -0.208261
    60  C   -0.000600
    61  C    0.016277
    62  C   -0.025707
    63  C    0.040403
    64  C   -0.204006
    65  C   -0.032326
    66  C    0.005006
    67  H   -0.004108
    68  H   -0.019475
    69  H    0.003180
    70  H    0.023887
    71  H    0.034920
    72  H    0.037132
    73  H    0.045215
    74  H    0.049643
    75  H    0.048138
    76  H    0.043151
    77  H    0.077940
    78  H    0.037957
    79  H    0.072615
    80  H    0.015860
    81  H    0.052837
    82  H    0.062365
    83  H    0.067970
    84  H    0.073427
    85  H    0.039694
    86  H    0.031122
    87  H    0.035192
    88  H    0.037469
    89  H    0.039660
    90  H    0.023008
    91  H    0.028420
    92  H    0.055609
    93  H    0.037587
    94  H    0.024450
    95  H    0.061410
    96  H    0.052372
    97  H    0.029145
    98  H    0.062183
    99  H    0.069758
   100  H    0.044225
   101  H    0.049588
   102  H    0.041973
   103  H    0.063508
   104  H    0.022056
   105  H    0.042558
   106  H    0.033140
   107  H    0.035698
   108  H    0.033306
   109  H    0.041135
   110  H    0.026752
   111  H    0.039687
   112  H    0.019420
   113  H    0.023643
   114  H    0.026001
   115  H    0.030590
   116  H    0.029485
   117  H    0.025637
   118  H    0.015803
   119  H    0.003163
   120  H    0.023750
   121  H    0.028045
   122  H    0.011900
   123  H    0.022768
   124  H    0.012104
   125  H    0.012033
   126  H    0.032514
   127  H    0.026480
   128  H    0.013346
   129  H    0.008674
   130  H    0.025118
   131  H    0.041733
   132  H    0.013324
   133  H    0.024339
   134  H    0.018510
   135  H    0.021997
   136  H    0.021828
   137  H    0.031117
   138  H    0.011069
   139  H    0.019251
   140  H    0.024313
 Sum of Mulliken charges =  -0.00000

 Dipole moment (field-independent basis, Debye):
    X=              0.9004    Y=             -4.0345    Z=              0.0390  Tot=              4.1339
 Quadrupole moment (field-independent basis, Debye-Ang):
   XX=           -385.1645   YY=           -411.0877   ZZ=           -420.6576
   XY=             24.1656   XZ=             -1.7399   YZ=            -35.8011

 Normal termination of Gaussian 16 at Thu Apr 28 11:29:37 2022.
