 Gaussian 16, Revision A.03,
 Gaussian 16:  ES64L-G16RevA.03 25-Dec-2016

 --------------------
 #p ZINDO=(nstates=5)
 --------------------

 ----------------------------
 step_151_chromophore_8 ZINDO
 ----------------------------
 Symbolic Z-matrix:
 Charge =  0 Multiplicity = 1

                         Standard orientation:
 ---------------------------------------------------------------------
 Center     Atomic      Atomic             Coordinates (Angstroms)
 Number     Number       Type             X           Y           Z
 ---------------------------------------------------------------------
      1         12           0       -4.920718   -0.899946    0.006520
      2          6           0       -3.891832    2.308977    0.946461
      3          6           0       -4.094111   -0.236197   -3.227715
      4          6           0       -5.732025   -4.097222   -0.707787
      5          6           0       -5.344161   -1.666620    3.559802
      6          7           0       -4.120006    0.825131   -1.018225
      7          6           0       -3.746741    2.042626   -0.424159
      8          6           0       -3.143976    3.038282   -1.515806
      9          6           0       -3.561169    2.287253   -2.833575
     10          6           0       -3.992077    0.897832   -2.390360
     11          6           0       -4.596471    3.072679   -3.627847
     12          6           0       -1.667343    3.292752   -1.389368
     13          6           0       -1.321932    4.796035   -1.396465
     14          6           0        0.103815    5.115555   -1.849362
     15          8           0        0.459082    5.980462   -2.656611
     16          8           0        0.966550    4.353753   -1.173003
     17          7           0       -4.816811   -2.068916   -1.749484
     18          6           0       -4.417334   -1.607310   -3.009457
     19          6           0       -4.486288   -2.687604   -3.947769
     20          6           0       -5.100071   -3.788944   -3.299918
     21          6           0       -5.256051   -3.355564   -1.881110
     22          6           0       -3.766673   -2.648272   -5.305512
     23          6           0       -5.316863   -5.208257   -3.809022
     24          8           0       -5.057109   -5.403926   -5.025794
     25          6           0       -5.811643   -6.461878   -2.976124
     26          7           0       -5.168488   -2.659340    1.290310
     27          6           0       -5.716760   -3.760843    0.670772
     28          6           0       -6.279794   -4.673993    1.697211
     29          6           0       -6.058350   -4.017864    3.056078
     30          6           0       -5.455154   -2.681129    2.633122
     31          6           0       -7.799059   -5.119380    1.557895
     32          6           0       -5.179275   -4.809371    4.070496
     33          6           0       -3.672949   -4.708226    4.025459
     34          7           0       -4.652908    0.068702    1.899841
     35          6           0       -4.818518   -0.350115    3.218578
     36          6           0       -4.565563    0.705433    4.096954
     37          6           0       -4.296473    1.784229    3.251773
     38          6           0       -4.252199    1.342580    1.949216
     39          6           0       -4.686393    0.715411    5.564560
     40          6           0       -3.873681    3.180219    3.179177
     41          8           0       -3.617760    3.979411    4.054957
     42          6           0       -3.644834    3.550912    1.685414
     43          6           0       -4.596843    4.644828    1.339393
     44          8           0       -5.806893    4.652328    1.310128
     45          8           0       -3.884090    5.667595    0.793801
     46          6           0       -4.594754    6.620858   -0.012410
     47          6           0        2.404671    4.648689   -1.392965
     48          6           0        3.229567    3.437295   -0.791116
     49          6           0        4.317637    3.453266    0.006347
     50          6           0        5.012132    4.672694    0.558516
     51          6           0        4.801732    2.120745    0.585380
     52          6           0        5.953520    1.673165   -0.352577
     53          6           0        5.729203    0.203242   -0.729194
     54          6           0        6.936308   -0.355224   -1.557199
     55          6           0        6.682750   -0.390449   -3.194407
     56          6           0        7.385255   -1.807590   -1.053025
     57          6           0        8.899958   -2.038475   -0.944138
     58          6           0        9.432506   -1.518323    0.479922
     59          6           0       10.410095   -2.477747    1.136819
     60          6           0        9.654165   -3.498688    1.980902
     61          6           0       11.475659   -1.724731    1.869308
     62          6           0       12.567499   -1.055172    0.976754
     63          6           0       14.003997   -1.310565    1.567936
     64          6           0       14.927184   -1.744950    0.438599
     65          6           0       15.347981   -0.606340   -0.525855
     66          6           0       16.161489   -2.511783    0.791694
     67          1           0       -3.680848   -0.139346   -4.233322
     68          1           0       -6.243384   -5.046614   -0.883583
     69          1           0       -5.530753   -1.962615    4.594068
     70          1           0       -3.694822    3.963510   -1.347430
     71          1           0       -2.697046    2.047196   -3.451404
     72          1           0       -4.240827    3.051852   -4.658379
     73          1           0       -4.587526    4.100042   -3.264248
     74          1           0       -5.499527    2.465640   -3.572150
     75          1           0       -1.053555    2.805477   -2.146625
     76          1           0       -1.423931    2.985461   -0.372431
     77          1           0       -1.347524    5.266359   -0.413819
     78          1           0       -2.066236    5.294446   -2.018450
     79          1           0       -3.236760   -3.583485   -5.484477
     80          1           0       -2.970242   -1.904994   -5.267549
     81          1           0       -4.356744   -2.200751   -6.106034
     82          1           0       -5.092487   -6.458511   -2.157096
     83          1           0       -5.784486   -7.284312   -3.692169
     84          1           0       -6.828725   -6.319168   -2.611509
     85          1           0       -5.592069   -5.518603    1.746501
     86          1           0       -7.005039   -3.859779    3.573023
     87          1           0       -7.965919   -6.188099    1.424126
     88          1           0       -8.244613   -4.627893    0.693229
     89          1           0       -8.473981   -4.916180    2.389392
     90          1           0       -5.358394   -5.879426    3.964112
     91          1           0       -5.537934   -4.563541    5.069536
     92          1           0       -3.350215   -3.872465    3.403979
     93          1           0       -3.226060   -5.688169    3.855894
     94          1           0       -3.276527   -4.420748    4.999757
     95          1           0       -5.656491    0.478742    5.999952
     96          1           0       -4.195148    1.617685    5.928910
     97          1           0       -3.960488   -0.054280    5.826602
     98          1           0       -2.643988    3.884591    1.412249
     99          1           0       -5.321110    7.120567    0.629367
    100          1           0       -5.047653    6.248978   -0.931936
    101          1           0       -3.840449    7.300690   -0.408381
    102          1           0        2.709221    5.581730   -0.918505
    103          1           0        2.714947    4.693125   -2.437374
    104          1           0        2.807164    2.493652   -1.138753
    105          1           0        5.093892    4.642797    1.644792
    106          1           0        4.645691    5.659910    0.279325
    107          1           0        6.037971    4.639102    0.190802
    108          1           0        4.047811    1.370079    0.347097
    109          1           0        5.128379    2.239788    1.617981
    110          1           0        6.853100    1.737951    0.259617
    111          1           0        6.124294    2.127446   -1.329639
    112          1           0        4.866561    0.059482   -1.379135
    113          1           0        5.522484   -0.389170    0.161609
    114          1           0        7.824737    0.276048   -1.571885
    115          1           0        7.487367    0.138066   -3.705820
    116          1           0        5.702492    0.015377   -3.446306
    117          1           0        6.714338   -1.375839   -3.659303
    118          1           0        7.027066   -2.611841   -1.696358
    119          1           0        6.923027   -1.980560   -0.081888
    120          1           0        9.294178   -1.427123   -1.755994
    121          1           0        9.035789   -3.113696   -1.061032
    122          1           0        8.572847   -1.511678    1.148945
    123          1           0        9.904756   -0.543536    0.358709
    124          1           0       10.854285   -3.158416    0.409890
    125          1           0        9.668020   -3.188742    3.025933
    126          1           0       10.185349   -4.449458    1.938284
    127          1           0        8.585102   -3.578010    1.787365
    128          1           0       11.928341   -2.370349    2.622032
    129          1           0       10.906148   -0.914726    2.325372
    130          1           0       12.439037    0.004114    1.200352
    131          1           0       12.361168   -1.313225   -0.062518
    132          1           0       13.886047   -2.083538    2.327426
    133          1           0       14.391663   -0.490042    2.171177
    134          1           0       14.498457   -2.433132   -0.289478
    135          1           0       15.947432   -0.887139   -1.392331
    136          1           0       16.065916   -0.014387    0.042314
    137          1           0       14.491989   -0.102183   -0.974953
    138          1           0       17.039702   -2.174508    0.241455
    139          1           0       16.280950   -3.543839    0.464353
    140          1           0       16.143046   -2.482859    1.881773
 ---------------------------------------------------------------------

 SCF Done:  E(RZINDO/S) =  -474.257275240     A.U. after   19 cycles

 Excitation energies and oscillator strengths:

 Excited State   1:      Singlet-A      1.2572 eV  986.19 nm  f=0.5787  <S**2>=0.000
     175 ->178         0.16257
     176 ->177         0.67095
 This state for optimization and/or second-order correction.
 Total Energy, E(CIS/TDA) =  -474.211073869
 Copying the excited state density for this state as the 1-particle RhoCI density.

 Excited State   2:      Singlet-A      1.8891 eV  656.30 nm  f=0.1058  <S**2>=0.000
     175 ->177         0.58297
     176 ->178        -0.35996

 Excited State   3:      Singlet-A      2.8782 eV  430.77 nm  f=0.0007  <S**2>=0.000
     167 ->177         0.11951
     167 ->179        -0.19805
     168 ->177         0.30821
     168 ->178        -0.13005
     168 ->179        -0.42696
     168 ->180         0.16307
     168 ->181         0.11113
     168 ->185        -0.20853

 Excited State   4:      Singlet-A      2.9768 eV  416.49 nm  f=0.2528  <S**2>=0.000
     171 ->177        -0.19620
     171 ->179        -0.15465
     171 ->180        -0.22985
     171 ->181        -0.10385
     171 ->184        -0.10525
     171 ->185        -0.14549
     171 ->188        -0.10774
     174 ->177         0.25759
     175 ->177         0.18483
     176 ->178         0.32287

 Excited State   5:      Singlet-A      3.0370 eV  408.24 nm  f=0.6914  <S**2>=0.000
     170 ->177         0.20598
     171 ->180         0.14388
     171 ->185         0.10221
     172 ->177         0.14590
     174 ->177        -0.11980
     175 ->177         0.26831
     176 ->178         0.46823

 The electronic state is 1-A.
 Alpha  occ. eigenvalues --   -1.85027  -1.81148  -1.79844  -1.74688  -1.73932
 Alpha  occ. eigenvalues --   -1.71386  -1.66200  -1.60931  -1.60042  -1.57124
 Alpha  occ. eigenvalues --   -1.56796  -1.50573  -1.49022  -1.48223  -1.46559
 Alpha  occ. eigenvalues --   -1.44744  -1.44093  -1.39852  -1.38803  -1.38227
 Alpha  occ. eigenvalues --   -1.36735  -1.34574  -1.33534  -1.31602  -1.28383
 Alpha  occ. eigenvalues --   -1.26581  -1.26163  -1.22619  -1.21157  -1.18610
 Alpha  occ. eigenvalues --   -1.17469  -1.15537  -1.15032  -1.14370  -1.13322
 Alpha  occ. eigenvalues --   -1.13164  -1.10811  -1.09191  -1.06228  -1.04557
 Alpha  occ. eigenvalues --   -1.02251  -1.02131  -0.99038  -0.98630  -0.97106
 Alpha  occ. eigenvalues --   -0.95374  -0.94595  -0.94148  -0.93053  -0.92709
 Alpha  occ. eigenvalues --   -0.91245  -0.90701  -0.88820  -0.87925  -0.86389
 Alpha  occ. eigenvalues --   -0.85354  -0.84314  -0.83169  -0.81760  -0.80880
 Alpha  occ. eigenvalues --   -0.79525  -0.79300  -0.78372  -0.76970  -0.76432
 Alpha  occ. eigenvalues --   -0.76309  -0.75942  -0.75547  -0.74478  -0.73834
 Alpha  occ. eigenvalues --   -0.73212  -0.72829  -0.72565  -0.71647  -0.71210
 Alpha  occ. eigenvalues --   -0.70972  -0.70542  -0.69665  -0.68689  -0.68359
 Alpha  occ. eigenvalues --   -0.67627  -0.67183  -0.66283  -0.65844  -0.65619
 Alpha  occ. eigenvalues --   -0.65470  -0.64982  -0.64623  -0.64053  -0.63634
 Alpha  occ. eigenvalues --   -0.63505  -0.63029  -0.62964  -0.62911  -0.62575
 Alpha  occ. eigenvalues --   -0.62368  -0.61925  -0.61172  -0.60910  -0.60576
 Alpha  occ. eigenvalues --   -0.59596  -0.59330  -0.58868  -0.58397  -0.57951
 Alpha  occ. eigenvalues --   -0.57651  -0.57410  -0.57082  -0.56666  -0.56300
 Alpha  occ. eigenvalues --   -0.55858  -0.55485  -0.55089  -0.54883  -0.54366
 Alpha  occ. eigenvalues --   -0.54173  -0.54031  -0.53796  -0.53161  -0.52978
 Alpha  occ. eigenvalues --   -0.52654  -0.52491  -0.52399  -0.51987  -0.51563
 Alpha  occ. eigenvalues --   -0.51226  -0.50814  -0.50639  -0.50322  -0.50031
 Alpha  occ. eigenvalues --   -0.49956  -0.49702  -0.49646  -0.49357  -0.49100
 Alpha  occ. eigenvalues --   -0.48907  -0.48680  -0.48553  -0.48160  -0.47900
 Alpha  occ. eigenvalues --   -0.47616  -0.47329  -0.47253  -0.47091  -0.46839
 Alpha  occ. eigenvalues --   -0.46689  -0.46400  -0.46018  -0.45735  -0.45620
 Alpha  occ. eigenvalues --   -0.45293  -0.44666  -0.44428  -0.44187  -0.43960
 Alpha  occ. eigenvalues --   -0.43286  -0.43069  -0.42636  -0.42493  -0.42211
 Alpha  occ. eigenvalues --   -0.42075  -0.41588  -0.41433  -0.39086  -0.38750
 Alpha  occ. eigenvalues --   -0.38324  -0.37321  -0.36437  -0.34756  -0.34507
 Alpha  occ. eigenvalues --   -0.34079  -0.32867  -0.31810  -0.31718  -0.27195
 Alpha  occ. eigenvalues --   -0.22567
 Alpha virt. eigenvalues --   -0.09448  -0.02368  -0.01161   0.01130   0.01552
 Alpha virt. eigenvalues --    0.02072   0.02637   0.02917   0.03933   0.04687
 Alpha virt. eigenvalues --    0.05214   0.06102   0.06526   0.07386   0.07598

 Mulliken charges:
               1
     1  Mg   0.435383
     2  C   -0.011876
     3  C   -0.071882
     4  C   -0.117092
     5  C   -0.078623
     6  N   -0.278370
     7  C    0.065373
     8  C   -0.000658
     9  C    0.009758
    10  C    0.170296
    11  C   -0.049768
    12  C   -0.017306
    13  C    0.001917
    14  C    0.468235
    15  O   -0.534472
    16  O   -0.256550
    17  N   -0.337009
    18  C    0.127388
    19  C    0.072839
    20  C   -0.034133
    21  C    0.154650
    22  C   -0.037583
    23  C    0.309833
    24  O   -0.531295
    25  C   -0.025408
    26  N   -0.291614
    27  C    0.182797
    28  C    0.012088
    29  C   -0.003133
    30  C    0.108198
    31  C   -0.055778
    32  C   -0.026865
    33  C   -0.057517
    34  N   -0.328672
    35  C    0.069557
    36  C    0.015213
    37  C   -0.057888
    38  C    0.094131
    39  C   -0.042621
    40  C    0.331434
    41  O   -0.526385
    42  C    0.065095
    43  C    0.493217
    44  O   -0.517789
    45  O   -0.280010
    46  C    0.078511
    47  C    0.097898
    48  C   -0.111825
    49  C    0.006012
    50  C   -0.040006
    51  C   -0.027401
    52  C   -0.032516
    53  C   -0.031246
    54  C   -0.028605
    55  C   -0.071782
    56  C   -0.043503
    57  C   -0.046657
    58  C   -0.038325
    59  C   -0.008162
    60  C   -0.060278
    61  C   -0.035905
    62  C   -0.046854
    63  C   -0.023612
    64  C   -0.007480
    65  C   -0.061150
    66  C   -0.066948
    67  H    0.021992
    68  H    0.024765
    69  H    0.034264
    70  H    0.037079
    71  H    0.029289
    72  H    0.017250
    73  H    0.037068
    74  H    0.035787
    75  H    0.037280
    76  H    0.026478
    77  H    0.050274
    78  H    0.033730
    79  H    0.050556
    80  H    0.012013
    81  H    0.046520
    82  H    0.043543
    83  H    0.050199
    84  H    0.041828
    85  H    0.034836
    86  H    0.025929
    87  H    0.017052
    88  H    0.018342
    89  H    0.026399
    90  H    0.009262
    91  H    0.016433
    92  H    0.031714
    93  H    0.022795
    94  H    0.010652
    95  H    0.040637
    96  H    0.031782
    97  H    0.018675
    98  H    0.053360
    99  H    0.053317
   100  H    0.037672
   101  H    0.023055
   102  H    0.048231
   103  H    0.053121
   104  H    0.026887
   105  H    0.026749
   106  H    0.025166
   107  H    0.022963
   108  H    0.032416
   109  H    0.039577
   110  H    0.015320
   111  H    0.035697
   112  H    0.020396
   113  H    0.020130
   114  H    0.024388
   115  H    0.017564
   116  H    0.019782
   117  H    0.018305
   118  H    0.013294
   119  H    0.013623
   120  H    0.025861
   121  H    0.026299
   122  H    0.025669
   123  H    0.021620
   124  H    0.012406
   125  H    0.007332
   126  H    0.016266
   127  H    0.022186
   128  H    0.019762
   129  H    0.015228
   130  H    0.015177
   131  H    0.038909
   132  H    0.015391
   133  H    0.026835
   134  H    0.015167
   135  H    0.012722
   136  H    0.017958
   137  H    0.017050
   138  H    0.020760
   139  H    0.013511
   140  H    0.021184
 Sum of Mulliken charges =  -0.00000

 Dipole moment (field-independent basis, Debye):
    X=              0.6219    Y=             -6.2880    Z=             -2.0901  Tot=              6.6554
 N-N= 4.324680911978D+03 E-N= 0.000000000000D+00  KE=-9.322984604155D+03
 Leave Link  601 at Thu Apr 28 11:42:55 2022, MaxMem=  6710886400 cpu:               0.8 elap:               0.1
 (Enter /sw/apps/gaussian-16.0/g16/l9999.exe)
 1\1\GINC-BP1-COMPUTE070\SP\RZINDO CIS\STO-3G\C55H74Mg1N4O6\OF15641\28-
 Apr-2022\0\\#p ZINDO=(nstates=5)\\step_151_chromophore_8 ZINDO\\0,1\Mg
 ,0,45.097,3.719,48.064\C,0,42.934,6.396,47.436\C,0,42.547,1.52,47.568\
 C,0,47.349,1.237,48.463\C,0,47.853,6.126,48.125\N,0,43.,3.929,47.589\C
 ,0,42.321,5.136,47.351\C,0,40.796,4.857,46.973\C,0,40.687,3.339,47.371
 \C,0,42.119,2.867,47.569\C,0,39.758,3.132,48.56\C,0,40.438,5.149,45.54
 2\C,0,39.184,6.038,45.414\C,0,38.443,5.899,44.083\O,0,37.227,5.766,43.

 Normal termination of Gaussian 16 at Thu Apr 28 11:42:55 2022.
