 Gaussian 16, Revision A.03,
 Gaussian 16:  ES64L-G16RevA.03 25-Dec-2016

 ------------------------------
 #p blyp/Def2SVP td=(nstates=5)
 ------------------------------

 ------------------------------------------------
 step_1_chromophore_24 TDDFT with blyp functional
 ------------------------------------------------
 Symbolic Z-matrix:
 Charge =  0 Multiplicity = 1

                         Standard orientation:
 ---------------------------------------------------------------------
 Center     Atomic      Atomic             Coordinates (Angstroms)
 Number     Number       Type             X           Y           Z
 ---------------------------------------------------------------------
      1         12           0        5.267203    0.915651    0.009620
      2          6           0        3.868150   -2.425127    0.266195
      3          6           0        2.156697    1.896307   -0.843585
      4          6           0        6.531370    3.835795   -0.268638
      5          6           0        8.472546   -0.465018    0.606614
      6          7           0        3.160624   -0.228362   -0.229346
      7          6           0        2.859241   -1.515084    0.016351
      8          6           0        1.334913   -1.727822   -0.052498
      9          6           0        0.977915   -0.395400   -0.862273
     10          6           0        2.119395    0.490555   -0.587190
     11          6           0        0.457696   -0.532189   -2.283409
     12          6           0        0.785332   -1.833896    1.380549
     13          6           0       -0.541154   -2.645387    1.461491
     14          6           0       -1.101045   -3.528775    0.252747
     15          8           0       -0.937761   -4.715459    0.061568
     16          8           0       -1.719888   -2.676461   -0.688974
     17          7           0        4.450127    2.700160   -0.453624
     18          6           0        3.152355    2.925155   -0.871123
     19          6           0        3.030260    4.338588   -1.214825
     20          6           0        4.290645    4.940139   -0.976549
     21          6           0        5.148700    3.797999   -0.551633
     22          6           0        1.804956    4.963569   -1.715800
     23          6           0        4.741259    6.489614   -1.086702
     24          8           0        5.807141    6.864157   -0.680480
     25          6           0        3.730500    7.598610   -1.429837
     26          7           0        7.278517    1.522485   -0.111875
     27          6           0        7.508659    2.832566   -0.077022
     28          6           0        8.952019    3.204727    0.131503
     29          6           0        9.448133    1.893975    0.789442
     30          6           0        8.371389    0.892894    0.245732
     31          6           0        9.749791    3.528688   -1.216359
     32          6           0        9.593411    1.915449    2.368905
     33          6           0        9.926394    3.248656    3.099798
     34          7           0        6.068740   -1.010795    0.253004
     35          6           0        7.323227   -1.436394    0.542630
     36          6           0        7.352049   -2.793265    0.854363
     37          6           0        6.055359   -3.194540    0.703895
     38          6           0        5.275789   -2.107838    0.360081
     39          6           0        8.571920   -3.582313    1.321997
     40          6           0        5.214109   -4.393546    0.835868
     41          8           0        5.469470   -5.581718    0.962666
     42          6           0        3.727934   -3.867642    0.621800
     43          6           0        3.109253   -4.709403   -0.387284
     44          8           0        3.276577   -4.649558   -1.609550
     45          8           0        2.525169   -5.736630    0.264234
     46          6           0        2.199728   -6.842481   -0.618526
     47          6           0       -2.460997   -3.312833   -1.795426
     48          6           0       -3.911947   -2.897317   -1.647523
     49          6           0       -4.802952   -3.389423   -0.778540
     50          6           0       -4.533242   -4.529537    0.217938
     51          6           0       -6.244239   -2.875750   -0.665060
     52          6           0       -6.336416   -1.493413    0.011836
     53          6           0       -6.934769   -0.382060   -0.849957
     54          6           0       -8.320263    0.093536   -0.207797
     55          6           0       -8.047149    1.258978    0.855297
     56          6           0       -9.233256    0.625601   -1.406842
     57          6           0      -10.617759    0.042676   -1.323732
     58          6           0      -11.610634    0.824714   -2.030033
     59          6           0      -13.033826    0.758970   -1.379604
     60          6           0      -14.161624    0.820575   -2.536360
     61          6           0      -13.401346    1.927984   -0.426400
     62          6           0      -13.165414    1.562420    1.070085
     63          6           0      -12.357920    2.637973    1.805415
     64          6           0      -12.511373    2.484575    3.373478
     65          6           0      -13.121061    3.736179    4.056707
     66          6           0      -11.084090    2.104403    3.922483
     67          1           0        1.199708    2.170937   -1.292315
     68          1           0        6.935021    4.839774   -0.411580
     69          1           0        9.465683   -0.826681    0.880416
     70          1           0        1.075821   -2.571518   -0.692270
     71          1           0        0.126500    0.042051   -0.342690
     72          1           0       -0.584257   -0.225582   -2.370088
     73          1           0        0.550265   -1.564456   -2.620457
     74          1           0        1.037236    0.018806   -3.024145
     75          1           0        0.505009   -0.827933    1.693686
     76          1           0        1.511669   -2.192120    2.109845
     77          1           0       -1.362223   -2.039306    1.845736
     78          1           0       -0.383722   -3.232804    2.365959
     79          1           0        0.916524    4.405662   -1.420707
     80          1           0        1.919307    4.980430   -2.799791
     81          1           0        1.643548    5.979221   -1.353886
     82          1           0        2.960519    7.742671   -0.671932
     83          1           0        3.399363    7.360297   -2.440844
     84          1           0        4.254986    8.542641   -1.579860
     85          1           0        8.882197    4.091942    0.760395
     86          1           0       10.418133    1.568186    0.414653
     87          1           0       10.277316    4.441794   -0.941524
     88          1           0        9.114047    3.726339   -2.080128
     89          1           0       10.495572    2.792684   -1.514277
     90          1           0       10.312279    1.151272    2.661049
     91          1           0        8.565074    1.706124    2.664076
     92          1           0        9.012712    3.802440    3.314326
     93          1           0       10.642865    3.726990    2.431079
     94          1           0       10.475636    3.084613    4.026257
     95          1           0        9.188520   -2.847585    1.840301
     96          1           0        9.181064   -3.959074    0.500874
     97          1           0        8.229899   -4.377312    1.984399
     98          1           0        3.224111   -3.974417    1.583282
     99          1           0        1.747886   -7.689293   -0.102742
    100          1           0        2.970303   -7.144406   -1.328053
    101          1           0        1.394318   -6.560691   -1.297642
    102          1           0       -2.363747   -4.398593   -1.830595
    103          1           0       -2.039031   -2.811850   -2.666703
    104          1           0       -4.288196   -2.134056   -2.328600
    105          1           0       -5.090252   -5.442134    0.005066
    106          1           0       -4.775387   -4.298342    1.255256
    107          1           0       -3.489392   -4.835648    0.285069
    108          1           0       -6.820177   -3.589629   -0.074464
    109          1           0       -6.607723   -2.943640   -1.690225
    110          1           0       -5.401961   -1.101910    0.412735
    111          1           0       -7.013602   -1.646720    0.853147
    112          1           0       -7.220179   -0.840028   -1.798058
    113          1           0       -6.271829    0.435985   -1.133071
    114          1           0       -8.780545   -0.626575    0.467533
    115          1           0       -8.375784    2.187464    0.388526
    116          1           0       -6.984784    1.430662    1.029206
    117          1           0       -8.617507    1.181206    1.781538
    118          1           0       -8.805891    0.417815   -2.388136
    119          1           0       -9.275806    1.710278   -1.303366
    120          1           0      -10.848550   -0.099863   -0.267233
    121          1           0      -10.500078   -0.956524   -1.742982
    122          1           0      -11.658005    0.418841   -3.040201
    123          1           0      -11.365360    1.879132   -2.154487
    124          1           0      -13.149554   -0.214265   -0.901510
    125          1           0      -14.132074    0.181897   -3.419286
    126          1           0      -14.403559    1.860047   -2.757402
    127          1           0      -15.093865    0.560493   -2.034771
    128          1           0      -14.462250    2.159168   -0.513152
    129          1           0      -12.800384    2.772632   -0.762174
    130          1           0      -12.553669    0.660452    1.073578
    131          1           0      -14.083200    1.240961    1.563078
    132          1           0      -12.634464    3.624080    1.431872
    133          1           0      -11.302240    2.622914    1.535181
    134          1           0      -13.105171    1.586580    3.543109
    135          1           0      -13.068936    4.652158    3.468317
    136          1           0      -12.586544    4.007968    4.967230
    137          1           0      -14.116441    3.531844    4.448102
    138          1           0      -11.290129    1.576152    4.854241
    139          1           0      -10.453063    2.956043    4.175063
    140          1           0      -10.603416    1.463919    3.182860
 ---------------------------------------------------------------------

 SCF Done:  E(RB-LYP) =  -3007.35742232     A.U. after   20 cycles

 Excitation energies and oscillator strengths:

 Excited State   1:      Singlet-A      1.8715 eV  662.47 nm  f=0.2762  <S**2>=0.000
     245 -> 248       -0.18039
     245 -> 249       -0.11154
     246 -> 247        0.68132
     246 <- 247       -0.13237
 This state for optimization and/or second-order correction.
 Total Energy, E(TD-HF/TD-DFT) =  -3007.28864466
 Copying the excited state density for this state as the 1-particle RhoCI density.

 Excited State   2:      Singlet-A      2.0205 eV  613.64 nm  f=0.1055  <S**2>=0.000
     244 -> 247        0.25790
     245 -> 247        0.61863
     246 -> 248        0.17202
     246 -> 249        0.11006

 Excited State   3:      Singlet-A      2.0726 eV  598.21 nm  f=0.0202  <S**2>=0.000
     244 -> 247        0.65705
     245 -> 247       -0.23571

 Excited State   4:      Singlet-A      2.3026 eV  538.46 nm  f=0.0004  <S**2>=0.000
     243 -> 247        0.70592

 Excited State   5:      Singlet-A      2.5731 eV  481.84 nm  f=0.0012  <S**2>=0.000
     240 -> 247       -0.35333
     241 -> 247       -0.40065
     242 -> 247        0.45302

 The electronic state is 1-A.
 Alpha  occ. eigenvalues --  -46.27735 -18.81835 -18.81331 -18.78111 -18.76885
 Alpha  occ. eigenvalues --  -18.75829 -18.75216 -14.02507 -14.02366 -14.01239
 Alpha  occ. eigenvalues --  -14.00425 -10.05213 -10.02316 -10.01341  -9.99540
 Alpha  occ. eigenvalues --   -9.97918  -9.96266  -9.96007  -9.95841  -9.95776
 Alpha  occ. eigenvalues --   -9.95743  -9.95521  -9.95444  -9.94689  -9.94166
 Alpha  occ. eigenvalues --   -9.94163  -9.94133  -9.94036  -9.93818  -9.93426
 Alpha  occ. eigenvalues --   -9.93379  -9.93376  -9.93340  -9.93326  -9.93181
 Alpha  occ. eigenvalues --   -9.93104  -9.92986  -9.92742  -9.92728  -9.92708
 Alpha  occ. eigenvalues --   -9.92653  -9.92576  -9.92389  -9.92268  -9.92254
 Alpha  occ. eigenvalues --   -9.92224  -9.92121  -9.91976  -9.91885  -9.91806
 Alpha  occ. eigenvalues --   -9.91779  -9.91705  -9.91631  -9.91541  -9.91364
 Alpha  occ. eigenvalues --   -9.91251  -9.91186  -9.91101  -9.91081  -9.91009
 Alpha  occ. eigenvalues --   -9.90983  -9.90959  -9.90677  -9.90571  -9.90533
 Alpha  occ. eigenvalues --   -9.90032  -2.92329  -1.72755  -1.72245  -1.72013
 Alpha  occ. eigenvalues --   -0.97354  -0.97189  -0.93741  -0.91170  -0.90235
 Alpha  occ. eigenvalues --   -0.88182  -0.87976  -0.87275  -0.86673  -0.86083
 Alpha  occ. eigenvalues --   -0.75182  -0.73638  -0.73110  -0.72590  -0.71971
 Alpha  occ. eigenvalues --   -0.71643  -0.71514  -0.70737  -0.70438  -0.70310
 Alpha  occ. eigenvalues --   -0.69379  -0.68776  -0.68322  -0.66939  -0.66775
 Alpha  occ. eigenvalues --   -0.66311  -0.65520  -0.65070  -0.64735  -0.64125
 Alpha  occ. eigenvalues --   -0.63959  -0.62484  -0.62223  -0.61087  -0.60368
 Alpha  occ. eigenvalues --   -0.60269  -0.60214  -0.59783  -0.59450  -0.58534
 Alpha  occ. eigenvalues --   -0.58489  -0.57773  -0.56685  -0.55692  -0.54753
 Alpha  occ. eigenvalues --   -0.53767  -0.53302  -0.52497  -0.52248  -0.51495
 Alpha  occ. eigenvalues --   -0.51044  -0.50789  -0.50663  -0.50523  -0.49820
 Alpha  occ. eigenvalues --   -0.49669  -0.49128  -0.48968  -0.47751  -0.46805
 Alpha  occ. eigenvalues --   -0.46167  -0.45828  -0.45570  -0.44913  -0.44328
 Alpha  occ. eigenvalues --   -0.44024  -0.43577  -0.42988  -0.42608  -0.42301
 Alpha  occ. eigenvalues --   -0.42083  -0.41944  -0.41757  -0.41416  -0.40824
 Alpha  occ. eigenvalues --   -0.40640  -0.40454  -0.40197  -0.40070  -0.39731
 Alpha  occ. eigenvalues --   -0.39601  -0.39416  -0.39230  -0.39119  -0.38877
 Alpha  occ. eigenvalues --   -0.38770  -0.38680  -0.38515  -0.38431  -0.38111
 Alpha  occ. eigenvalues --   -0.37938  -0.37679  -0.37574  -0.37427  -0.37018
 Alpha  occ. eigenvalues --   -0.36926  -0.36759  -0.36661  -0.36391  -0.36124
 Alpha  occ. eigenvalues --   -0.35974  -0.35890  -0.35632  -0.35557  -0.35319
 Alpha  occ. eigenvalues --   -0.35092  -0.35023  -0.34990  -0.34797  -0.34670
 Alpha  occ. eigenvalues --   -0.34554  -0.34433  -0.34214  -0.34057  -0.33933
 Alpha  occ. eigenvalues --   -0.33832  -0.33598  -0.33542  -0.33247  -0.32878
 Alpha  occ. eigenvalues --   -0.32657  -0.32604  -0.32260  -0.32127  -0.32070
 Alpha  occ. eigenvalues --   -0.31881  -0.31856  -0.31648  -0.31553  -0.31533
 Alpha  occ. eigenvalues --   -0.31401  -0.31389  -0.31254  -0.30908  -0.30767
 Alpha  occ. eigenvalues --   -0.30500  -0.30267  -0.30147  -0.29858  -0.29821
 Alpha  occ. eigenvalues --   -0.29730  -0.29278  -0.29073  -0.28954  -0.28896
 Alpha  occ. eigenvalues --   -0.28727  -0.28668  -0.28437  -0.28280  -0.27977
 Alpha  occ. eigenvalues --   -0.27781  -0.27432  -0.27395  -0.26818  -0.26728
 Alpha  occ. eigenvalues --   -0.26516  -0.25875  -0.25476  -0.25261  -0.25040
 Alpha  occ. eigenvalues --   -0.24806  -0.24034  -0.23823  -0.23338  -0.23234
 Alpha  occ. eigenvalues --   -0.23144  -0.22900  -0.21846  -0.21153  -0.20660
 Alpha  occ. eigenvalues --   -0.20628  -0.20343  -0.19508  -0.18642  -0.16678
 Alpha  occ. eigenvalues --   -0.15782
 Alpha virt. eigenvalues --   -0.11142  -0.06391  -0.05820  -0.04368  -0.04174
 Alpha virt. eigenvalues --   -0.02474  -0.02464  -0.01521  -0.00651  -0.00043
 Alpha virt. eigenvalues --    0.01396   0.01655   0.01753   0.02309   0.02817

 Mulliken charges:
               1
     1  Mg   0.689373
     2  C    0.027537
     3  C   -0.046134
     4  C   -0.050300
     5  C   -0.066838
     6  N   -0.124417
     7  C   -0.132170
     8  C   -0.030588
     9  C    0.035888
    10  C   -0.054175
    11  C    0.148668
    12  C    0.151765
    13  C    0.128797
    14  C    0.119575
    15  O   -0.167112
    16  O   -0.313388
    17  N   -0.288046
    18  C    0.130895
    19  C   -0.129606
    20  C    0.004874
    21  C    0.064699
    22  C    0.164147
    23  C   -0.048656
    24  O   -0.131141
    25  C    0.121305
    26  N   -0.171028
    27  C    0.014219
    28  C    0.013672
    29  C   -0.006465
    30  C    0.014404
    31  C    0.127060
    32  C    0.083760
    33  C    0.068571
    34  N   -0.228821
    35  C    0.076702
    36  C   -0.204548
    37  C    0.089031
    38  C    0.092108
    39  C    0.181163
    40  C   -0.043377
    41  O   -0.119698
    42  C    0.053569
    43  C    0.100748
    44  O   -0.210067
    45  O   -0.234936
    46  C    0.243528
    47  C    0.339399
    48  C   -0.110140
    49  C   -0.128233
    50  C    0.108679
    51  C    0.136847
    52  C    0.106326
    53  C    0.085763
    54  C   -0.104658
    55  C    0.076602
    56  C    0.099058
    57  C    0.077266
    58  C    0.162877
    59  C   -0.099350
    60  C    0.072335
    61  C    0.139139
    62  C    0.058035
    63  C    0.078594
    64  C   -0.078467
    65  C    0.123693
    66  C    0.071188
    67  H   -0.069817
    68  H   -0.051780
    69  H   -0.056122
    70  H    0.016003
    71  H   -0.045707
    72  H   -0.005021
    73  H   -0.003822
    74  H   -0.016050
    75  H   -0.026997
    76  H   -0.006672
    77  H   -0.014635
    78  H   -0.020789
    79  H   -0.007682
    80  H    0.012283
    81  H   -0.010722
    82  H    0.039543
    83  H   -0.004353
    84  H   -0.012663
    85  H   -0.016084
    86  H   -0.045060
    87  H   -0.003454
    88  H   -0.001143
    89  H   -0.003818
    90  H   -0.014466
    91  H   -0.024589
    92  H    0.008581
    93  H   -0.006356
    94  H   -0.009904
    95  H   -0.015341
    96  H    0.005691
    97  H    0.008925
    98  H   -0.000124
    99  H    0.004167
   100  H    0.010964
   101  H   -0.011659
   102  H    0.016317
   103  H   -0.020343
   104  H   -0.050845
   105  H   -0.000016
   106  H   -0.011939
   107  H   -0.015068
   108  H   -0.040225
   109  H   -0.009266
   110  H   -0.017927
   111  H   -0.031977
   112  H   -0.038408
   113  H   -0.022569
   114  H   -0.021271
   115  H   -0.026777
   116  H   -0.018830
   117  H   -0.001822
   118  H   -0.031696
   119  H   -0.039796
   120  H   -0.032620
   121  H   -0.033252
   122  H   -0.045324
   123  H   -0.042893
   124  H   -0.033507
   125  H   -0.012312
   126  H   -0.020687
   127  H   -0.034332
   128  H   -0.031133
   129  H   -0.032169
   130  H   -0.037573
   131  H   -0.025897
   132  H   -0.037436
   133  H   -0.037258
   134  H   -0.030838
   135  H   -0.010600
   136  H   -0.034924
   137  H   -0.014882
   138  H   -0.021537
   139  H   -0.009812
   140  H    0.000616
 Sum of Mulliken charges =  -0.00000

 Dipole moment (field-independent basis, Debye):
    X=             -4.4138    Y=              4.4798    Z=              1.2246  Tot=              6.4070
 Quadrupole moment (field-independent basis, Debye-Ang):
   XX=           -386.5595   YY=           -434.7798   ZZ=           -399.3503
   XY=             22.6853   XZ=              6.9512   YZ=             -3.9096

 Normal termination of Gaussian 16 at Fri Apr 29 07:07:41 2022.
