 Gaussian 16, Revision A.03,
 Gaussian 16:  ES64L-G16RevA.03 25-Dec-2016

 -----------------------------------
 #p cam-b3lyp/Def2SVP td=(nstates=5)
 -----------------------------------

 -----------------------------------------------------
 step_1_chromophore_24 TDDFT with cam-b3lyp functional
 -----------------------------------------------------
 Symbolic Z-matrix:
 Charge =  0 Multiplicity = 1

                         Standard orientation:
 ---------------------------------------------------------------------
 Center     Atomic      Atomic             Coordinates (Angstroms)
 Number     Number       Type             X           Y           Z
 ---------------------------------------------------------------------
      1         12           0        5.267203    0.915651    0.009620
      2          6           0        3.868150   -2.425127    0.266195
      3          6           0        2.156697    1.896307   -0.843585
      4          6           0        6.531370    3.835795   -0.268638
      5          6           0        8.472546   -0.465018    0.606614
      6          7           0        3.160624   -0.228362   -0.229346
      7          6           0        2.859241   -1.515084    0.016351
      8          6           0        1.334913   -1.727822   -0.052498
      9          6           0        0.977915   -0.395400   -0.862273
     10          6           0        2.119395    0.490555   -0.587190
     11          6           0        0.457696   -0.532189   -2.283409
     12          6           0        0.785332   -1.833896    1.380549
     13          6           0       -0.541154   -2.645387    1.461491
     14          6           0       -1.101045   -3.528775    0.252747
     15          8           0       -0.937761   -4.715459    0.061568
     16          8           0       -1.719888   -2.676461   -0.688974
     17          7           0        4.450127    2.700160   -0.453624
     18          6           0        3.152355    2.925155   -0.871123
     19          6           0        3.030260    4.338588   -1.214825
     20          6           0        4.290645    4.940139   -0.976549
     21          6           0        5.148700    3.797999   -0.551633
     22          6           0        1.804956    4.963569   -1.715800
     23          6           0        4.741259    6.489614   -1.086702
     24          8           0        5.807141    6.864157   -0.680480
     25          6           0        3.730500    7.598610   -1.429837
     26          7           0        7.278517    1.522485   -0.111875
     27          6           0        7.508659    2.832566   -0.077022
     28          6           0        8.952019    3.204727    0.131503
     29          6           0        9.448133    1.893975    0.789442
     30          6           0        8.371389    0.892894    0.245732
     31          6           0        9.749791    3.528688   -1.216359
     32          6           0        9.593411    1.915449    2.368905
     33          6           0        9.926394    3.248656    3.099798
     34          7           0        6.068740   -1.010795    0.253004
     35          6           0        7.323227   -1.436394    0.542630
     36          6           0        7.352049   -2.793265    0.854363
     37          6           0        6.055359   -3.194540    0.703895
     38          6           0        5.275789   -2.107838    0.360081
     39          6           0        8.571920   -3.582313    1.321997
     40          6           0        5.214109   -4.393546    0.835868
     41          8           0        5.469470   -5.581718    0.962666
     42          6           0        3.727934   -3.867642    0.621800
     43          6           0        3.109253   -4.709403   -0.387284
     44          8           0        3.276577   -4.649558   -1.609550
     45          8           0        2.525169   -5.736630    0.264234
     46          6           0        2.199728   -6.842481   -0.618526
     47          6           0       -2.460997   -3.312833   -1.795426
     48          6           0       -3.911947   -2.897317   -1.647523
     49          6           0       -4.802952   -3.389423   -0.778540
     50          6           0       -4.533242   -4.529537    0.217938
     51          6           0       -6.244239   -2.875750   -0.665060
     52          6           0       -6.336416   -1.493413    0.011836
     53          6           0       -6.934769   -0.382060   -0.849957
     54          6           0       -8.320263    0.093536   -0.207797
     55          6           0       -8.047149    1.258978    0.855297
     56          6           0       -9.233256    0.625601   -1.406842
     57          6           0      -10.617759    0.042676   -1.323732
     58          6           0      -11.610634    0.824714   -2.030033
     59          6           0      -13.033826    0.758970   -1.379604
     60          6           0      -14.161624    0.820575   -2.536360
     61          6           0      -13.401346    1.927984   -0.426400
     62          6           0      -13.165414    1.562420    1.070085
     63          6           0      -12.357920    2.637973    1.805415
     64          6           0      -12.511373    2.484575    3.373478
     65          6           0      -13.121061    3.736179    4.056707
     66          6           0      -11.084090    2.104403    3.922483
     67          1           0        1.199708    2.170937   -1.292315
     68          1           0        6.935021    4.839774   -0.411580
     69          1           0        9.465683   -0.826681    0.880416
     70          1           0        1.075821   -2.571518   -0.692270
     71          1           0        0.126500    0.042051   -0.342690
     72          1           0       -0.584257   -0.225582   -2.370088
     73          1           0        0.550265   -1.564456   -2.620457
     74          1           0        1.037236    0.018806   -3.024145
     75          1           0        0.505009   -0.827933    1.693686
     76          1           0        1.511669   -2.192120    2.109845
     77          1           0       -1.362223   -2.039306    1.845736
     78          1           0       -0.383722   -3.232804    2.365959
     79          1           0        0.916524    4.405662   -1.420707
     80          1           0        1.919307    4.980430   -2.799791
     81          1           0        1.643548    5.979221   -1.353886
     82          1           0        2.960519    7.742671   -0.671932
     83          1           0        3.399363    7.360297   -2.440844
     84          1           0        4.254986    8.542641   -1.579860
     85          1           0        8.882197    4.091942    0.760395
     86          1           0       10.418133    1.568186    0.414653
     87          1           0       10.277316    4.441794   -0.941524
     88          1           0        9.114047    3.726339   -2.080128
     89          1           0       10.495572    2.792684   -1.514277
     90          1           0       10.312279    1.151272    2.661049
     91          1           0        8.565074    1.706124    2.664076
     92          1           0        9.012712    3.802440    3.314326
     93          1           0       10.642865    3.726990    2.431079
     94          1           0       10.475636    3.084613    4.026257
     95          1           0        9.188520   -2.847585    1.840301
     96          1           0        9.181064   -3.959074    0.500874
     97          1           0        8.229899   -4.377312    1.984399
     98          1           0        3.224111   -3.974417    1.583282
     99          1           0        1.747886   -7.689293   -0.102742
    100          1           0        2.970303   -7.144406   -1.328053
    101          1           0        1.394318   -6.560691   -1.297642
    102          1           0       -2.363747   -4.398593   -1.830595
    103          1           0       -2.039031   -2.811850   -2.666703
    104          1           0       -4.288196   -2.134056   -2.328600
    105          1           0       -5.090252   -5.442134    0.005066
    106          1           0       -4.775387   -4.298342    1.255256
    107          1           0       -3.489392   -4.835648    0.285069
    108          1           0       -6.820177   -3.589629   -0.074464
    109          1           0       -6.607723   -2.943640   -1.690225
    110          1           0       -5.401961   -1.101910    0.412735
    111          1           0       -7.013602   -1.646720    0.853147
    112          1           0       -7.220179   -0.840028   -1.798058
    113          1           0       -6.271829    0.435985   -1.133071
    114          1           0       -8.780545   -0.626575    0.467533
    115          1           0       -8.375784    2.187464    0.388526
    116          1           0       -6.984784    1.430662    1.029206
    117          1           0       -8.617507    1.181206    1.781538
    118          1           0       -8.805891    0.417815   -2.388136
    119          1           0       -9.275806    1.710278   -1.303366
    120          1           0      -10.848550   -0.099863   -0.267233
    121          1           0      -10.500078   -0.956524   -1.742982
    122          1           0      -11.658005    0.418841   -3.040201
    123          1           0      -11.365360    1.879132   -2.154487
    124          1           0      -13.149554   -0.214265   -0.901510
    125          1           0      -14.132074    0.181897   -3.419286
    126          1           0      -14.403559    1.860047   -2.757402
    127          1           0      -15.093865    0.560493   -2.034771
    128          1           0      -14.462250    2.159168   -0.513152
    129          1           0      -12.800384    2.772632   -0.762174
    130          1           0      -12.553669    0.660452    1.073578
    131          1           0      -14.083200    1.240961    1.563078
    132          1           0      -12.634464    3.624080    1.431872
    133          1           0      -11.302240    2.622914    1.535181
    134          1           0      -13.105171    1.586580    3.543109
    135          1           0      -13.068936    4.652158    3.468317
    136          1           0      -12.586544    4.007968    4.967230
    137          1           0      -14.116441    3.531844    4.448102
    138          1           0      -11.290129    1.576152    4.854241
    139          1           0      -10.453063    2.956043    4.175063
    140          1           0      -10.603416    1.463919    3.182860
 ---------------------------------------------------------------------

 SCF Done:  E(RCAM-B3LYP) =  -3007.15544193     A.U. after   17 cycles

 Excitation energies and oscillator strengths:

 Excited State   1:      Singlet-A      1.8337 eV  676.14 nm  f=0.3611  <S**2>=0.000
     245 -> 248        0.18799
     246 -> 247        0.68150
     245 <- 248        0.10386
 This state for optimization and/or second-order correction.
 Total Energy, E(TD-HF/TD-DFT) =  -3007.08805402
 Copying the excited state density for this state as the 1-particle RhoCI density.

 Excited State   2:      Singlet-A      2.2395 eV  553.62 nm  f=0.1668  <S**2>=0.000
     245 -> 247        0.65520
     246 -> 248       -0.25292

 Excited State   3:      Singlet-A      3.5693 eV  347.36 nm  f=0.0010  <S**2>=0.000
     241 -> 247       -0.13789
     244 -> 247        0.66721

 Excited State   4:      Singlet-A      3.6718 eV  337.66 nm  f=0.4579  <S**2>=0.000
     240 -> 247        0.20408
     241 -> 247        0.24178
     243 -> 247        0.12635
     245 -> 247        0.19876
     246 -> 248        0.56186

 Excited State   5:      Singlet-A      3.6878 eV  336.20 nm  f=0.0283  <S**2>=0.000
     243 -> 247        0.55451
     243 -> 249       -0.24458
     243 -> 251        0.26144
     246 -> 248       -0.15756

 The electronic state is 1-A.
 Alpha  occ. eigenvalues --  -46.89288 -19.24630 -19.24208 -19.21159 -19.20473
 Alpha  occ. eigenvalues --  -19.18666 -19.18266 -14.41426 -14.41053 -14.39882
 Alpha  occ. eigenvalues --  -14.38551 -10.40680 -10.37719 -10.36927 -10.34615
 Alpha  occ. eigenvalues --  -10.32006 -10.31169 -10.30701 -10.30660 -10.30545
 Alpha  occ. eigenvalues --  -10.29602 -10.29566 -10.29527 -10.29361 -10.28434
 Alpha  occ. eigenvalues --  -10.28322 -10.28217 -10.28113 -10.28038 -10.27761
 Alpha  occ. eigenvalues --  -10.27598 -10.27473 -10.27441 -10.27361 -10.27304
 Alpha  occ. eigenvalues --  -10.27247 -10.27198 -10.27083 -10.26891 -10.26604
 Alpha  occ. eigenvalues --  -10.26421 -10.26169 -10.26155 -10.26068 -10.25970
 Alpha  occ. eigenvalues --  -10.25930 -10.25871 -10.25568 -10.25492 -10.25489
 Alpha  occ. eigenvalues --  -10.25364 -10.25338 -10.25293 -10.25250 -10.25121
 Alpha  occ. eigenvalues --  -10.24951 -10.24862 -10.24781 -10.24696 -10.24686
 Alpha  occ. eigenvalues --  -10.24661 -10.24652 -10.24346 -10.24194 -10.24102
 Alpha  occ. eigenvalues --  -10.23600  -3.17789  -1.92690  -1.92262  -1.92073
 Alpha  occ. eigenvalues --   -1.15837  -1.15644  -1.12557  -1.09242  -1.08045
 Alpha  occ. eigenvalues --   -1.06087  -1.05708  -1.05143  -1.04564  -1.03315
 Alpha  occ. eigenvalues --   -0.92187  -0.90499  -0.89923  -0.89352  -0.89097
 Alpha  occ. eigenvalues --   -0.88327  -0.88042  -0.87492  -0.87008  -0.86860
 Alpha  occ. eigenvalues --   -0.85493  -0.85161  -0.84665  -0.83059  -0.82781
 Alpha  occ. eigenvalues --   -0.82345  -0.81897  -0.81042  -0.80601  -0.79906
 Alpha  occ. eigenvalues --   -0.79733  -0.78562  -0.77784  -0.76413  -0.75656
 Alpha  occ. eigenvalues --   -0.75611  -0.75534  -0.75043  -0.74754  -0.73732
 Alpha  occ. eigenvalues --   -0.73561  -0.72655  -0.71631  -0.70527  -0.69290
 Alpha  occ. eigenvalues --   -0.68334  -0.67846  -0.66898  -0.66647  -0.65881
 Alpha  occ. eigenvalues --   -0.64997  -0.64970  -0.64793  -0.64588  -0.63853
 Alpha  occ. eigenvalues --   -0.63582  -0.62902  -0.62819  -0.61378  -0.60743
 Alpha  occ. eigenvalues --   -0.59797  -0.59304  -0.59115  -0.58335  -0.57692
 Alpha  occ. eigenvalues --   -0.57384  -0.57028  -0.56399  -0.55692  -0.55228
 Alpha  occ. eigenvalues --   -0.55147  -0.54923  -0.54774  -0.54500  -0.53772
 Alpha  occ. eigenvalues --   -0.53739  -0.53322  -0.53176  -0.52863  -0.52781
 Alpha  occ. eigenvalues --   -0.52453  -0.52149  -0.52128  -0.51757  -0.51601
 Alpha  occ. eigenvalues --   -0.51171  -0.51079  -0.50935  -0.50792  -0.50595
 Alpha  occ. eigenvalues --   -0.50301  -0.50265  -0.50107  -0.49865  -0.49599
 Alpha  occ. eigenvalues --   -0.49063  -0.49030  -0.48863  -0.48758  -0.48591
 Alpha  occ. eigenvalues --   -0.48357  -0.48177  -0.47912  -0.47619  -0.47477
 Alpha  occ. eigenvalues --   -0.47186  -0.46978  -0.46914  -0.46745  -0.46497
 Alpha  occ. eigenvalues --   -0.46338  -0.46208  -0.46125  -0.46062  -0.45757
 Alpha  occ. eigenvalues --   -0.45605  -0.45293  -0.45204  -0.44797  -0.44560
 Alpha  occ. eigenvalues --   -0.44299  -0.44243  -0.44084  -0.43920  -0.43829
 Alpha  occ. eigenvalues --   -0.43555  -0.43407  -0.43333  -0.43176  -0.42941
 Alpha  occ. eigenvalues --   -0.42937  -0.42757  -0.42529  -0.42405  -0.42078
 Alpha  occ. eigenvalues --   -0.42039  -0.41810  -0.41698  -0.41290  -0.41017
 Alpha  occ. eigenvalues --   -0.40934  -0.40910  -0.40341  -0.40164  -0.39930
 Alpha  occ. eigenvalues --   -0.39782  -0.39681  -0.39473  -0.39266  -0.38926
 Alpha  occ. eigenvalues --   -0.38670  -0.38396  -0.38244  -0.38067  -0.37530
 Alpha  occ. eigenvalues --   -0.37382  -0.36681  -0.36501  -0.35918  -0.35863
 Alpha  occ. eigenvalues --   -0.35579  -0.35274  -0.34805  -0.34444  -0.34114
 Alpha  occ. eigenvalues --   -0.33427  -0.33285  -0.32342  -0.31876  -0.31457
 Alpha  occ. eigenvalues --   -0.30548  -0.30368  -0.30159  -0.29367  -0.23293
 Alpha  occ. eigenvalues --   -0.21286
 Alpha virt. eigenvalues --   -0.08172  -0.01005   0.00652   0.02481   0.02909
 Alpha virt. eigenvalues --    0.03572   0.05123   0.05981   0.06170   0.06903
 Alpha virt. eigenvalues --    0.07799   0.07839   0.08354   0.09043   0.09088

 Mulliken charges:
               1
     1  Mg   0.823944
     2  C    0.010168
     3  C   -0.058322
     4  C   -0.077744
     5  C   -0.071223
     6  N   -0.187395
     7  C   -0.096056
     8  C   -0.075732
     9  C   -0.022293
    10  C   -0.029762
    11  C    0.089046
    12  C    0.101472
    13  C    0.069490
    14  C    0.185499
    15  O   -0.206222
    16  O   -0.376193
    17  N   -0.382854
    18  C    0.143081
    19  C   -0.138060
    20  C   -0.053325
    21  C    0.096469
    22  C    0.105705
    23  C    0.029584
    24  O   -0.167382
    25  C    0.040858
    26  N   -0.248063
    27  C    0.043820
    28  C   -0.049634
    29  C   -0.064475
    30  C    0.033799
    31  C    0.074686
    32  C    0.034683
    33  C    0.005252
    34  N   -0.317405
    35  C    0.075752
    36  C   -0.206497
    37  C    0.001786
    38  C    0.121233
    39  C    0.136420
    40  C    0.060688
    41  O   -0.160195
    42  C   -0.026632
    43  C    0.189214
    44  O   -0.246539
    45  O   -0.296251
    46  C    0.197790
    47  C    0.300893
    48  C   -0.130691
    49  C   -0.149811
    50  C    0.048101
    51  C    0.076965
    52  C    0.050595
    53  C    0.033307
    54  C   -0.159269
    55  C    0.027361
    56  C    0.049191
    57  C    0.026366
    58  C    0.104483
    59  C   -0.155367
    60  C    0.014422
    61  C    0.080878
    62  C    0.007479
    63  C    0.029318
    64  C   -0.138832
    65  C    0.061338
    66  C    0.020398
    67  H   -0.035381
    68  H   -0.014237
    69  H   -0.022139
    70  H    0.045222
    71  H   -0.008158
    72  H    0.019059
    73  H    0.020892
    74  H    0.010990
    75  H    0.003911
    76  H    0.024012
    77  H    0.017736
    78  H    0.013338
    79  H    0.021304
    80  H    0.041540
    81  H    0.018145
    82  H    0.065025
    83  H    0.023081
    84  H    0.023832
    85  H    0.019357
    86  H   -0.009409
    87  H    0.019925
    88  H    0.023888
    89  H    0.021261
    90  H    0.012411
    91  H    0.003361
    92  H    0.029191
    93  H    0.014297
    94  H    0.015575
    95  H    0.005448
    96  H    0.029849
    97  H    0.032654
    98  H    0.042551
    99  H    0.029468
   100  H    0.036799
   101  H    0.012268
   102  H    0.048836
   103  H    0.008778
   104  H   -0.018176
   105  H    0.025293
   106  H    0.012463
   107  H    0.008258
   108  H   -0.007571
   109  H    0.019479
   110  H    0.010816
   111  H   -0.003603
   112  H   -0.010790
   113  H    0.005506
   114  H    0.008545
   115  H   -0.004481
   116  H    0.005307
   117  H    0.016631
   118  H   -0.003406
   119  H   -0.012824
   120  H   -0.009411
   121  H   -0.004799
   122  H   -0.013951
   123  H   -0.014405
   124  H   -0.001247
   125  H    0.012999
   126  H    0.002976
   127  H   -0.008926
   128  H   -0.000338
   129  H   -0.004433
   130  H   -0.012937
   131  H    0.002752
   132  H   -0.009160
   133  H   -0.012128
   134  H    0.000762
   135  H    0.013144
   136  H   -0.009377
   137  H    0.009615
   138  H    0.003143
   139  H    0.013000
   140  H    0.017283
 Sum of Mulliken charges =  -0.00000

 Dipole moment (field-independent basis, Debye):
    X=             -5.2211    Y=              5.7440    Z=              0.9483  Tot=              7.8200
 Quadrupole moment (field-independent basis, Debye-Ang):
   XX=           -392.3602   YY=           -429.5666   ZZ=           -398.4627
   XY=             27.7508   XZ=              6.0666   YZ=             -5.8756

 Normal termination of Gaussian 16 at Fri Apr 29 06:08:41 2022.
