 Gaussian 16, Revision A.03,
 Gaussian 16:  ES64L-G16RevA.03 25-Dec-2016

 ---------------------------------
 #p PBE1PBE/Def2SVP td=(nstates=5)
 ---------------------------------

 ---------------------------------------------------
 step_1_chromophore_24 TDDFT with PBE1PBE functional
 ---------------------------------------------------
 Symbolic Z-matrix:
 Charge =  0 Multiplicity = 1

                         Standard orientation:
 ---------------------------------------------------------------------
 Center     Atomic      Atomic             Coordinates (Angstroms)
 Number     Number       Type             X           Y           Z
 ---------------------------------------------------------------------
      1         12           0        5.267203    0.915651    0.009620
      2          6           0        3.868150   -2.425127    0.266195
      3          6           0        2.156697    1.896307   -0.843585
      4          6           0        6.531370    3.835795   -0.268638
      5          6           0        8.472546   -0.465018    0.606614
      6          7           0        3.160624   -0.228362   -0.229346
      7          6           0        2.859241   -1.515084    0.016351
      8          6           0        1.334913   -1.727822   -0.052498
      9          6           0        0.977915   -0.395400   -0.862273
     10          6           0        2.119395    0.490555   -0.587190
     11          6           0        0.457696   -0.532189   -2.283409
     12          6           0        0.785332   -1.833896    1.380549
     13          6           0       -0.541154   -2.645387    1.461491
     14          6           0       -1.101045   -3.528775    0.252747
     15          8           0       -0.937761   -4.715459    0.061568
     16          8           0       -1.719888   -2.676461   -0.688974
     17          7           0        4.450127    2.700160   -0.453624
     18          6           0        3.152355    2.925155   -0.871123
     19          6           0        3.030260    4.338588   -1.214825
     20          6           0        4.290645    4.940139   -0.976549
     21          6           0        5.148700    3.797999   -0.551633
     22          6           0        1.804956    4.963569   -1.715800
     23          6           0        4.741259    6.489614   -1.086702
     24          8           0        5.807141    6.864157   -0.680480
     25          6           0        3.730500    7.598610   -1.429837
     26          7           0        7.278517    1.522485   -0.111875
     27          6           0        7.508659    2.832566   -0.077022
     28          6           0        8.952019    3.204727    0.131503
     29          6           0        9.448133    1.893975    0.789442
     30          6           0        8.371389    0.892894    0.245732
     31          6           0        9.749791    3.528688   -1.216359
     32          6           0        9.593411    1.915449    2.368905
     33          6           0        9.926394    3.248656    3.099798
     34          7           0        6.068740   -1.010795    0.253004
     35          6           0        7.323227   -1.436394    0.542630
     36          6           0        7.352049   -2.793265    0.854363
     37          6           0        6.055359   -3.194540    0.703895
     38          6           0        5.275789   -2.107838    0.360081
     39          6           0        8.571920   -3.582313    1.321997
     40          6           0        5.214109   -4.393546    0.835868
     41          8           0        5.469470   -5.581718    0.962666
     42          6           0        3.727934   -3.867642    0.621800
     43          6           0        3.109253   -4.709403   -0.387284
     44          8           0        3.276577   -4.649558   -1.609550
     45          8           0        2.525169   -5.736630    0.264234
     46          6           0        2.199728   -6.842481   -0.618526
     47          6           0       -2.460997   -3.312833   -1.795426
     48          6           0       -3.911947   -2.897317   -1.647523
     49          6           0       -4.802952   -3.389423   -0.778540
     50          6           0       -4.533242   -4.529537    0.217938
     51          6           0       -6.244239   -2.875750   -0.665060
     52          6           0       -6.336416   -1.493413    0.011836
     53          6           0       -6.934769   -0.382060   -0.849957
     54          6           0       -8.320263    0.093536   -0.207797
     55          6           0       -8.047149    1.258978    0.855297
     56          6           0       -9.233256    0.625601   -1.406842
     57          6           0      -10.617759    0.042676   -1.323732
     58          6           0      -11.610634    0.824714   -2.030033
     59          6           0      -13.033826    0.758970   -1.379604
     60          6           0      -14.161624    0.820575   -2.536360
     61          6           0      -13.401346    1.927984   -0.426400
     62          6           0      -13.165414    1.562420    1.070085
     63          6           0      -12.357920    2.637973    1.805415
     64          6           0      -12.511373    2.484575    3.373478
     65          6           0      -13.121061    3.736179    4.056707
     66          6           0      -11.084090    2.104403    3.922483
     67          1           0        1.199708    2.170937   -1.292315
     68          1           0        6.935021    4.839774   -0.411580
     69          1           0        9.465683   -0.826681    0.880416
     70          1           0        1.075821   -2.571518   -0.692270
     71          1           0        0.126500    0.042051   -0.342690
     72          1           0       -0.584257   -0.225582   -2.370088
     73          1           0        0.550265   -1.564456   -2.620457
     74          1           0        1.037236    0.018806   -3.024145
     75          1           0        0.505009   -0.827933    1.693686
     76          1           0        1.511669   -2.192120    2.109845
     77          1           0       -1.362223   -2.039306    1.845736
     78          1           0       -0.383722   -3.232804    2.365959
     79          1           0        0.916524    4.405662   -1.420707
     80          1           0        1.919307    4.980430   -2.799791
     81          1           0        1.643548    5.979221   -1.353886
     82          1           0        2.960519    7.742671   -0.671932
     83          1           0        3.399363    7.360297   -2.440844
     84          1           0        4.254986    8.542641   -1.579860
     85          1           0        8.882197    4.091942    0.760395
     86          1           0       10.418133    1.568186    0.414653
     87          1           0       10.277316    4.441794   -0.941524
     88          1           0        9.114047    3.726339   -2.080128
     89          1           0       10.495572    2.792684   -1.514277
     90          1           0       10.312279    1.151272    2.661049
     91          1           0        8.565074    1.706124    2.664076
     92          1           0        9.012712    3.802440    3.314326
     93          1           0       10.642865    3.726990    2.431079
     94          1           0       10.475636    3.084613    4.026257
     95          1           0        9.188520   -2.847585    1.840301
     96          1           0        9.181064   -3.959074    0.500874
     97          1           0        8.229899   -4.377312    1.984399
     98          1           0        3.224111   -3.974417    1.583282
     99          1           0        1.747886   -7.689293   -0.102742
    100          1           0        2.970303   -7.144406   -1.328053
    101          1           0        1.394318   -6.560691   -1.297642
    102          1           0       -2.363747   -4.398593   -1.830595
    103          1           0       -2.039031   -2.811850   -2.666703
    104          1           0       -4.288196   -2.134056   -2.328600
    105          1           0       -5.090252   -5.442134    0.005066
    106          1           0       -4.775387   -4.298342    1.255256
    107          1           0       -3.489392   -4.835648    0.285069
    108          1           0       -6.820177   -3.589629   -0.074464
    109          1           0       -6.607723   -2.943640   -1.690225
    110          1           0       -5.401961   -1.101910    0.412735
    111          1           0       -7.013602   -1.646720    0.853147
    112          1           0       -7.220179   -0.840028   -1.798058
    113          1           0       -6.271829    0.435985   -1.133071
    114          1           0       -8.780545   -0.626575    0.467533
    115          1           0       -8.375784    2.187464    0.388526
    116          1           0       -6.984784    1.430662    1.029206
    117          1           0       -8.617507    1.181206    1.781538
    118          1           0       -8.805891    0.417815   -2.388136
    119          1           0       -9.275806    1.710278   -1.303366
    120          1           0      -10.848550   -0.099863   -0.267233
    121          1           0      -10.500078   -0.956524   -1.742982
    122          1           0      -11.658005    0.418841   -3.040201
    123          1           0      -11.365360    1.879132   -2.154487
    124          1           0      -13.149554   -0.214265   -0.901510
    125          1           0      -14.132074    0.181897   -3.419286
    126          1           0      -14.403559    1.860047   -2.757402
    127          1           0      -15.093865    0.560493   -2.034771
    128          1           0      -14.462250    2.159168   -0.513152
    129          1           0      -12.800384    2.772632   -0.762174
    130          1           0      -12.553669    0.660452    1.073578
    131          1           0      -14.083200    1.240961    1.563078
    132          1           0      -12.634464    3.624080    1.431872
    133          1           0      -11.302240    2.622914    1.535181
    134          1           0      -13.105171    1.586580    3.543109
    135          1           0      -13.068936    4.652158    3.468317
    136          1           0      -12.586544    4.007968    4.967230
    137          1           0      -14.116441    3.531844    4.448102
    138          1           0      -11.290129    1.576152    4.854241
    139          1           0      -10.453063    2.956043    4.175063
    140          1           0      -10.603416    1.463919    3.182860
 ---------------------------------------------------------------------

 SCF Done:  E(RPBE1PBE) =  -3005.34292754     A.U. after   15 cycles

 Excitation energies and oscillator strengths:

 Excited State   1:      Singlet-A      1.9467 eV  636.88 nm  f=0.3473  <S**2>=0.000
     245 -> 248       -0.18459
     246 -> 247        0.68738
 This state for optimization and/or second-order correction.
 Total Energy, E(TD-HF/TD-DFT) =  -3005.27138615
 Copying the excited state density for this state as the 1-particle RhoCI density.

 Excited State   2:      Singlet-A      2.2399 eV  553.52 nm  f=0.1612  <S**2>=0.000
     245 -> 247        0.66545
     246 -> 248        0.22947

 Excited State   3:      Singlet-A      3.1094 eV  398.74 nm  f=0.0001  <S**2>=0.000
     243 -> 247        0.36565
     244 -> 247        0.57510

 Excited State   4:      Singlet-A      3.2006 eV  387.38 nm  f=0.0012  <S**2>=0.000
     243 -> 247        0.57993
     244 -> 247       -0.38013

 Excited State   5:      Singlet-A      3.3722 eV  367.66 nm  f=0.0001  <S**2>=0.000
     240 -> 247        0.53197
     240 -> 249       -0.16600
     241 -> 247        0.39963

 The electronic state is 1-A.
 Alpha  occ. eigenvalues --  -46.92679 -19.25341 -19.24881 -19.21402 -19.20449
 Alpha  occ. eigenvalues --  -19.19115 -19.18531 -14.40717 -14.40659 -14.39363
 Alpha  occ. eigenvalues --  -14.38375 -10.37737 -10.34724 -10.33890 -10.31978
 Alpha  occ. eigenvalues --  -10.29396 -10.28509 -10.28140 -10.28040 -10.27961
 Alpha  occ. eigenvalues --  -10.27474 -10.27462 -10.26861 -10.26597 -10.26424
 Alpha  occ. eigenvalues --  -10.25931 -10.25858 -10.25715 -10.25650 -10.25626
 Alpha  occ. eigenvalues --  -10.25194 -10.25153 -10.25148 -10.25125 -10.25107
 Alpha  occ. eigenvalues --  -10.25048 -10.24576 -10.24391 -10.24380 -10.24357
 Alpha  occ. eigenvalues --  -10.24201 -10.23857 -10.23850 -10.23794 -10.23536
 Alpha  occ. eigenvalues --  -10.23475 -10.23403 -10.23241 -10.23051 -10.23035
 Alpha  occ. eigenvalues --  -10.22969 -10.22961 -10.22901 -10.22846 -10.22801
 Alpha  occ. eigenvalues --  -10.22517 -10.22392 -10.22273 -10.22210 -10.22203
 Alpha  occ. eigenvalues --  -10.22054 -10.22046 -10.21784 -10.21703 -10.21611
 Alpha  occ. eigenvalues --  -10.21573  -3.14761  -1.87603  -1.87154  -1.86970
 Alpha  occ. eigenvalues --   -1.10644  -1.10415  -1.07107  -1.04190  -1.02911
 Alpha  occ. eigenvalues --   -1.00911  -1.00364  -0.99701  -0.99084  -0.98278
 Alpha  occ. eigenvalues --   -0.86638  -0.84603  -0.84040  -0.83536  -0.83145
 Alpha  occ. eigenvalues --   -0.82421  -0.82345  -0.81697  -0.81196  -0.81101
 Alpha  occ. eigenvalues --   -0.80083  -0.79338  -0.78825  -0.77372  -0.77080
 Alpha  occ. eigenvalues --   -0.76546  -0.75891  -0.75263  -0.74826  -0.74265
 Alpha  occ. eigenvalues --   -0.73901  -0.72631  -0.72061  -0.70753  -0.70028
 Alpha  occ. eigenvalues --   -0.69753  -0.69683  -0.69379  -0.68899  -0.67888
 Alpha  occ. eigenvalues --   -0.67849  -0.67193  -0.65996  -0.64826  -0.63686
 Alpha  occ. eigenvalues --   -0.62577  -0.62305  -0.61344  -0.60853  -0.60257
 Alpha  occ. eigenvalues --   -0.59577  -0.59137  -0.59068  -0.58930  -0.58144
 Alpha  occ. eigenvalues --   -0.58030  -0.57359  -0.57089  -0.56008  -0.55115
 Alpha  occ. eigenvalues --   -0.54216  -0.53754  -0.53680  -0.52892  -0.52341
 Alpha  occ. eigenvalues --   -0.51953  -0.51438  -0.50885  -0.50111  -0.49775
 Alpha  occ. eigenvalues --   -0.49541  -0.49440  -0.49302  -0.49024  -0.48302
 Alpha  occ. eigenvalues --   -0.47983  -0.47847  -0.47716  -0.47326  -0.47229
 Alpha  occ. eigenvalues --   -0.46931  -0.46709  -0.46615  -0.46227  -0.45982
 Alpha  occ. eigenvalues --   -0.45808  -0.45666  -0.45439  -0.45299  -0.45119
 Alpha  occ. eigenvalues --   -0.44980  -0.44788  -0.44638  -0.44543  -0.44172
 Alpha  occ. eigenvalues --   -0.43621  -0.43496  -0.43362  -0.43277  -0.43201
 Alpha  occ. eigenvalues --   -0.43049  -0.42796  -0.42579  -0.42303  -0.42110
 Alpha  occ. eigenvalues --   -0.41916  -0.41646  -0.41557  -0.41415  -0.41153
 Alpha  occ. eigenvalues --   -0.40978  -0.40784  -0.40708  -0.40691  -0.40442
 Alpha  occ. eigenvalues --   -0.40388  -0.40119  -0.39869  -0.39685  -0.39350
 Alpha  occ. eigenvalues --   -0.39048  -0.38863  -0.38792  -0.38621  -0.38509
 Alpha  occ. eigenvalues --   -0.38363  -0.38085  -0.37988  -0.37953  -0.37754
 Alpha  occ. eigenvalues --   -0.37636  -0.37611  -0.37456  -0.37290  -0.37050
 Alpha  occ. eigenvalues --   -0.36862  -0.36637  -0.36412  -0.36125  -0.35838
 Alpha  occ. eigenvalues --   -0.35749  -0.35692  -0.35273  -0.34944  -0.34718
 Alpha  occ. eigenvalues --   -0.34610  -0.34453  -0.34351  -0.34091  -0.33693
 Alpha  occ. eigenvalues --   -0.33437  -0.33306  -0.33025  -0.32987  -0.32361
 Alpha  occ. eigenvalues --   -0.32303  -0.31731  -0.31447  -0.30845  -0.30663
 Alpha  occ. eigenvalues --   -0.30622  -0.30189  -0.29688  -0.29440  -0.29347
 Alpha  occ. eigenvalues --   -0.28438  -0.28407  -0.27663  -0.26880  -0.26515
 Alpha  occ. eigenvalues --   -0.26080  -0.25673  -0.25342  -0.25148  -0.20259
 Alpha  occ. eigenvalues --   -0.18797
 Alpha virt. eigenvalues --   -0.10682  -0.04568  -0.03524  -0.01690  -0.01049
 Alpha virt. eigenvalues --   -0.00206   0.00593   0.01507   0.02236   0.02893
 Alpha virt. eigenvalues --    0.03950   0.04566   0.04712   0.05336   0.05759

 Mulliken charges:
               1
     1  Mg   0.971235
     2  C   -0.008537
     3  C   -0.057158
     4  C   -0.063162
     5  C   -0.065730
     6  N   -0.292786
     7  C   -0.008910
     8  C   -0.150881
     9  C   -0.103049
    10  C    0.018959
    11  C    0.034197
    12  C    0.050273
    13  C    0.010590
    14  C    0.232281
    15  O   -0.239616
    16  O   -0.398380
    17  N   -0.503276
    18  C    0.165604
    19  C   -0.181638
    20  C   -0.087921
    21  C    0.123412
    22  C    0.049975
    23  C    0.078212
    24  O   -0.203922
    25  C   -0.034025
    26  N   -0.352648
    27  C    0.071825
    28  C   -0.129441
    29  C   -0.140542
    30  C    0.080245
    31  C    0.022746
    32  C   -0.023363
    33  C   -0.070384
    34  N   -0.449124
    35  C    0.101904
    36  C   -0.217395
    37  C   -0.060112
    38  C    0.176285
    39  C    0.082745
    40  C    0.161770
    41  O   -0.204082
    42  C   -0.133876
    43  C    0.279841
    44  O   -0.281400
    45  O   -0.329018
    46  C    0.140272
    47  C    0.251099
    48  C   -0.139227
    49  C   -0.191188
    50  C   -0.014865
    51  C    0.013666
    52  C   -0.009678
    53  C   -0.022299
    54  C   -0.242934
    55  C   -0.031135
    56  C   -0.003536
    57  C   -0.042003
    58  C    0.054186
    59  C   -0.243342
    60  C   -0.050429
    61  C    0.028067
    62  C   -0.057549
    63  C   -0.025567
    64  C   -0.229361
    65  C    0.002676
    66  C   -0.049316
    67  H   -0.003269
    68  H    0.018940
    69  H    0.009305
    70  H    0.086784
    71  H    0.031108
    72  H    0.044654
    73  H    0.046942
    74  H    0.038987
    75  H    0.037395
    76  H    0.054888
    77  H    0.048452
    78  H    0.045274
    79  H    0.046858
    80  H    0.068396
    81  H    0.044981
    82  H    0.089059
    83  H    0.050317
    84  H    0.051001
    85  H    0.054356
    86  H    0.027630
    87  H    0.047266
    88  H    0.051221
    89  H    0.046806
    90  H    0.043443
    91  H    0.039483
    92  H    0.056703
    93  H    0.043510
    94  H    0.044758
    95  H    0.033918
    96  H    0.059167
    97  H    0.061361
    98  H    0.080221
    99  H    0.052055
   100  H    0.059015
   101  H    0.035631
   102  H    0.074273
   103  H    0.036964
   104  H    0.012585
   105  H    0.053253
   106  H    0.040501
   107  H    0.038443
   108  H    0.024713
   109  H    0.050359
   110  H    0.042560
   111  H    0.029565
   112  H    0.023651
   113  H    0.036303
   114  H    0.042200
   115  H    0.022370
   116  H    0.033015
   117  H    0.047399
   118  H    0.027938
   119  H    0.019530
   120  H    0.026854
   121  H    0.029560
   122  H    0.019421
   123  H    0.016421
   124  H    0.036505
   125  H    0.040153
   126  H    0.031817
   127  H    0.021145
   128  H    0.032391
   129  H    0.027048
   130  H    0.022542
   131  H    0.034151
   132  H    0.023192
   133  H    0.023030
   134  H    0.037686
   135  H    0.039259
   136  H    0.018281
   137  H    0.037083
   138  H    0.032165
   139  H    0.040608
   140  H    0.049190
 Sum of Mulliken charges =  -0.00000

 Dipole moment (field-independent basis, Debye):
    X=             -4.8910    Y=              5.2153    Z=              1.1511  Tot=              7.2420
 Quadrupole moment (field-independent basis, Debye-Ang):
   XX=           -382.8162   YY=           -427.9092   ZZ=           -395.7444
   XY=             25.5254   XZ=              7.5871   YZ=             -5.7401

 Normal termination of Gaussian 16 at Fri Apr 29 06:26:40 2022.
