 Gaussian 16, Revision A.03,
 Gaussian 16:  ES64L-G16RevA.03 25-Dec-2016

 --------------------------------
 #p wB97XD/Def2SVP td=(nstates=5)
 --------------------------------

 --------------------------------------------------
 step_1_chromophore_24 TDDFT with wB97XD functional
 --------------------------------------------------
 Symbolic Z-matrix:
 Charge =  0 Multiplicity = 1

                         Standard orientation:
 ---------------------------------------------------------------------
 Center     Atomic      Atomic             Coordinates (Angstroms)
 Number     Number       Type             X           Y           Z
 ---------------------------------------------------------------------
      1         12           0        5.267203    0.915651    0.009620
      2          6           0        3.868150   -2.425127    0.266195
      3          6           0        2.156697    1.896307   -0.843585
      4          6           0        6.531370    3.835795   -0.268638
      5          6           0        8.472546   -0.465018    0.606614
      6          7           0        3.160624   -0.228362   -0.229346
      7          6           0        2.859241   -1.515084    0.016351
      8          6           0        1.334913   -1.727822   -0.052498
      9          6           0        0.977915   -0.395400   -0.862273
     10          6           0        2.119395    0.490555   -0.587190
     11          6           0        0.457696   -0.532189   -2.283409
     12          6           0        0.785332   -1.833896    1.380549
     13          6           0       -0.541154   -2.645387    1.461491
     14          6           0       -1.101045   -3.528775    0.252747
     15          8           0       -0.937761   -4.715459    0.061568
     16          8           0       -1.719888   -2.676461   -0.688974
     17          7           0        4.450127    2.700160   -0.453624
     18          6           0        3.152355    2.925155   -0.871123
     19          6           0        3.030260    4.338588   -1.214825
     20          6           0        4.290645    4.940139   -0.976549
     21          6           0        5.148700    3.797999   -0.551633
     22          6           0        1.804956    4.963569   -1.715800
     23          6           0        4.741259    6.489614   -1.086702
     24          8           0        5.807141    6.864157   -0.680480
     25          6           0        3.730500    7.598610   -1.429837
     26          7           0        7.278517    1.522485   -0.111875
     27          6           0        7.508659    2.832566   -0.077022
     28          6           0        8.952019    3.204727    0.131503
     29          6           0        9.448133    1.893975    0.789442
     30          6           0        8.371389    0.892894    0.245732
     31          6           0        9.749791    3.528688   -1.216359
     32          6           0        9.593411    1.915449    2.368905
     33          6           0        9.926394    3.248656    3.099798
     34          7           0        6.068740   -1.010795    0.253004
     35          6           0        7.323227   -1.436394    0.542630
     36          6           0        7.352049   -2.793265    0.854363
     37          6           0        6.055359   -3.194540    0.703895
     38          6           0        5.275789   -2.107838    0.360081
     39          6           0        8.571920   -3.582313    1.321997
     40          6           0        5.214109   -4.393546    0.835868
     41          8           0        5.469470   -5.581718    0.962666
     42          6           0        3.727934   -3.867642    0.621800
     43          6           0        3.109253   -4.709403   -0.387284
     44          8           0        3.276577   -4.649558   -1.609550
     45          8           0        2.525169   -5.736630    0.264234
     46          6           0        2.199728   -6.842481   -0.618526
     47          6           0       -2.460997   -3.312833   -1.795426
     48          6           0       -3.911947   -2.897317   -1.647523
     49          6           0       -4.802952   -3.389423   -0.778540
     50          6           0       -4.533242   -4.529537    0.217938
     51          6           0       -6.244239   -2.875750   -0.665060
     52          6           0       -6.336416   -1.493413    0.011836
     53          6           0       -6.934769   -0.382060   -0.849957
     54          6           0       -8.320263    0.093536   -0.207797
     55          6           0       -8.047149    1.258978    0.855297
     56          6           0       -9.233256    0.625601   -1.406842
     57          6           0      -10.617759    0.042676   -1.323732
     58          6           0      -11.610634    0.824714   -2.030033
     59          6           0      -13.033826    0.758970   -1.379604
     60          6           0      -14.161624    0.820575   -2.536360
     61          6           0      -13.401346    1.927984   -0.426400
     62          6           0      -13.165414    1.562420    1.070085
     63          6           0      -12.357920    2.637973    1.805415
     64          6           0      -12.511373    2.484575    3.373478
     65          6           0      -13.121061    3.736179    4.056707
     66          6           0      -11.084090    2.104403    3.922483
     67          1           0        1.199708    2.170937   -1.292315
     68          1           0        6.935021    4.839774   -0.411580
     69          1           0        9.465683   -0.826681    0.880416
     70          1           0        1.075821   -2.571518   -0.692270
     71          1           0        0.126500    0.042051   -0.342690
     72          1           0       -0.584257   -0.225582   -2.370088
     73          1           0        0.550265   -1.564456   -2.620457
     74          1           0        1.037236    0.018806   -3.024145
     75          1           0        0.505009   -0.827933    1.693686
     76          1           0        1.511669   -2.192120    2.109845
     77          1           0       -1.362223   -2.039306    1.845736
     78          1           0       -0.383722   -3.232804    2.365959
     79          1           0        0.916524    4.405662   -1.420707
     80          1           0        1.919307    4.980430   -2.799791
     81          1           0        1.643548    5.979221   -1.353886
     82          1           0        2.960519    7.742671   -0.671932
     83          1           0        3.399363    7.360297   -2.440844
     84          1           0        4.254986    8.542641   -1.579860
     85          1           0        8.882197    4.091942    0.760395
     86          1           0       10.418133    1.568186    0.414653
     87          1           0       10.277316    4.441794   -0.941524
     88          1           0        9.114047    3.726339   -2.080128
     89          1           0       10.495572    2.792684   -1.514277
     90          1           0       10.312279    1.151272    2.661049
     91          1           0        8.565074    1.706124    2.664076
     92          1           0        9.012712    3.802440    3.314326
     93          1           0       10.642865    3.726990    2.431079
     94          1           0       10.475636    3.084613    4.026257
     95          1           0        9.188520   -2.847585    1.840301
     96          1           0        9.181064   -3.959074    0.500874
     97          1           0        8.229899   -4.377312    1.984399
     98          1           0        3.224111   -3.974417    1.583282
     99          1           0        1.747886   -7.689293   -0.102742
    100          1           0        2.970303   -7.144406   -1.328053
    101          1           0        1.394318   -6.560691   -1.297642
    102          1           0       -2.363747   -4.398593   -1.830595
    103          1           0       -2.039031   -2.811850   -2.666703
    104          1           0       -4.288196   -2.134056   -2.328600
    105          1           0       -5.090252   -5.442134    0.005066
    106          1           0       -4.775387   -4.298342    1.255256
    107          1           0       -3.489392   -4.835648    0.285069
    108          1           0       -6.820177   -3.589629   -0.074464
    109          1           0       -6.607723   -2.943640   -1.690225
    110          1           0       -5.401961   -1.101910    0.412735
    111          1           0       -7.013602   -1.646720    0.853147
    112          1           0       -7.220179   -0.840028   -1.798058
    113          1           0       -6.271829    0.435985   -1.133071
    114          1           0       -8.780545   -0.626575    0.467533
    115          1           0       -8.375784    2.187464    0.388526
    116          1           0       -6.984784    1.430662    1.029206
    117          1           0       -8.617507    1.181206    1.781538
    118          1           0       -8.805891    0.417815   -2.388136
    119          1           0       -9.275806    1.710278   -1.303366
    120          1           0      -10.848550   -0.099863   -0.267233
    121          1           0      -10.500078   -0.956524   -1.742982
    122          1           0      -11.658005    0.418841   -3.040201
    123          1           0      -11.365360    1.879132   -2.154487
    124          1           0      -13.149554   -0.214265   -0.901510
    125          1           0      -14.132074    0.181897   -3.419286
    126          1           0      -14.403559    1.860047   -2.757402
    127          1           0      -15.093865    0.560493   -2.034771
    128          1           0      -14.462250    2.159168   -0.513152
    129          1           0      -12.800384    2.772632   -0.762174
    130          1           0      -12.553669    0.660452    1.073578
    131          1           0      -14.083200    1.240961    1.563078
    132          1           0      -12.634464    3.624080    1.431872
    133          1           0      -11.302240    2.622914    1.535181
    134          1           0      -13.105171    1.586580    3.543109
    135          1           0      -13.068936    4.652158    3.468317
    136          1           0      -12.586544    4.007968    4.967230
    137          1           0      -14.116441    3.531844    4.448102
    138          1           0      -11.290129    1.576152    4.854241
    139          1           0      -10.453063    2.956043    4.175063
    140          1           0      -10.603416    1.463919    3.182860
 ---------------------------------------------------------------------

 SCF Done:  E(RwB97XD) =  -3007.85571336     A.U. after   17 cycles

 Excitation energies and oscillator strengths:

 Excited State   1:      Singlet-A      1.7979 eV  689.59 nm  f=0.3607  <S**2>=0.000
     245 -> 248        0.19142
     246 -> 247        0.67936
     245 <- 248        0.11140
 This state for optimization and/or second-order correction.
 Total Energy, E(TD-HF/TD-DFT) =  -3007.78964010
 Copying the excited state density for this state as the 1-particle RhoCI density.

 Excited State   2:      Singlet-A      2.1919 eV  565.65 nm  f=0.1619  <S**2>=0.000
     245 -> 247        0.65244
     246 -> 248       -0.25617

 Excited State   3:      Singlet-A      3.6097 eV  343.47 nm  f=0.0023  <S**2>=0.000
     241 -> 247       -0.20043
     244 -> 247        0.64692

 Excited State   4:      Singlet-A      3.6867 eV  336.30 nm  f=0.4704  <S**2>=0.000
     240 -> 247        0.20278
     241 -> 247        0.25749
     245 -> 247        0.19893
     246 -> 248        0.57135

 Excited State   5:      Singlet-A      3.7417 eV  331.36 nm  f=0.0042  <S**2>=0.000
     243 -> 247        0.54530
     243 -> 249       -0.27073
     243 -> 250       -0.28629

 The electronic state is 1-A.
 Alpha  occ. eigenvalues --  -46.95606 -19.29858 -19.29390 -19.26057 -19.25531
 Alpha  occ. eigenvalues --  -19.23653 -19.23183 -14.46014 -14.45581 -14.44483
 Alpha  occ. eigenvalues --  -14.43099 -10.44520 -10.41517 -10.40967 -10.38586
 Alpha  occ. eigenvalues --  -10.35893 -10.35334 -10.34765 -10.34754 -10.34614
 Alpha  occ. eigenvalues --  -10.33580 -10.33538 -10.33480 -10.33305 -10.32636
 Alpha  occ. eigenvalues --  -10.32261 -10.32185 -10.32115 -10.31987 -10.31901
 Alpha  occ. eigenvalues --  -10.31561 -10.31526 -10.31479 -10.31406 -10.31362
 Alpha  occ. eigenvalues --  -10.31235 -10.31224 -10.31003 -10.30879 -10.30641
 Alpha  occ. eigenvalues --  -10.30426 -10.30138 -10.30071 -10.30066 -10.29907
 Alpha  occ. eigenvalues --  -10.29806 -10.29733 -10.29418 -10.29414 -10.29345
 Alpha  occ. eigenvalues --  -10.29340 -10.29306 -10.29274 -10.29205 -10.28930
 Alpha  occ. eigenvalues --  -10.28889 -10.28780 -10.28640 -10.28628 -10.28585
 Alpha  occ. eigenvalues --  -10.28495 -10.28487 -10.28207 -10.28099 -10.27984
 Alpha  occ. eigenvalues --  -10.27554  -3.21561  -1.95152  -1.94701  -1.94509
 Alpha  occ. eigenvalues --   -1.17980  -1.17781  -1.14827  -1.11422  -1.10240
 Alpha  occ. eigenvalues --   -1.08235  -1.07718  -1.07158  -1.06647  -1.05313
 Alpha  occ. eigenvalues --   -0.94124  -0.92279  -0.91714  -0.91185  -0.91095
 Alpha  occ. eigenvalues --   -0.90101  -0.89882  -0.89457  -0.88823  -0.88751
 Alpha  occ. eigenvalues --   -0.87378  -0.87035  -0.86506  -0.84974  -0.84642
 Alpha  occ. eigenvalues --   -0.84204  -0.83831  -0.82924  -0.82469  -0.81861
 Alpha  occ. eigenvalues --   -0.81576  -0.80575  -0.79662  -0.78291  -0.77542
 Alpha  occ. eigenvalues --   -0.77441  -0.77381  -0.76960  -0.76585  -0.75565
 Alpha  occ. eigenvalues --   -0.75469  -0.74601  -0.73582  -0.72460  -0.71208
 Alpha  occ. eigenvalues --   -0.70216  -0.69833  -0.68896  -0.68514  -0.67863
 Alpha  occ. eigenvalues --   -0.66980  -0.66802  -0.66623  -0.66528  -0.65692
 Alpha  occ. eigenvalues --   -0.65548  -0.64808  -0.64737  -0.63342  -0.62792
 Alpha  occ. eigenvalues --   -0.61722  -0.61215  -0.61094  -0.60294  -0.59622
 Alpha  occ. eigenvalues --   -0.59345  -0.58974  -0.58401  -0.57583  -0.57128
 Alpha  occ. eigenvalues --   -0.57031  -0.56844  -0.56681  -0.56394  -0.55721
 Alpha  occ. eigenvalues --   -0.55700  -0.55226  -0.55078  -0.54823  -0.54664
 Alpha  occ. eigenvalues --   -0.54374  -0.54054  -0.54019  -0.53683  -0.53546
 Alpha  occ. eigenvalues --   -0.53072  -0.52978  -0.52820  -0.52675  -0.52540
 Alpha  occ. eigenvalues --   -0.52215  -0.52192  -0.51995  -0.51751  -0.51498
 Alpha  occ. eigenvalues --   -0.51016  -0.50955  -0.50806  -0.50657  -0.50489
 Alpha  occ. eigenvalues --   -0.50273  -0.50120  -0.49829  -0.49514  -0.49368
 Alpha  occ. eigenvalues --   -0.49074  -0.48846  -0.48785  -0.48630  -0.48378
 Alpha  occ. eigenvalues --   -0.48210  -0.48074  -0.48042  -0.47944  -0.47642
 Alpha  occ. eigenvalues --   -0.47516  -0.47200  -0.47071  -0.46666  -0.46449
 Alpha  occ. eigenvalues --   -0.46375  -0.46126  -0.45964  -0.45856  -0.45747
 Alpha  occ. eigenvalues --   -0.45467  -0.45326  -0.45196  -0.45122  -0.44850
 Alpha  occ. eigenvalues --   -0.44796  -0.44668  -0.44445  -0.44298  -0.44026
 Alpha  occ. eigenvalues --   -0.43936  -0.43698  -0.43554  -0.43154  -0.42913
 Alpha  occ. eigenvalues --   -0.42845  -0.42772  -0.42222  -0.42031  -0.41797
 Alpha  occ. eigenvalues --   -0.41665  -0.41526  -0.41342  -0.41137  -0.40782
 Alpha  occ. eigenvalues --   -0.40518  -0.40293  -0.40084  -0.39997  -0.39373
 Alpha  occ. eigenvalues --   -0.39329  -0.38723  -0.38464  -0.37789  -0.37704
 Alpha  occ. eigenvalues --   -0.37577  -0.37224  -0.36725  -0.36292  -0.36081
 Alpha  occ. eigenvalues --   -0.35272  -0.35258  -0.34498  -0.33899  -0.33672
 Alpha  occ. eigenvalues --   -0.32757  -0.32405  -0.32094  -0.31471  -0.25216
 Alpha  occ. eigenvalues --   -0.23127
 Alpha virt. eigenvalues --   -0.06502   0.00914   0.02708   0.04903   0.05624
 Alpha virt. eigenvalues --    0.05856   0.07358   0.08311   0.08841   0.09384
 Alpha virt. eigenvalues --    0.10351   0.11136   0.11483   0.12192   0.12444

 Mulliken charges:
               1
     1  Mg   0.963081
     2  C   -0.002248
     3  C   -0.069597
     4  C   -0.087295
     5  C   -0.078866
     6  N   -0.252187
     7  C   -0.052522
     8  C   -0.117897
     9  C   -0.073255
    10  C   -0.000909
    11  C    0.039933
    12  C    0.060434
    13  C    0.020612
    14  C    0.224147
    15  O   -0.235313
    16  O   -0.399152
    17  N   -0.472714
    18  C    0.161330
    19  C   -0.161924
    20  C   -0.088327
    21  C    0.121946
    22  C    0.059550
    23  C    0.076505
    24  O   -0.197512
    25  C   -0.024140
    26  N   -0.321740
    27  C    0.065119
    28  C   -0.102385
    29  C   -0.113684
    30  C    0.058374
    31  C    0.030307
    32  C   -0.010540
    33  C   -0.052928
    34  N   -0.410036
    35  C    0.090505
    36  C   -0.219353
    37  C   -0.050599
    38  C    0.153928
    39  C    0.095927
    40  C    0.138695
    41  O   -0.196400
    42  C   -0.094653
    43  C    0.255645
    44  O   -0.275208
    45  O   -0.328082
    46  C    0.155784
    47  C    0.266172
    48  C   -0.150634
    49  C   -0.178107
    50  C    0.001522
    51  C    0.031062
    52  C    0.004665
    53  C   -0.005163
    54  C   -0.214749
    55  C   -0.016844
    56  C    0.013917
    57  C   -0.017409
    58  C    0.064129
    59  C   -0.212790
    60  C   -0.032885
    61  C    0.039615
    62  C   -0.035867
    63  C   -0.006831
    64  C   -0.202521
    65  C    0.012870
    66  C   -0.028195
    67  H   -0.010544
    68  H    0.011687
    69  H    0.003333
    70  H    0.068106
    71  H    0.019012
    72  H    0.040979
    73  H    0.042354
    74  H    0.033570
    75  H    0.028771
    76  H    0.047683
    77  H    0.043092
    78  H    0.040452
    79  H    0.044026
    80  H    0.065725
    81  H    0.040630
    82  H    0.086235
    83  H    0.045117
    84  H    0.050643
    85  H    0.043627
    86  H    0.017454
    87  H    0.041765
    88  H    0.045850
    89  H    0.042476
    90  H    0.037395
    91  H    0.027771
    92  H    0.050364
    93  H    0.034754
    94  H    0.039762
    95  H    0.025103
    96  H    0.053062
    97  H    0.056027
    98  H    0.072884
    99  H    0.049063
   100  H    0.054900
   101  H    0.031103
   102  H    0.069978
   103  H    0.033480
   104  H    0.009135
   105  H    0.048208
   106  H    0.034510
   107  H    0.028785
   108  H    0.018617
   109  H    0.042454
   110  H    0.034845
   111  H    0.019983
   112  H    0.009129
   113  H    0.030124
   114  H    0.030197
   115  H    0.014475
   116  H    0.027128
   117  H    0.038672
   118  H    0.020098
   119  H    0.006886
   120  H    0.008745
   121  H    0.021537
   122  H    0.011825
   123  H    0.006712
   124  H    0.024627
   125  H    0.035899
   126  H    0.023436
   127  H    0.012719
   128  H    0.024181
   129  H    0.016722
   130  H    0.007448
   131  H    0.027261
   132  H    0.013342
   133  H    0.009379
   134  H    0.026796
   135  H    0.033695
   136  H    0.012018
   137  H    0.031994
   138  H    0.026362
   139  H    0.034548
   140  H    0.035510
 Sum of Mulliken charges =  -0.00000

 Dipole moment (field-independent basis, Debye):
    X=             -5.3735    Y=              5.9935    Z=              0.9341  Tot=              8.1037
 Quadrupole moment (field-independent basis, Debye-Ang):
   XX=           -388.5654   YY=           -425.0324   ZZ=           -395.1727
   XY=             28.6055   XZ=              6.4256   YZ=             -6.4233

 Normal termination of Gaussian 16 at Fri Apr 29 06:54:59 2022.
