 Gaussian 16, Revision A.03,
 Gaussian 16:  ES64L-G16RevA.03 25-Dec-2016

 --------------------
 #p ZINDO=(nstates=5)
 --------------------

 ---------------------------
 step_1_chromophore_24 ZINDO
 ---------------------------
 Symbolic Z-matrix:
 Charge =  0 Multiplicity = 1

                         Standard orientation:
 ---------------------------------------------------------------------
 Center     Atomic      Atomic             Coordinates (Angstroms)
 Number     Number       Type             X           Y           Z
 ---------------------------------------------------------------------
      1         12           0        5.267203    0.915651    0.009620
      2          6           0        3.868150   -2.425127    0.266195
      3          6           0        2.156697    1.896307   -0.843585
      4          6           0        6.531370    3.835795   -0.268638
      5          6           0        8.472546   -0.465018    0.606614
      6          7           0        3.160624   -0.228362   -0.229346
      7          6           0        2.859241   -1.515084    0.016351
      8          6           0        1.334913   -1.727822   -0.052498
      9          6           0        0.977915   -0.395400   -0.862273
     10          6           0        2.119395    0.490555   -0.587190
     11          6           0        0.457696   -0.532189   -2.283409
     12          6           0        0.785332   -1.833896    1.380549
     13          6           0       -0.541154   -2.645387    1.461491
     14          6           0       -1.101045   -3.528775    0.252747
     15          8           0       -0.937761   -4.715459    0.061568
     16          8           0       -1.719888   -2.676461   -0.688974
     17          7           0        4.450127    2.700160   -0.453624
     18          6           0        3.152355    2.925155   -0.871123
     19          6           0        3.030260    4.338588   -1.214825
     20          6           0        4.290645    4.940139   -0.976549
     21          6           0        5.148700    3.797999   -0.551633
     22          6           0        1.804956    4.963569   -1.715800
     23          6           0        4.741259    6.489614   -1.086702
     24          8           0        5.807141    6.864157   -0.680480
     25          6           0        3.730500    7.598610   -1.429837
     26          7           0        7.278517    1.522485   -0.111875
     27          6           0        7.508659    2.832566   -0.077022
     28          6           0        8.952019    3.204727    0.131503
     29          6           0        9.448133    1.893975    0.789442
     30          6           0        8.371389    0.892894    0.245732
     31          6           0        9.749791    3.528688   -1.216359
     32          6           0        9.593411    1.915449    2.368905
     33          6           0        9.926394    3.248656    3.099798
     34          7           0        6.068740   -1.010795    0.253004
     35          6           0        7.323227   -1.436394    0.542630
     36          6           0        7.352049   -2.793265    0.854363
     37          6           0        6.055359   -3.194540    0.703895
     38          6           0        5.275789   -2.107838    0.360081
     39          6           0        8.571920   -3.582313    1.321997
     40          6           0        5.214109   -4.393546    0.835868
     41          8           0        5.469470   -5.581718    0.962666
     42          6           0        3.727934   -3.867642    0.621800
     43          6           0        3.109253   -4.709403   -0.387284
     44          8           0        3.276577   -4.649558   -1.609550
     45          8           0        2.525169   -5.736630    0.264234
     46          6           0        2.199728   -6.842481   -0.618526
     47          6           0       -2.460997   -3.312833   -1.795426
     48          6           0       -3.911947   -2.897317   -1.647523
     49          6           0       -4.802952   -3.389423   -0.778540
     50          6           0       -4.533242   -4.529537    0.217938
     51          6           0       -6.244239   -2.875750   -0.665060
     52          6           0       -6.336416   -1.493413    0.011836
     53          6           0       -6.934769   -0.382060   -0.849957
     54          6           0       -8.320263    0.093536   -0.207797
     55          6           0       -8.047149    1.258978    0.855297
     56          6           0       -9.233256    0.625601   -1.406842
     57          6           0      -10.617759    0.042676   -1.323732
     58          6           0      -11.610634    0.824714   -2.030033
     59          6           0      -13.033826    0.758970   -1.379604
     60          6           0      -14.161624    0.820575   -2.536360
     61          6           0      -13.401346    1.927984   -0.426400
     62          6           0      -13.165414    1.562420    1.070085
     63          6           0      -12.357920    2.637973    1.805415
     64          6           0      -12.511373    2.484575    3.373478
     65          6           0      -13.121061    3.736179    4.056707
     66          6           0      -11.084090    2.104403    3.922483
     67          1           0        1.199708    2.170937   -1.292315
     68          1           0        6.935021    4.839774   -0.411580
     69          1           0        9.465683   -0.826681    0.880416
     70          1           0        1.075821   -2.571518   -0.692270
     71          1           0        0.126500    0.042051   -0.342690
     72          1           0       -0.584257   -0.225582   -2.370088
     73          1           0        0.550265   -1.564456   -2.620457
     74          1           0        1.037236    0.018806   -3.024145
     75          1           0        0.505009   -0.827933    1.693686
     76          1           0        1.511669   -2.192120    2.109845
     77          1           0       -1.362223   -2.039306    1.845736
     78          1           0       -0.383722   -3.232804    2.365959
     79          1           0        0.916524    4.405662   -1.420707
     80          1           0        1.919307    4.980430   -2.799791
     81          1           0        1.643548    5.979221   -1.353886
     82          1           0        2.960519    7.742671   -0.671932
     83          1           0        3.399363    7.360297   -2.440844
     84          1           0        4.254986    8.542641   -1.579860
     85          1           0        8.882197    4.091942    0.760395
     86          1           0       10.418133    1.568186    0.414653
     87          1           0       10.277316    4.441794   -0.941524
     88          1           0        9.114047    3.726339   -2.080128
     89          1           0       10.495572    2.792684   -1.514277
     90          1           0       10.312279    1.151272    2.661049
     91          1           0        8.565074    1.706124    2.664076
     92          1           0        9.012712    3.802440    3.314326
     93          1           0       10.642865    3.726990    2.431079
     94          1           0       10.475636    3.084613    4.026257
     95          1           0        9.188520   -2.847585    1.840301
     96          1           0        9.181064   -3.959074    0.500874
     97          1           0        8.229899   -4.377312    1.984399
     98          1           0        3.224111   -3.974417    1.583282
     99          1           0        1.747886   -7.689293   -0.102742
    100          1           0        2.970303   -7.144406   -1.328053
    101          1           0        1.394318   -6.560691   -1.297642
    102          1           0       -2.363747   -4.398593   -1.830595
    103          1           0       -2.039031   -2.811850   -2.666703
    104          1           0       -4.288196   -2.134056   -2.328600
    105          1           0       -5.090252   -5.442134    0.005066
    106          1           0       -4.775387   -4.298342    1.255256
    107          1           0       -3.489392   -4.835648    0.285069
    108          1           0       -6.820177   -3.589629   -0.074464
    109          1           0       -6.607723   -2.943640   -1.690225
    110          1           0       -5.401961   -1.101910    0.412735
    111          1           0       -7.013602   -1.646720    0.853147
    112          1           0       -7.220179   -0.840028   -1.798058
    113          1           0       -6.271829    0.435985   -1.133071
    114          1           0       -8.780545   -0.626575    0.467533
    115          1           0       -8.375784    2.187464    0.388526
    116          1           0       -6.984784    1.430662    1.029206
    117          1           0       -8.617507    1.181206    1.781538
    118          1           0       -8.805891    0.417815   -2.388136
    119          1           0       -9.275806    1.710278   -1.303366
    120          1           0      -10.848550   -0.099863   -0.267233
    121          1           0      -10.500078   -0.956524   -1.742982
    122          1           0      -11.658005    0.418841   -3.040201
    123          1           0      -11.365360    1.879132   -2.154487
    124          1           0      -13.149554   -0.214265   -0.901510
    125          1           0      -14.132074    0.181897   -3.419286
    126          1           0      -14.403559    1.860047   -2.757402
    127          1           0      -15.093865    0.560493   -2.034771
    128          1           0      -14.462250    2.159168   -0.513152
    129          1           0      -12.800384    2.772632   -0.762174
    130          1           0      -12.553669    0.660452    1.073578
    131          1           0      -14.083200    1.240961    1.563078
    132          1           0      -12.634464    3.624080    1.431872
    133          1           0      -11.302240    2.622914    1.535181
    134          1           0      -13.105171    1.586580    3.543109
    135          1           0      -13.068936    4.652158    3.468317
    136          1           0      -12.586544    4.007968    4.967230
    137          1           0      -14.116441    3.531844    4.448102
    138          1           0      -11.290129    1.576152    4.854241
    139          1           0      -10.453063    2.956043    4.175063
    140          1           0      -10.603416    1.463919    3.182860
 ---------------------------------------------------------------------

 SCF Done:  E(RZINDO/S) =  -474.367662029     A.U. after   20 cycles

 Excitation energies and oscillator strengths:

 Excited State   1:      Singlet-A      1.4076 eV  880.83 nm  f=0.5152  <S**2>=0.000
     175 ->178         0.17270
     176 ->177         0.66911
 This state for optimization and/or second-order correction.
 Total Energy, E(CIS/TDA) =  -474.315934555
 Copying the excited state density for this state as the 1-particle RhoCI density.

 Excited State   2:      Singlet-A      1.9317 eV  641.85 nm  f=0.0906  <S**2>=0.000
     175 ->177         0.57759
     176 ->178        -0.37209

 Excited State   3:      Singlet-A      2.9875 eV  415.01 nm  f=0.0002  <S**2>=0.000
     167 ->177        -0.21819
     167 ->179         0.39748
     167 ->181        -0.17708
     167 ->183         0.15215
     167 ->187        -0.10295
     168 ->177        -0.17851
     168 ->179         0.30368
     168 ->181        -0.13312
     168 ->183         0.11672

 Excited State   4:      Singlet-A      3.0704 eV  403.81 nm  f=0.3828  <S**2>=0.000
     170 ->177         0.15415
     170 ->178        -0.11260
     170 ->179         0.14827
     170 ->181         0.26422
     170 ->185         0.10807
     171 ->177         0.12428
     171 ->179         0.10528
     171 ->181         0.19508
     175 ->177        -0.21510
     176 ->178        -0.34442

 Excited State   5:      Singlet-A      3.0843 eV  401.99 nm  f=0.7199  <S**2>=0.000
     170 ->177         0.13284
     170 ->181         0.18239
     171 ->177         0.10757
     171 ->179         0.11024
     171 ->181         0.18272
     175 ->177         0.28002
     176 ->178         0.44393

 The electronic state is 1-A.
 Alpha  occ. eigenvalues --   -1.85716  -1.84333  -1.82905  -1.74988  -1.73747
 Alpha  occ. eigenvalues --   -1.70557  -1.65578  -1.60545  -1.59550  -1.57233
 Alpha  occ. eigenvalues --   -1.54592  -1.50359  -1.47593  -1.46779  -1.45921
 Alpha  occ. eigenvalues --   -1.44572  -1.42265  -1.41153  -1.39397  -1.38316
 Alpha  occ. eigenvalues --   -1.36171  -1.32603  -1.32403  -1.31464  -1.28675
 Alpha  occ. eigenvalues --   -1.27661  -1.23884  -1.22146  -1.20666  -1.18750
 Alpha  occ. eigenvalues --   -1.17795  -1.16076  -1.14913  -1.13419  -1.12876
 Alpha  occ. eigenvalues --   -1.12312  -1.11088  -1.09480  -1.05659  -1.03683
 Alpha  occ. eigenvalues --   -1.02933  -1.01553  -0.99291  -0.98087  -0.97584
 Alpha  occ. eigenvalues --   -0.96216  -0.94804  -0.93873  -0.93424  -0.90757
 Alpha  occ. eigenvalues --   -0.90393  -0.90052  -0.88614  -0.88426  -0.87284
 Alpha  occ. eigenvalues --   -0.86196  -0.84390  -0.82707  -0.81754  -0.80296
 Alpha  occ. eigenvalues --   -0.79590  -0.78842  -0.77982  -0.76968  -0.76323
 Alpha  occ. eigenvalues --   -0.75267  -0.74698  -0.74174  -0.73699  -0.73585
 Alpha  occ. eigenvalues --   -0.73375  -0.72706  -0.72174  -0.71901  -0.70948
 Alpha  occ. eigenvalues --   -0.69988  -0.69415  -0.69143  -0.68225  -0.67765
 Alpha  occ. eigenvalues --   -0.67122  -0.67056  -0.66550  -0.66096  -0.65984
 Alpha  occ. eigenvalues --   -0.64788  -0.64414  -0.64212  -0.64100  -0.63882
 Alpha  occ. eigenvalues --   -0.63541  -0.62774  -0.62540  -0.61814  -0.61451
 Alpha  occ. eigenvalues --   -0.61042  -0.60950  -0.60640  -0.60246  -0.60192
 Alpha  occ. eigenvalues --   -0.59709  -0.59454  -0.59174  -0.58314  -0.58052
 Alpha  occ. eigenvalues --   -0.57836  -0.57650  -0.57413  -0.56797  -0.56372
 Alpha  occ. eigenvalues --   -0.56100  -0.55474  -0.54909  -0.54643  -0.54369
 Alpha  occ. eigenvalues --   -0.54121  -0.53873  -0.53675  -0.53338  -0.53183
 Alpha  occ. eigenvalues --   -0.52471  -0.52080  -0.51902  -0.51454  -0.51386
 Alpha  occ. eigenvalues --   -0.50931  -0.50654  -0.50433  -0.50265  -0.50051
 Alpha  occ. eigenvalues --   -0.49689  -0.49521  -0.49299  -0.49230  -0.48908
 Alpha  occ. eigenvalues --   -0.48730  -0.48597  -0.48235  -0.48016  -0.47634
 Alpha  occ. eigenvalues --   -0.47407  -0.47213  -0.47070  -0.47035  -0.46937
 Alpha  occ. eigenvalues --   -0.46648  -0.46387  -0.46113  -0.45545  -0.45257
 Alpha  occ. eigenvalues --   -0.45164  -0.45058  -0.44271  -0.44008  -0.43705
 Alpha  occ. eigenvalues --   -0.43131  -0.42965  -0.42483  -0.42272  -0.41605
 Alpha  occ. eigenvalues --   -0.41444  -0.40894  -0.40265  -0.39722  -0.38479
 Alpha  occ. eigenvalues --   -0.37161  -0.36803  -0.36293  -0.34531  -0.33794
 Alpha  occ. eigenvalues --   -0.33684  -0.32666  -0.32268  -0.31721  -0.26076
 Alpha  occ. eigenvalues --   -0.22091
 Alpha virt. eigenvalues --   -0.07975  -0.01526  -0.00318   0.01249   0.01601
 Alpha virt. eigenvalues --    0.02416   0.03203   0.03605   0.04422   0.04801
 Alpha virt. eigenvalues --    0.05733   0.06669   0.06836   0.07291   0.07948

 Mulliken charges:
               1
     1  Mg   0.438235
     2  C   -0.018422
     3  C   -0.091202
     4  C   -0.112888
     5  C   -0.085184
     6  N   -0.274507
     7  C    0.079557
     8  C    0.002256
     9  C    0.016605
    10  C    0.174819
    11  C   -0.040733
    12  C   -0.008064
    13  C   -0.006614
    14  C    0.467666
    15  O   -0.486771
    16  O   -0.287124
    17  N   -0.317253
    18  C    0.121088
    19  C    0.042142
    20  C   -0.057519
    21  C    0.177735
    22  C   -0.037417
    23  C    0.323877
    24  O   -0.484537
    25  C   -0.028199
    26  N   -0.259312
    27  C    0.187683
    28  C    0.004751
    29  C   -0.001739
    30  C    0.083713
    31  C   -0.050296
    32  C   -0.036574
    33  C   -0.060573
    34  N   -0.312013
    35  C    0.067969
    36  C   -0.002373
    37  C   -0.046606
    38  C    0.075991
    39  C   -0.044645
    40  C    0.327657
    41  O   -0.516853
    42  C    0.058420
    43  C    0.496541
    44  O   -0.538769
    45  O   -0.247870
    46  C    0.072373
    47  C    0.109170
    48  C   -0.090380
    49  C    0.002681
    50  C   -0.049530
    51  C   -0.020287
    52  C   -0.025529
    53  C   -0.037627
    54  C   -0.030303
    55  C   -0.072080
    56  C   -0.038302
    57  C   -0.022543
    58  C   -0.023038
    59  C   -0.017580
    60  C   -0.079023
    61  C   -0.033846
    62  C   -0.038425
    63  C   -0.036060
    64  C   -0.016768
    65  C   -0.055696
    66  C   -0.061041
    67  H    0.010987
    68  H    0.030968
    69  H    0.033383
    70  H    0.047166
    71  H    0.012620
    72  H    0.022655
    73  H    0.027275
    74  H    0.020990
    75  H    0.020024
    76  H    0.036529
    77  H    0.031465
    78  H    0.028053
    79  H    0.026034
    80  H    0.039078
    81  H    0.027557
    82  H    0.050273
    83  H    0.029035
    84  H    0.034901
    85  H    0.038526
    86  H    0.019627
    87  H    0.018109
    88  H    0.028306
    89  H    0.029280
    90  H    0.027691
    91  H    0.019803
    92  H    0.028698
    93  H    0.018911
    94  H    0.018500
    95  H    0.017380
    96  H    0.033859
    97  H    0.033652
    98  H    0.051277
    99  H    0.031605
   100  H    0.052926
   101  H    0.029289
   102  H    0.065571
   103  H    0.033392
   104  H    0.025431
   105  H    0.028322
   106  H    0.020987
   107  H    0.024223
   108  H    0.017919
   109  H    0.028152
   110  H    0.022751
   111  H    0.016328
   112  H    0.009452
   113  H    0.029631
   114  H    0.036889
   115  H    0.010958
   116  H    0.019283
   117  H    0.022873
   118  H    0.021064
   119  H    0.017402
   120  H    0.017497
   121  H    0.014631
   122  H    0.013750
   123  H    0.020262
   124  H    0.023731
   125  H    0.027420
   126  H    0.019131
   127  H    0.002064
   128  H    0.021399
   129  H    0.025217
   130  H    0.012115
   131  H    0.026688
   132  H    0.013927
   133  H    0.019248
   134  H    0.025021
   135  H    0.025537
   136  H    0.010031
   137  H    0.019614
   138  H    0.011636
   139  H    0.023167
   140  H    0.022038
 Sum of Mulliken charges =  -0.00000

 Dipole moment (field-independent basis, Debye):
    X=             -8.2471    Y=             10.3516    Z=              1.0052  Tot=             13.2733
 N-N= 4.344441752179D+03 E-N= 0.000000000000D+00  KE=-9.363524171156D+03
 Leave Link  601 at Fri Apr 29 07:07:49 2022, MaxMem=  6710886400 cpu:               0.8 elap:               0.0
 (Enter /sw/apps/gaussian-16.0/g16/l9999.exe)
 1\1\GINC-BP1-COMPUTE103\SP\RZINDO CIS\STO-3G\C55H74Mg1N4O6\OF15641\29-
 Apr-2022\0\\#p ZINDO=(nstates=5)\\step_1_chromophore_24 ZINDO\\0,1\Mg,
 0,-0.187,43.411,24.933\C,0,1.607,43.076,28.072\C,0,-2.898,42.368,26.64
 4\C,0,-1.732,43.655,22.148\C,0,2.888,44.159,23.345\N,0,-0.581,42.801,2
 7.23\C,0,0.261,42.842,28.277\C,0,-0.506,42.584,29.588\C,0,-1.809,41.92
 3,28.937\C,0,-1.8,42.432,27.557\C,0,-2.075,40.449,29.193\C,0,-0.702,43
 .924,30.318\C,0,-0.869,43.756,31.857\C,0,-0.561,42.389,32.626\O,0,0.46

 Normal termination of Gaussian 16 at Fri Apr 29 07:07:49 2022.
