 Gaussian 16, Revision A.03,
 Gaussian 16:  ES64L-G16RevA.03 25-Dec-2016

 ------------------------------
 #p blyp/Def2SVP td=(nstates=5)
 ------------------------------

 --------------------------------------------------
 step_701_chromophore_10 TDDFT with blyp functional
 --------------------------------------------------
 Symbolic Z-matrix:
 Charge =  0 Multiplicity = 1

                         Standard orientation:
 ---------------------------------------------------------------------
 Center     Atomic      Atomic             Coordinates (Angstroms)
 Number     Number       Type             X           Y           Z
 ---------------------------------------------------------------------
      1         12           0        5.922721    0.427512    0.178027
      2          6           0        3.167615   -1.836390   -0.393479
      3          6           0        4.034295    2.901383   -1.393969
      4          6           0        8.680809    2.423183    0.219914
      5          6           0        7.826340   -2.300052    1.291492
      6          7           0        3.766378    0.526882   -0.763776
      7          6           0        2.870844   -0.510366   -0.784956
      8          6           0        1.561807    0.030221   -1.430250
      9          6           0        1.976906    1.394631   -2.059479
     10          6           0        3.303354    1.654746   -1.330935
     11          6           0        1.972064    1.534823   -3.595179
     12          6           0        0.338483    0.095764   -0.410203
     13          6           0       -0.943327   -0.670286   -0.784598
     14          6           0       -1.396054   -1.672911    0.160189
     15          8           0       -0.648254   -2.441085    0.873002
     16          8           0       -2.699090   -1.616391    0.320550
     17          7           0        6.325725    2.450103   -0.378019
     18          6           0        5.366482    3.296945   -0.908537
     19          6           0        5.903639    4.636259   -0.974598
     20          6           0        7.266261    4.474718   -0.500447
     21          6           0        7.494323    3.099269   -0.206981
     22          6           0        5.046689    5.788239   -1.481546
     23          6           0        8.208054    5.608831   -0.219408
     24          8           0        9.273657    5.462619    0.331350
     25          6           0        7.798123    7.034507   -0.539905
     26          7           0        8.014150    0.095683    0.700974
     27          6           0        8.920001    1.117563    0.689962
     28          6           0       10.292074    0.646674    1.143789
     29          6           0        9.955669   -0.867723    1.690792
     30          6           0        8.450219   -1.036055    1.329684
     31          6           0       11.385267    0.713441    0.018721
     32          6           0       10.123835   -1.003083    3.237852
     33          6           0        9.328214   -0.096377    4.158684
     34          7           0        5.663329   -1.576460    0.443711
     35          6           0        6.539050   -2.571769    0.824632
     36          6           0        5.901631   -3.853947    0.702469
     37          6           0        4.575641   -3.523085    0.319261
     38          6           0        4.499859   -2.163461    0.125948
     39          6           0        6.455392   -5.206090    1.010470
     40          6           0        3.276532   -4.184642    0.006452
     41          8           0        2.982206   -5.377754    0.116041
     42          6           0        2.338658   -3.103379   -0.476424
     43          6           0        1.968394   -3.445927   -1.892281
     44          8           0        2.557951   -2.995127   -2.854451
     45          8           0        0.902793   -4.310538   -1.894813
     46          6           0        0.383598   -4.561850   -3.226478
     47          6           0       -3.363347   -2.292959    1.520602
     48          6           0       -4.906004   -2.041480    1.241570
     49          6           0       -5.814780   -2.871300    0.605082
     50          6           0       -5.455414   -4.137530   -0.245246
     51          6           0       -7.310941   -2.539428    0.662652
     52          6           0       -7.551744   -1.115791    0.339800
     53          6           0       -8.279101   -1.019371   -1.030900
     54          6           0       -9.514185   -0.057077   -0.911865
     55          6           0      -10.336617   -0.297025   -2.204826
     56          6           0       -9.024954    1.415341   -0.713086
     57          6           0      -10.305509    2.270781   -0.351819
     58          6           0      -10.304785    2.863055    1.112983
     59          6           0      -11.726475    2.971216    1.710563
     60          6           0      -11.832904    4.042968    2.816983
     61          6           0      -12.173566    1.527179    2.141352
     62          6           0      -13.760868    1.362751    2.012767
     63          6           0      -14.240191    0.607743    0.758617
     64          6           0      -15.665005    1.042828    0.312435
     65          6           0      -16.466873   -0.119672   -0.300484
     66          6           0      -15.654105    2.145225   -0.772709
     67          1           0        3.439766    3.623591   -1.956914
     68          1           0        9.536434    3.058106    0.459945
     69          1           0        8.418909   -3.194278    1.498006
     70          1           0        1.202829   -0.648576   -2.203259
     71          1           0        1.267181    2.130937   -1.680726
     72          1           0        1.462110    0.647419   -3.968706
     73          1           0        2.935570    1.589457   -4.101397
     74          1           0        1.365977    2.395766   -3.877360
     75          1           0        0.024895    1.133158   -0.297239
     76          1           0        0.716485   -0.300046    0.532080
     77          1           0       -0.812636   -1.166903   -1.746410
     78          1           0       -1.634812    0.159143   -0.933944
     79          1           0        5.180983    6.581274   -0.746454
     80          1           0        4.003803    5.477605   -1.542212
     81          1           0        5.336888    6.039799   -2.501658
     82          1           0        7.590214    7.104928   -1.607385
     83          1           0        8.634303    7.723578   -0.417036
     84          1           0        6.956089    7.391191    0.053594
     85          1           0       10.554378    1.410237    1.875637
     86          1           0       10.541213   -1.633819    1.182685
     87          1           0       10.910473    0.953366   -0.932223
     88          1           0       12.126385   -0.085520    0.054744
     89          1           0       11.987194    1.617419    0.103367
     90          1           0       11.172275   -0.843750    3.486032
     91          1           0        9.743044   -2.008711    3.417072
     92          1           0        9.977399    0.319068    4.929713
     93          1           0        8.512691   -0.632646    4.645075
     94          1           0        8.986579    0.798414    3.637600
     95          1           0        7.535698   -5.130934    1.131368
     96          1           0        6.209110   -5.879475    0.189919
     97          1           0        5.974885   -5.638425    1.888871
     98          1           0        1.525214   -3.051697    0.247551
     99          1           0        1.163764   -4.649830   -3.981934
    100          1           0       -0.271890   -3.708446   -3.398193
    101          1           0       -0.119158   -5.528711   -3.201270
    102          1           0       -3.147923   -1.841560    2.488368
    103          1           0       -3.220055   -3.371820    1.580765
    104          1           0       -5.407764   -1.234569    1.775991
    105          1           0       -4.446302   -3.996474   -0.632110
    106          1           0       -6.094916   -4.122662   -1.128145
    107          1           0       -5.570246   -5.124993    0.200170
    108          1           0       -7.669817   -2.532649    1.692493
    109          1           0       -7.932843   -3.256018    0.125701
    110          1           0       -6.627868   -0.550529    0.217878
    111          1           0       -8.174130   -0.668429    1.114843
    112          1           0       -8.593633   -2.018241   -1.333692
    113          1           0       -7.573199   -0.616276   -1.757631
    114          1           0      -10.068911   -0.429301   -0.050875
    115          1           0       -9.996008   -1.173110   -2.757556
    116          1           0      -10.470876    0.588743   -2.826333
    117          1           0      -11.387872   -0.358457   -1.925702
    118          1           0       -8.814535    1.615636   -1.763955
    119          1           0       -8.129430    1.470515   -0.094288
    120          1           0      -11.182831    1.633755   -0.468081
    121          1           0      -10.464438    3.054171   -1.091649
    122          1           0       -9.894436    3.862237    0.967001
    123          1           0       -9.710872    2.312650    1.842901
    124          1           0      -12.429616    3.298669    0.944103
    125          1           0      -11.778447    5.073926    2.467571
    126          1           0      -11.096746    3.746418    3.563925
    127          1           0      -12.850728    3.976502    3.201510
    128          1           0      -12.001089    1.503200    3.216434
    129          1           0      -11.554155    0.777235    1.649402
    130          1           0      -14.261372    2.330712    1.988518
    131          1           0      -14.151481    1.026099    2.973294
    132          1           0      -14.331098   -0.402848    1.157572
    133          1           0      -13.410560    0.747064    0.064511
    134          1           0      -16.244115    1.440065    1.145777
    135          1           0      -17.315426   -0.446510    0.301572
    136          1           0      -15.827388   -0.958882   -0.572106
    137          1           0      -16.948704    0.198956   -1.224129
    138          1           0      -14.683275    2.164498   -1.268830
    139          1           0      -15.679206    2.963532   -0.052769
    140          1           0      -16.526003    2.281091   -1.412170
 ---------------------------------------------------------------------

 SCF Done:  E(RB-LYP) =  -3007.36779814     A.U. after   21 cycles

 Excitation energies and oscillator strengths:

 Excited State   1:      Singlet-A      1.8251 eV  679.31 nm  f=0.1022  <S**2>=0.000
     244 -> 247        0.55369
     245 -> 248       -0.12890
     246 -> 247        0.42550
 This state for optimization and/or second-order correction.
 Total Energy, E(TD-HF/TD-DFT) =  -3007.30072556
 Copying the excited state density for this state as the 1-particle RhoCI density.

 Excited State   2:      Singlet-A      1.8452 eV  671.91 nm  f=0.1653  <S**2>=0.000
     244 -> 247       -0.43920
     245 -> 248       -0.16893
     246 -> 247        0.53349
     246 <- 247       -0.11106

 Excited State   3:      Singlet-A      1.9194 eV  645.96 nm  f=0.0060  <S**2>=0.000
     243 -> 247        0.69216
     245 -> 247        0.13224

 Excited State   4:      Singlet-A      2.0154 eV  615.20 nm  f=0.1041  <S**2>=0.000
     243 -> 247       -0.13645
     245 -> 247        0.64188
     246 -> 248        0.24094

 Excited State   5:      Singlet-A      2.4963 eV  496.68 nm  f=0.0002  <S**2>=0.000
     240 -> 247        0.45624
     241 -> 247       -0.16550
     242 -> 247        0.50827

 The electronic state is 1-A.
 Alpha  occ. eigenvalues --  -46.27287 -18.83273 -18.81841 -18.76802 -18.76385
 Alpha  occ. eigenvalues --  -18.75080 -18.74581 -14.02702 -14.02381 -14.00483
 Alpha  occ. eigenvalues --  -14.00422 -10.04472 -10.03743  -9.99904  -9.98995
 Alpha  occ. eigenvalues --   -9.98708  -9.97395  -9.96287  -9.96187  -9.96030
 Alpha  occ. eigenvalues --   -9.95722  -9.95449  -9.95124  -9.94758  -9.94601
 Alpha  occ. eigenvalues --   -9.94038  -9.93832  -9.93786  -9.93736  -9.93716
 Alpha  occ. eigenvalues --   -9.93677  -9.93475  -9.93396  -9.93278  -9.93225
 Alpha  occ. eigenvalues --   -9.92921  -9.92916  -9.92900  -9.92839  -9.92623
 Alpha  occ. eigenvalues --   -9.92509  -9.92384  -9.92319  -9.92294  -9.92122
 Alpha  occ. eigenvalues --   -9.92000  -9.91983  -9.91922  -9.91890  -9.91848
 Alpha  occ. eigenvalues --   -9.91786  -9.91752  -9.91745  -9.91733  -9.91634
 Alpha  occ. eigenvalues --   -9.91447  -9.91446  -9.91227  -9.91156  -9.91127
 Alpha  occ. eigenvalues --   -9.91104  -9.91063  -9.91032  -9.90803  -9.90296
 Alpha  occ. eigenvalues --   -9.89967  -2.91712  -1.72152  -1.71592  -1.71418
 Alpha  occ. eigenvalues --   -0.98582  -0.97822  -0.91462  -0.90400  -0.90117
 Alpha  occ. eigenvalues --   -0.87290  -0.86048  -0.85182  -0.84919  -0.84154
 Alpha  occ. eigenvalues --   -0.74922  -0.74268  -0.73033  -0.72837  -0.71993
 Alpha  occ. eigenvalues --   -0.71242  -0.71055  -0.70543  -0.70209  -0.69796
 Alpha  occ. eigenvalues --   -0.69312  -0.68839  -0.68022  -0.67171  -0.66672
 Alpha  occ. eigenvalues --   -0.66280  -0.65499  -0.64937  -0.64533  -0.64367
 Alpha  occ. eigenvalues --   -0.63477  -0.62259  -0.61868  -0.61353  -0.60630
 Alpha  occ. eigenvalues --   -0.60472  -0.59943  -0.59859  -0.59454  -0.59282
 Alpha  occ. eigenvalues --   -0.58373  -0.57265  -0.56403  -0.55676  -0.54271
 Alpha  occ. eigenvalues --   -0.53809  -0.52999  -0.52615  -0.51927  -0.51743
 Alpha  occ. eigenvalues --   -0.50878  -0.50532  -0.50331  -0.49775  -0.49576
 Alpha  occ. eigenvalues --   -0.49414  -0.49393  -0.48858  -0.48015  -0.46255
 Alpha  occ. eigenvalues --   -0.45922  -0.45568  -0.45417  -0.44930  -0.44697
 Alpha  occ. eigenvalues --   -0.44280  -0.43740  -0.43304  -0.42611  -0.42120
 Alpha  occ. eigenvalues --   -0.41962  -0.41470  -0.41253  -0.41065  -0.40886
 Alpha  occ. eigenvalues --   -0.40772  -0.40758  -0.40660  -0.40324  -0.40075
 Alpha  occ. eigenvalues --   -0.39856  -0.39703  -0.39466  -0.39261  -0.39232
 Alpha  occ. eigenvalues --   -0.38841  -0.38803  -0.38425  -0.38180  -0.37911
 Alpha  occ. eigenvalues --   -0.37746  -0.37644  -0.37513  -0.37230  -0.37075
 Alpha  occ. eigenvalues --   -0.36982  -0.36939  -0.36629  -0.36430  -0.36107
 Alpha  occ. eigenvalues --   -0.35903  -0.35814  -0.35310  -0.35229  -0.35118
 Alpha  occ. eigenvalues --   -0.35064  -0.34903  -0.34793  -0.34439  -0.34346
 Alpha  occ. eigenvalues --   -0.34296  -0.34249  -0.33928  -0.33716  -0.33636
 Alpha  occ. eigenvalues --   -0.33466  -0.33384  -0.33280  -0.32957  -0.32850
 Alpha  occ. eigenvalues --   -0.32676  -0.32632  -0.32541  -0.32172  -0.32083
 Alpha  occ. eigenvalues --   -0.31920  -0.31530  -0.31392  -0.31335  -0.31234
 Alpha  occ. eigenvalues --   -0.31202  -0.30799  -0.30610  -0.30543  -0.30435
 Alpha  occ. eigenvalues --   -0.30349  -0.30187  -0.30121  -0.29980  -0.29689
 Alpha  occ. eigenvalues --   -0.29530  -0.29404  -0.29102  -0.28925  -0.28697
 Alpha  occ. eigenvalues --   -0.28633  -0.28387  -0.28142  -0.27872  -0.27724
 Alpha  occ. eigenvalues --   -0.27625  -0.27282  -0.26612  -0.26566  -0.26138
 Alpha  occ. eigenvalues --   -0.25817  -0.25583  -0.25491  -0.25289  -0.25198
 Alpha  occ. eigenvalues --   -0.24929  -0.24663  -0.24390  -0.24233  -0.23173
 Alpha  occ. eigenvalues --   -0.22455  -0.22186  -0.21782  -0.21348  -0.20303
 Alpha  occ. eigenvalues --   -0.19904  -0.19726  -0.18053  -0.17745  -0.16549
 Alpha  occ. eigenvalues --   -0.15526
 Alpha virt. eigenvalues --   -0.11082  -0.06285  -0.05471  -0.04739  -0.03910
 Alpha virt. eigenvalues --   -0.03656  -0.01782  -0.01502  -0.00779   0.00401
 Alpha virt. eigenvalues --    0.01581   0.01968   0.02089   0.02357   0.02660

 Mulliken charges:
               1
     1  Mg   0.678956
     2  C   -0.087032
     3  C   -0.039288
     4  C   -0.017029
     5  C   -0.091694
     6  N   -0.170986
     7  C   -0.046015
     8  C   -0.042558
     9  C    0.026159
    10  C   -0.048655
    11  C    0.152169
    12  C    0.115205
    13  C    0.136611
    14  C    0.091100
    15  O   -0.252663
    16  O   -0.234732
    17  N   -0.273010
    18  C    0.139255
    19  C   -0.163798
    20  C    0.038816
    21  C    0.095309
    22  C    0.195432
    23  C   -0.104097
    24  O   -0.149372
    25  C    0.122534
    26  N   -0.217541
    27  C   -0.029992
    28  C    0.021291
    29  C    0.032166
    30  C    0.056649
    31  C    0.126046
    32  C    0.082107
    33  C    0.063697
    34  N   -0.274115
    35  C    0.114090
    36  C   -0.188410
    37  C    0.051709
    38  C    0.133626
    39  C    0.189095
    40  C   -0.089982
    41  O   -0.138461
    42  C    0.172457
    43  C    0.109732
    44  O   -0.178908
    45  O   -0.250483
    46  C    0.219385
    47  C    0.314458
    48  C   -0.103494
    49  C   -0.164722
    50  C    0.117041
    51  C    0.178491
    52  C    0.032244
    53  C    0.075998
    54  C   -0.149619
    55  C    0.131665
    56  C    0.136071
    57  C    0.064637
    58  C    0.120031
    59  C   -0.102619
    60  C    0.115030
    61  C    0.103427
    62  C    0.011233
    63  C    0.143331
    64  C   -0.110345
    65  C    0.114471
    66  C    0.101124
    67  H   -0.066751
    68  H   -0.044883
    69  H   -0.052187
    70  H   -0.025829
    71  H   -0.041223
    72  H   -0.014507
    73  H    0.005498
    74  H   -0.013397
    75  H   -0.024301
    76  H   -0.002263
    77  H    0.006621
    78  H   -0.007460
    79  H    0.000201
    80  H   -0.016352
    81  H    0.009910
    82  H   -0.006556
    83  H   -0.018811
    84  H    0.016904
    85  H   -0.015653
    86  H   -0.025617
    87  H   -0.006025
    88  H    0.000092
    89  H   -0.022380
    90  H   -0.017233
    91  H   -0.028805
    92  H   -0.017496
    93  H   -0.001809
    94  H   -0.003531
    95  H   -0.021499
    96  H    0.005578
    97  H    0.011688
    98  H    0.029323
    99  H    0.020018
   100  H    0.004370
   101  H    0.018183
   102  H    0.014268
   103  H    0.021927
   104  H   -0.023141
   105  H   -0.002750
   106  H   -0.010609
   107  H    0.016476
   108  H   -0.025219
   109  H   -0.032125
   110  H   -0.006380
   111  H   -0.029553
   112  H   -0.031648
   113  H   -0.036157
   114  H   -0.024684
   115  H   -0.002511
   116  H   -0.029057
   117  H   -0.029455
   118  H   -0.042375
   119  H   -0.014481
   120  H   -0.034446
   121  H   -0.032344
   122  H   -0.038075
   123  H   -0.031095
   124  H   -0.039834
   125  H   -0.010144
   126  H   -0.011167
   127  H   -0.027003
   128  H   -0.046446
   129  H   -0.018364
   130  H   -0.036748
   131  H   -0.037647
   132  H   -0.025985
   133  H   -0.010993
   134  H   -0.031182
   135  H   -0.021343
   136  H   -0.019802
   137  H   -0.036838
   138  H   -0.009720
   139  H   -0.028360
   140  H   -0.002032
 Sum of Mulliken charges =  -0.00000

 Dipole moment (field-independent basis, Debye):
    X=             -6.5435    Y=              1.9338    Z=             -0.5929  Tot=              6.8490
 Quadrupole moment (field-independent basis, Debye-Ang):
   XX=           -392.9234   YY=           -420.3054   ZZ=           -398.3656
   XY=            -11.5760   XZ=              4.0442   YZ=             -3.2828

 Normal termination of Gaussian 16 at Thu May  5 06:06:30 2022.
