 Gaussian 16, Revision A.03,
 Gaussian 16:  ES64L-G16RevA.03 25-Dec-2016

 -----------------------------------
 #p cam-b3lyp/Def2SVP td=(nstates=5)
 -----------------------------------

 -------------------------------------------------------
 step_701_chromophore_10 TDDFT with cam-b3lyp functional
 -------------------------------------------------------
 Symbolic Z-matrix:
 Charge =  0 Multiplicity = 1

                         Standard orientation:
 ---------------------------------------------------------------------
 Center     Atomic      Atomic             Coordinates (Angstroms)
 Number     Number       Type             X           Y           Z
 ---------------------------------------------------------------------
      1         12           0        5.922721    0.427512    0.178027
      2          6           0        3.167615   -1.836390   -0.393479
      3          6           0        4.034295    2.901383   -1.393969
      4          6           0        8.680809    2.423183    0.219914
      5          6           0        7.826340   -2.300052    1.291492
      6          7           0        3.766378    0.526882   -0.763776
      7          6           0        2.870844   -0.510366   -0.784956
      8          6           0        1.561807    0.030221   -1.430250
      9          6           0        1.976906    1.394631   -2.059479
     10          6           0        3.303354    1.654746   -1.330935
     11          6           0        1.972064    1.534823   -3.595179
     12          6           0        0.338483    0.095764   -0.410203
     13          6           0       -0.943327   -0.670286   -0.784598
     14          6           0       -1.396054   -1.672911    0.160189
     15          8           0       -0.648254   -2.441085    0.873002
     16          8           0       -2.699090   -1.616391    0.320550
     17          7           0        6.325725    2.450103   -0.378019
     18          6           0        5.366482    3.296945   -0.908537
     19          6           0        5.903639    4.636259   -0.974598
     20          6           0        7.266261    4.474718   -0.500447
     21          6           0        7.494323    3.099269   -0.206981
     22          6           0        5.046689    5.788239   -1.481546
     23          6           0        8.208054    5.608831   -0.219408
     24          8           0        9.273657    5.462619    0.331350
     25          6           0        7.798123    7.034507   -0.539905
     26          7           0        8.014150    0.095683    0.700974
     27          6           0        8.920001    1.117563    0.689962
     28          6           0       10.292074    0.646674    1.143789
     29          6           0        9.955669   -0.867723    1.690792
     30          6           0        8.450219   -1.036055    1.329684
     31          6           0       11.385267    0.713441    0.018721
     32          6           0       10.123835   -1.003083    3.237852
     33          6           0        9.328214   -0.096377    4.158684
     34          7           0        5.663329   -1.576460    0.443711
     35          6           0        6.539050   -2.571769    0.824632
     36          6           0        5.901631   -3.853947    0.702469
     37          6           0        4.575641   -3.523085    0.319261
     38          6           0        4.499859   -2.163461    0.125948
     39          6           0        6.455392   -5.206090    1.010470
     40          6           0        3.276532   -4.184642    0.006452
     41          8           0        2.982206   -5.377754    0.116041
     42          6           0        2.338658   -3.103379   -0.476424
     43          6           0        1.968394   -3.445927   -1.892281
     44          8           0        2.557951   -2.995127   -2.854451
     45          8           0        0.902793   -4.310538   -1.894813
     46          6           0        0.383598   -4.561850   -3.226478
     47          6           0       -3.363347   -2.292959    1.520602
     48          6           0       -4.906004   -2.041480    1.241570
     49          6           0       -5.814780   -2.871300    0.605082
     50          6           0       -5.455414   -4.137530   -0.245246
     51          6           0       -7.310941   -2.539428    0.662652
     52          6           0       -7.551744   -1.115791    0.339800
     53          6           0       -8.279101   -1.019371   -1.030900
     54          6           0       -9.514185   -0.057077   -0.911865
     55          6           0      -10.336617   -0.297025   -2.204826
     56          6           0       -9.024954    1.415341   -0.713086
     57          6           0      -10.305509    2.270781   -0.351819
     58          6           0      -10.304785    2.863055    1.112983
     59          6           0      -11.726475    2.971216    1.710563
     60          6           0      -11.832904    4.042968    2.816983
     61          6           0      -12.173566    1.527179    2.141352
     62          6           0      -13.760868    1.362751    2.012767
     63          6           0      -14.240191    0.607743    0.758617
     64          6           0      -15.665005    1.042828    0.312435
     65          6           0      -16.466873   -0.119672   -0.300484
     66          6           0      -15.654105    2.145225   -0.772709
     67          1           0        3.439766    3.623591   -1.956914
     68          1           0        9.536434    3.058106    0.459945
     69          1           0        8.418909   -3.194278    1.498006
     70          1           0        1.202829   -0.648576   -2.203259
     71          1           0        1.267181    2.130937   -1.680726
     72          1           0        1.462110    0.647419   -3.968706
     73          1           0        2.935570    1.589457   -4.101397
     74          1           0        1.365977    2.395766   -3.877360
     75          1           0        0.024895    1.133158   -0.297239
     76          1           0        0.716485   -0.300046    0.532080
     77          1           0       -0.812636   -1.166903   -1.746410
     78          1           0       -1.634812    0.159143   -0.933944
     79          1           0        5.180983    6.581274   -0.746454
     80          1           0        4.003803    5.477605   -1.542212
     81          1           0        5.336888    6.039799   -2.501658
     82          1           0        7.590214    7.104928   -1.607385
     83          1           0        8.634303    7.723578   -0.417036
     84          1           0        6.956089    7.391191    0.053594
     85          1           0       10.554378    1.410237    1.875637
     86          1           0       10.541213   -1.633819    1.182685
     87          1           0       10.910473    0.953366   -0.932223
     88          1           0       12.126385   -0.085520    0.054744
     89          1           0       11.987194    1.617419    0.103367
     90          1           0       11.172275   -0.843750    3.486032
     91          1           0        9.743044   -2.008711    3.417072
     92          1           0        9.977399    0.319068    4.929713
     93          1           0        8.512691   -0.632646    4.645075
     94          1           0        8.986579    0.798414    3.637600
     95          1           0        7.535698   -5.130934    1.131368
     96          1           0        6.209110   -5.879475    0.189919
     97          1           0        5.974885   -5.638425    1.888871
     98          1           0        1.525214   -3.051697    0.247551
     99          1           0        1.163764   -4.649830   -3.981934
    100          1           0       -0.271890   -3.708446   -3.398193
    101          1           0       -0.119158   -5.528711   -3.201270
    102          1           0       -3.147923   -1.841560    2.488368
    103          1           0       -3.220055   -3.371820    1.580765
    104          1           0       -5.407764   -1.234569    1.775991
    105          1           0       -4.446302   -3.996474   -0.632110
    106          1           0       -6.094916   -4.122662   -1.128145
    107          1           0       -5.570246   -5.124993    0.200170
    108          1           0       -7.669817   -2.532649    1.692493
    109          1           0       -7.932843   -3.256018    0.125701
    110          1           0       -6.627868   -0.550529    0.217878
    111          1           0       -8.174130   -0.668429    1.114843
    112          1           0       -8.593633   -2.018241   -1.333692
    113          1           0       -7.573199   -0.616276   -1.757631
    114          1           0      -10.068911   -0.429301   -0.050875
    115          1           0       -9.996008   -1.173110   -2.757556
    116          1           0      -10.470876    0.588743   -2.826333
    117          1           0      -11.387872   -0.358457   -1.925702
    118          1           0       -8.814535    1.615636   -1.763955
    119          1           0       -8.129430    1.470515   -0.094288
    120          1           0      -11.182831    1.633755   -0.468081
    121          1           0      -10.464438    3.054171   -1.091649
    122          1           0       -9.894436    3.862237    0.967001
    123          1           0       -9.710872    2.312650    1.842901
    124          1           0      -12.429616    3.298669    0.944103
    125          1           0      -11.778447    5.073926    2.467571
    126          1           0      -11.096746    3.746418    3.563925
    127          1           0      -12.850728    3.976502    3.201510
    128          1           0      -12.001089    1.503200    3.216434
    129          1           0      -11.554155    0.777235    1.649402
    130          1           0      -14.261372    2.330712    1.988518
    131          1           0      -14.151481    1.026099    2.973294
    132          1           0      -14.331098   -0.402848    1.157572
    133          1           0      -13.410560    0.747064    0.064511
    134          1           0      -16.244115    1.440065    1.145777
    135          1           0      -17.315426   -0.446510    0.301572
    136          1           0      -15.827388   -0.958882   -0.572106
    137          1           0      -16.948704    0.198956   -1.224129
    138          1           0      -14.683275    2.164498   -1.268830
    139          1           0      -15.679206    2.963532   -0.052769
    140          1           0      -16.526003    2.281091   -1.412170
 ---------------------------------------------------------------------

 SCF Done:  E(RCAM-B3LYP) =  -3007.15291946     A.U. after   17 cycles

 Excitation energies and oscillator strengths:

 Excited State   1:      Singlet-A      1.7223 eV  719.89 nm  f=0.3528  <S**2>=0.000
     245 -> 248       -0.19508
     246 -> 247        0.68051
     245 <- 248       -0.11260
 This state for optimization and/or second-order correction.
 Total Energy, E(TD-HF/TD-DFT) =  -3007.08962739
 Copying the excited state density for this state as the 1-particle RhoCI density.

 Excited State   2:      Singlet-A      2.1705 eV  571.23 nm  f=0.1595  <S**2>=0.000
     245 -> 247        0.65096
     246 -> 248        0.26406

 Excited State   3:      Singlet-A      3.3099 eV  374.59 nm  f=0.0026  <S**2>=0.000
     244 -> 247        0.68042
     246 -> 248       -0.13818

 Excited State   4:      Singlet-A      3.4190 eV  362.63 nm  f=0.0020  <S**2>=0.000
     243 -> 247        0.66921
     246 -> 248       -0.11215

 Excited State   5:      Singlet-A      3.5103 eV  353.20 nm  f=0.0048  <S**2>=0.000
     239 -> 247       -0.12899
     240 -> 247        0.43590
     240 -> 249       -0.25152
     240 -> 251        0.11959
     241 -> 247        0.33411
     241 -> 249       -0.19122
     243 -> 247       -0.11506

 The electronic state is 1-A.
 Alpha  occ. eigenvalues --  -46.88888 -19.26228 -19.24784 -19.19970 -19.19169
 Alpha  occ. eigenvalues --  -19.18294 -19.17780 -14.41559 -14.41223 -14.38883
 Alpha  occ. eigenvalues --  -14.38793 -10.39732 -10.39259 -10.34295 -10.34252
 Alpha  occ. eigenvalues --  -10.33837 -10.31370 -10.30786 -10.30720 -10.30473
 Alpha  occ. eigenvalues --  -10.30140 -10.29795 -10.29455 -10.28958 -10.28861
 Alpha  occ. eigenvalues --  -10.28387 -10.28084 -10.28006 -10.27785 -10.27776
 Alpha  occ. eigenvalues --  -10.27721 -10.27710 -10.27518 -10.27415 -10.27198
 Alpha  occ. eigenvalues --  -10.27163 -10.26992 -10.26867 -10.26849 -10.26614
 Alpha  occ. eigenvalues --  -10.26576 -10.26225 -10.26079 -10.26046 -10.26031
 Alpha  occ. eigenvalues --  -10.25799 -10.25746 -10.25742 -10.25640 -10.25635
 Alpha  occ. eigenvalues --  -10.25555 -10.25498 -10.25456 -10.25400 -10.25261
 Alpha  occ. eigenvalues --  -10.25169 -10.25151 -10.25139 -10.24840 -10.24784
 Alpha  occ. eigenvalues --  -10.24768 -10.24733 -10.24566 -10.24379 -10.24072
 Alpha  occ. eigenvalues --  -10.23871  -3.17208  -1.92127  -1.91647  -1.91508
 Alpha  occ. eigenvalues --   -1.16992  -1.16415  -1.09901  -1.08534  -1.08380
 Alpha  occ. eigenvalues --   -1.04973  -1.03731  -1.02808  -1.02520  -1.01664
 Alpha  occ. eigenvalues --   -0.92099  -0.91136  -0.89830  -0.89604  -0.88676
 Alpha  occ. eigenvalues --   -0.87920  -0.87646  -0.87071  -0.86721  -0.86378
 Alpha  occ. eigenvalues --   -0.85757  -0.85318  -0.84282  -0.83352  -0.82779
 Alpha  occ. eigenvalues --   -0.82358  -0.81372  -0.80894  -0.80448  -0.80156
 Alpha  occ. eigenvalues --   -0.79404  -0.77880  -0.77593  -0.76837  -0.75994
 Alpha  occ. eigenvalues --   -0.75877  -0.75246  -0.75178  -0.74693  -0.74521
 Alpha  occ. eigenvalues --   -0.73412  -0.72265  -0.71282  -0.70474  -0.68859
 Alpha  occ. eigenvalues --   -0.68359  -0.67601  -0.67010  -0.66354  -0.66036
 Alpha  occ. eigenvalues --   -0.65044  -0.64439  -0.64090  -0.63784  -0.63547
 Alpha  occ. eigenvalues --   -0.63387  -0.63318  -0.62797  -0.61744  -0.59852
 Alpha  occ. eigenvalues --   -0.59509  -0.59137  -0.58937  -0.58362  -0.58325
 Alpha  occ. eigenvalues --   -0.57566  -0.56935  -0.56605  -0.55919  -0.55115
 Alpha  occ. eigenvalues --   -0.55033  -0.54411  -0.54219  -0.53958  -0.53774
 Alpha  occ. eigenvalues --   -0.53731  -0.53659  -0.53407  -0.53073  -0.52836
 Alpha  occ. eigenvalues --   -0.52384  -0.52323  -0.52127  -0.52051  -0.51751
 Alpha  occ. eigenvalues --   -0.51616  -0.51174  -0.51049  -0.50824  -0.50352
 Alpha  occ. eigenvalues --   -0.50127  -0.49984  -0.49768  -0.49514  -0.49243
 Alpha  occ. eigenvalues --   -0.49157  -0.49111  -0.49002  -0.48719  -0.48384
 Alpha  occ. eigenvalues --   -0.48316  -0.48008  -0.47781  -0.47454  -0.47245
 Alpha  occ. eigenvalues --   -0.47141  -0.46885  -0.46672  -0.46445  -0.46311
 Alpha  occ. eigenvalues --   -0.46060  -0.45972  -0.45850  -0.45487  -0.45397
 Alpha  occ. eigenvalues --   -0.45351  -0.45255  -0.44908  -0.44807  -0.44516
 Alpha  occ. eigenvalues --   -0.44470  -0.44252  -0.44095  -0.43784  -0.43692
 Alpha  occ. eigenvalues --   -0.43515  -0.43139  -0.42961  -0.42901  -0.42744
 Alpha  occ. eigenvalues --   -0.42563  -0.42490  -0.42350  -0.42174  -0.41876
 Alpha  occ. eigenvalues --   -0.41846  -0.41710  -0.41504  -0.41285  -0.41254
 Alpha  occ. eigenvalues --   -0.40958  -0.40460  -0.40246  -0.39964  -0.39903
 Alpha  occ. eigenvalues --   -0.39773  -0.39438  -0.39315  -0.38723  -0.38711
 Alpha  occ. eigenvalues --   -0.38463  -0.38066  -0.37306  -0.37223  -0.36869
 Alpha  occ. eigenvalues --   -0.36778  -0.36698  -0.36423  -0.36410  -0.35935
 Alpha  occ. eigenvalues --   -0.35922  -0.35412  -0.35086  -0.34730  -0.34576
 Alpha  occ. eigenvalues --   -0.33927  -0.33362  -0.32446  -0.30521  -0.30147
 Alpha  occ. eigenvalues --   -0.30027  -0.29998  -0.29209  -0.29036  -0.23083
 Alpha  occ. eigenvalues --   -0.20913
 Alpha virt. eigenvalues --   -0.08321  -0.01142   0.01168   0.02691   0.03074
 Alpha virt. eigenvalues --    0.03483   0.03965   0.05807   0.06355   0.07009
 Alpha virt. eigenvalues --    0.08013   0.08174   0.08800   0.08849   0.08902

 Mulliken charges:
               1
     1  Mg   0.809640
     2  C   -0.102313
     3  C   -0.057938
     4  C   -0.032161
     5  C   -0.093219
     6  N   -0.241414
     7  C   -0.005072
     8  C   -0.085338
     9  C   -0.027926
    10  C   -0.023353
    11  C    0.091259
    12  C    0.062748
    13  C    0.058546
    14  C    0.177017
    15  O   -0.302057
    16  O   -0.299373
    17  N   -0.361022
    18  C    0.147377
    19  C   -0.170990
    20  C   -0.031466
    21  C    0.117620
    22  C    0.141106
    23  C   -0.023984
    24  O   -0.191095
    25  C    0.040471
    26  N   -0.286486
    27  C   -0.006147
    28  C   -0.036048
    29  C   -0.024906
    30  C    0.070571
    31  C    0.066676
    32  C    0.032989
    33  C   -0.000397
    34  N   -0.367603
    35  C    0.118652
    36  C   -0.186740
    37  C   -0.028517
    38  C    0.168850
    39  C    0.140059
    40  C    0.014882
    41  O   -0.175448
    42  C    0.088732
    43  C    0.193450
    44  O   -0.215173
    45  O   -0.311488
    46  C    0.178074
    47  C    0.290824
    48  C   -0.134908
    49  C   -0.178167
    50  C    0.060238
    51  C    0.111515
    52  C   -0.028255
    53  C    0.031292
    54  C   -0.198320
    55  C    0.069611
    56  C    0.077931
    57  C    0.019751
    58  C    0.063681
    59  C   -0.154224
    60  C    0.060442
    61  C    0.046548
    62  C   -0.031522
    63  C    0.088256
    64  C   -0.171276
    65  C    0.052730
    66  C    0.042985
    67  H   -0.032873
    68  H   -0.006308
    69  H   -0.017833
    70  H    0.005140
    71  H   -0.005067
    72  H    0.010076
    73  H    0.032122
    74  H    0.010671
    75  H    0.005826
    76  H    0.031863
    77  H    0.035510
    78  H    0.030445
    79  H    0.024253
    80  H    0.011714
    81  H    0.036861
    82  H    0.021451
    83  H    0.017367
    84  H    0.043166
    85  H    0.017450
    86  H    0.009984
    87  H    0.021042
    88  H    0.023818
    89  H    0.002859
    90  H    0.010812
    91  H   -0.000786
    92  H    0.008052
    93  H    0.022566
    94  H    0.017036
    95  H    0.001644
    96  H    0.032240
    97  H    0.038095
    98  H    0.075760
    99  H    0.045664
   100  H    0.023953
   101  H    0.041866
   102  H    0.042506
   103  H    0.050928
   104  H    0.007690
   105  H    0.021425
   106  H    0.012591
   107  H    0.040423
   108  H    0.007044
   109  H   -0.000733
   110  H    0.023742
   111  H   -0.001488
   112  H   -0.005543
   113  H   -0.007018
   114  H    0.002262
   115  H    0.022585
   116  H   -0.003730
   117  H   -0.005868
   118  H   -0.011932
   119  H    0.013116
   120  H   -0.014235
   121  H   -0.002891
   122  H   -0.007551
   123  H   -0.004551
   124  H   -0.010953
   125  H    0.014779
   126  H    0.010606
   127  H   -0.003063
   128  H   -0.015295
   129  H    0.007100
   130  H   -0.012568
   131  H   -0.008646
   132  H    0.004691
   133  H    0.009762
   134  H    0.000926
   135  H    0.003519
   136  H    0.005054
   137  H   -0.011127
   138  H    0.012558
   139  H   -0.005556
   140  H    0.022822
 Sum of Mulliken charges =  -0.00000

 Dipole moment (field-independent basis, Debye):
    X=             -6.6590    Y=              2.4470    Z=             -0.7647  Tot=              7.1354
 Quadrupole moment (field-independent basis, Debye-Ang):
   XX=           -391.2939   YY=           -416.0877   ZZ=           -397.6198
   XY=             -9.1350   XZ=              3.9722   YZ=             -3.8305

 Normal termination of Gaussian 16 at Thu May  5 05:04:01 2022.
