 Gaussian 16, Revision A.03,
 Gaussian 16:  ES64L-G16RevA.03 25-Dec-2016

 ---------------------------------
 #p PBE1PBE/Def2SVP td=(nstates=5)
 ---------------------------------

 -----------------------------------------------------
 step_701_chromophore_10 TDDFT with PBE1PBE functional
 -----------------------------------------------------
 Symbolic Z-matrix:
 Charge =  0 Multiplicity = 1

                         Standard orientation:
 ---------------------------------------------------------------------
 Center     Atomic      Atomic             Coordinates (Angstroms)
 Number     Number       Type             X           Y           Z
 ---------------------------------------------------------------------
      1         12           0        5.922721    0.427512    0.178027
      2          6           0        3.167615   -1.836390   -0.393479
      3          6           0        4.034295    2.901383   -1.393969
      4          6           0        8.680809    2.423183    0.219914
      5          6           0        7.826340   -2.300052    1.291492
      6          7           0        3.766378    0.526882   -0.763776
      7          6           0        2.870844   -0.510366   -0.784956
      8          6           0        1.561807    0.030221   -1.430250
      9          6           0        1.976906    1.394631   -2.059479
     10          6           0        3.303354    1.654746   -1.330935
     11          6           0        1.972064    1.534823   -3.595179
     12          6           0        0.338483    0.095764   -0.410203
     13          6           0       -0.943327   -0.670286   -0.784598
     14          6           0       -1.396054   -1.672911    0.160189
     15          8           0       -0.648254   -2.441085    0.873002
     16          8           0       -2.699090   -1.616391    0.320550
     17          7           0        6.325725    2.450103   -0.378019
     18          6           0        5.366482    3.296945   -0.908537
     19          6           0        5.903639    4.636259   -0.974598
     20          6           0        7.266261    4.474718   -0.500447
     21          6           0        7.494323    3.099269   -0.206981
     22          6           0        5.046689    5.788239   -1.481546
     23          6           0        8.208054    5.608831   -0.219408
     24          8           0        9.273657    5.462619    0.331350
     25          6           0        7.798123    7.034507   -0.539905
     26          7           0        8.014150    0.095683    0.700974
     27          6           0        8.920001    1.117563    0.689962
     28          6           0       10.292074    0.646674    1.143789
     29          6           0        9.955669   -0.867723    1.690792
     30          6           0        8.450219   -1.036055    1.329684
     31          6           0       11.385267    0.713441    0.018721
     32          6           0       10.123835   -1.003083    3.237852
     33          6           0        9.328214   -0.096377    4.158684
     34          7           0        5.663329   -1.576460    0.443711
     35          6           0        6.539050   -2.571769    0.824632
     36          6           0        5.901631   -3.853947    0.702469
     37          6           0        4.575641   -3.523085    0.319261
     38          6           0        4.499859   -2.163461    0.125948
     39          6           0        6.455392   -5.206090    1.010470
     40          6           0        3.276532   -4.184642    0.006452
     41          8           0        2.982206   -5.377754    0.116041
     42          6           0        2.338658   -3.103379   -0.476424
     43          6           0        1.968394   -3.445927   -1.892281
     44          8           0        2.557951   -2.995127   -2.854451
     45          8           0        0.902793   -4.310538   -1.894813
     46          6           0        0.383598   -4.561850   -3.226478
     47          6           0       -3.363347   -2.292959    1.520602
     48          6           0       -4.906004   -2.041480    1.241570
     49          6           0       -5.814780   -2.871300    0.605082
     50          6           0       -5.455414   -4.137530   -0.245246
     51          6           0       -7.310941   -2.539428    0.662652
     52          6           0       -7.551744   -1.115791    0.339800
     53          6           0       -8.279101   -1.019371   -1.030900
     54          6           0       -9.514185   -0.057077   -0.911865
     55          6           0      -10.336617   -0.297025   -2.204826
     56          6           0       -9.024954    1.415341   -0.713086
     57          6           0      -10.305509    2.270781   -0.351819
     58          6           0      -10.304785    2.863055    1.112983
     59          6           0      -11.726475    2.971216    1.710563
     60          6           0      -11.832904    4.042968    2.816983
     61          6           0      -12.173566    1.527179    2.141352
     62          6           0      -13.760868    1.362751    2.012767
     63          6           0      -14.240191    0.607743    0.758617
     64          6           0      -15.665005    1.042828    0.312435
     65          6           0      -16.466873   -0.119672   -0.300484
     66          6           0      -15.654105    2.145225   -0.772709
     67          1           0        3.439766    3.623591   -1.956914
     68          1           0        9.536434    3.058106    0.459945
     69          1           0        8.418909   -3.194278    1.498006
     70          1           0        1.202829   -0.648576   -2.203259
     71          1           0        1.267181    2.130937   -1.680726
     72          1           0        1.462110    0.647419   -3.968706
     73          1           0        2.935570    1.589457   -4.101397
     74          1           0        1.365977    2.395766   -3.877360
     75          1           0        0.024895    1.133158   -0.297239
     76          1           0        0.716485   -0.300046    0.532080
     77          1           0       -0.812636   -1.166903   -1.746410
     78          1           0       -1.634812    0.159143   -0.933944
     79          1           0        5.180983    6.581274   -0.746454
     80          1           0        4.003803    5.477605   -1.542212
     81          1           0        5.336888    6.039799   -2.501658
     82          1           0        7.590214    7.104928   -1.607385
     83          1           0        8.634303    7.723578   -0.417036
     84          1           0        6.956089    7.391191    0.053594
     85          1           0       10.554378    1.410237    1.875637
     86          1           0       10.541213   -1.633819    1.182685
     87          1           0       10.910473    0.953366   -0.932223
     88          1           0       12.126385   -0.085520    0.054744
     89          1           0       11.987194    1.617419    0.103367
     90          1           0       11.172275   -0.843750    3.486032
     91          1           0        9.743044   -2.008711    3.417072
     92          1           0        9.977399    0.319068    4.929713
     93          1           0        8.512691   -0.632646    4.645075
     94          1           0        8.986579    0.798414    3.637600
     95          1           0        7.535698   -5.130934    1.131368
     96          1           0        6.209110   -5.879475    0.189919
     97          1           0        5.974885   -5.638425    1.888871
     98          1           0        1.525214   -3.051697    0.247551
     99          1           0        1.163764   -4.649830   -3.981934
    100          1           0       -0.271890   -3.708446   -3.398193
    101          1           0       -0.119158   -5.528711   -3.201270
    102          1           0       -3.147923   -1.841560    2.488368
    103          1           0       -3.220055   -3.371820    1.580765
    104          1           0       -5.407764   -1.234569    1.775991
    105          1           0       -4.446302   -3.996474   -0.632110
    106          1           0       -6.094916   -4.122662   -1.128145
    107          1           0       -5.570246   -5.124993    0.200170
    108          1           0       -7.669817   -2.532649    1.692493
    109          1           0       -7.932843   -3.256018    0.125701
    110          1           0       -6.627868   -0.550529    0.217878
    111          1           0       -8.174130   -0.668429    1.114843
    112          1           0       -8.593633   -2.018241   -1.333692
    113          1           0       -7.573199   -0.616276   -1.757631
    114          1           0      -10.068911   -0.429301   -0.050875
    115          1           0       -9.996008   -1.173110   -2.757556
    116          1           0      -10.470876    0.588743   -2.826333
    117          1           0      -11.387872   -0.358457   -1.925702
    118          1           0       -8.814535    1.615636   -1.763955
    119          1           0       -8.129430    1.470515   -0.094288
    120          1           0      -11.182831    1.633755   -0.468081
    121          1           0      -10.464438    3.054171   -1.091649
    122          1           0       -9.894436    3.862237    0.967001
    123          1           0       -9.710872    2.312650    1.842901
    124          1           0      -12.429616    3.298669    0.944103
    125          1           0      -11.778447    5.073926    2.467571
    126          1           0      -11.096746    3.746418    3.563925
    127          1           0      -12.850728    3.976502    3.201510
    128          1           0      -12.001089    1.503200    3.216434
    129          1           0      -11.554155    0.777235    1.649402
    130          1           0      -14.261372    2.330712    1.988518
    131          1           0      -14.151481    1.026099    2.973294
    132          1           0      -14.331098   -0.402848    1.157572
    133          1           0      -13.410560    0.747064    0.064511
    134          1           0      -16.244115    1.440065    1.145777
    135          1           0      -17.315426   -0.446510    0.301572
    136          1           0      -15.827388   -0.958882   -0.572106
    137          1           0      -16.948704    0.198956   -1.224129
    138          1           0      -14.683275    2.164498   -1.268830
    139          1           0      -15.679206    2.963532   -0.052769
    140          1           0      -16.526003    2.281091   -1.412170
 ---------------------------------------------------------------------

 SCF Done:  E(RPBE1PBE) =  -3005.34239458     A.U. after   15 cycles

 Excitation energies and oscillator strengths:

 Excited State   1:      Singlet-A      1.8886 eV  656.50 nm  f=0.3352  <S**2>=0.000
     245 -> 248        0.19030
     246 -> 247        0.68687
     246 <- 247       -0.10020
 This state for optimization and/or second-order correction.
 Total Energy, E(TD-HF/TD-DFT) =  -3005.27299154
 Copying the excited state density for this state as the 1-particle RhoCI density.

 Excited State   2:      Singlet-A      2.2008 eV  563.36 nm  f=0.1505  <S**2>=0.000
     245 -> 247        0.65864
     246 -> 248       -0.24671

 Excited State   3:      Singlet-A      2.9756 eV  416.68 nm  f=0.0001  <S**2>=0.000
     241 -> 247       -0.33391
     241 -> 249       -0.10753
     242 -> 247       -0.27804
     243 -> 247        0.21266
     244 -> 247        0.48349

 Excited State   4:      Singlet-A      2.9828 eV  415.66 nm  f=0.0001  <S**2>=0.000
     241 -> 247        0.28459
     242 -> 247        0.11272
     243 -> 247        0.61039

 Excited State   5:      Singlet-A      3.0148 eV  411.25 nm  f=0.0004  <S**2>=0.000
     241 -> 247        0.39870
     242 -> 247        0.15722
     243 -> 247       -0.22691
     244 -> 247        0.49007

 The electronic state is 1-A.
 Alpha  occ. eigenvalues --  -46.92269 -19.26831 -19.25426 -19.20188 -19.19490
 Alpha  occ. eigenvalues --  -19.18535 -19.17972 -14.41053 -14.40749 -14.38547
 Alpha  occ. eigenvalues --  -14.38461 -10.36693 -10.36255 -10.31611 -10.31480
 Alpha  occ. eigenvalues --  -10.30947 -10.28577 -10.28492 -10.28467 -10.28246
 Alpha  occ. eigenvalues --  -10.27867 -10.27516 -10.27113 -10.26676 -10.26565
 Alpha  occ. eigenvalues --  -10.26071 -10.25924 -10.25699 -10.25611 -10.25578
 Alpha  occ. eigenvalues --  -10.25569 -10.25275 -10.25209 -10.25190 -10.24830
 Alpha  occ. eigenvalues --  -10.24807 -10.24712 -10.24464 -10.24285 -10.24243
 Alpha  occ. eigenvalues --  -10.23949 -10.23940 -10.23796 -10.23710 -10.23540
 Alpha  occ. eigenvalues --  -10.23487 -10.23333 -10.23327 -10.23316 -10.23270
 Alpha  occ. eigenvalues --  -10.23146 -10.23102 -10.22965 -10.22897 -10.22774
 Alpha  occ. eigenvalues --  -10.22737 -10.22706 -10.22412 -10.22410 -10.22373
 Alpha  occ. eigenvalues --  -10.22231 -10.22167 -10.21966 -10.21815 -10.21794
 Alpha  occ. eigenvalues --  -10.21265  -3.14176  -1.87035  -1.86532  -1.86399
 Alpha  occ. eigenvalues --   -1.11767  -1.11167  -1.04632  -1.03291  -1.03176
 Alpha  occ. eigenvalues --   -0.99759  -0.98396  -0.97450  -0.97161  -0.96313
 Alpha  occ. eigenvalues --   -0.86457  -0.85269  -0.83949  -0.83749  -0.82791
 Alpha  occ. eigenvalues --   -0.82227  -0.81767  -0.81332  -0.81009  -0.80648
 Alpha  occ. eigenvalues --   -0.80070  -0.79600  -0.78485  -0.77668  -0.77002
 Alpha  occ. eigenvalues --   -0.76573  -0.75589  -0.75107  -0.74716  -0.74309
 Alpha  occ. eigenvalues --   -0.73660  -0.72130  -0.71898  -0.71174  -0.70283
 Alpha  occ. eigenvalues --   -0.70090  -0.69378  -0.69285  -0.69050  -0.68696
 Alpha  occ. eigenvalues --   -0.67720  -0.66721  -0.65674  -0.64845  -0.63218
 Alpha  occ. eigenvalues --   -0.62590  -0.62075  -0.61215  -0.60821  -0.60212
 Alpha  occ. eigenvalues --   -0.59518  -0.59051  -0.58579  -0.58260  -0.57921
 Alpha  occ. eigenvalues --   -0.57707  -0.57490  -0.56937  -0.56329  -0.54228
 Alpha  occ. eigenvalues --   -0.54090  -0.53663  -0.53418  -0.52941  -0.52760
 Alpha  occ. eigenvalues --   -0.52077  -0.51370  -0.51100  -0.50329  -0.49715
 Alpha  occ. eigenvalues --   -0.49516  -0.48979  -0.48772  -0.48476  -0.48270
 Alpha  occ. eigenvalues --   -0.48215  -0.48146  -0.47857  -0.47642  -0.47280
 Alpha  occ. eigenvalues --   -0.46965  -0.46846  -0.46636  -0.46449  -0.46369
 Alpha  occ. eigenvalues --   -0.46152  -0.45714  -0.45627  -0.45385  -0.44946
 Alpha  occ. eigenvalues --   -0.44678  -0.44595  -0.44329  -0.44067  -0.43848
 Alpha  occ. eigenvalues --   -0.43745  -0.43665  -0.43610  -0.43310  -0.42976
 Alpha  occ. eigenvalues --   -0.42874  -0.42662  -0.42398  -0.42067  -0.41898
 Alpha  occ. eigenvalues --   -0.41803  -0.41522  -0.41302  -0.41099  -0.41034
 Alpha  occ. eigenvalues --   -0.40739  -0.40575  -0.40530  -0.40292  -0.40146
 Alpha  occ. eigenvalues --   -0.40043  -0.39998  -0.39634  -0.39519  -0.39333
 Alpha  occ. eigenvalues --   -0.39189  -0.38998  -0.38768  -0.38564  -0.38468
 Alpha  occ. eigenvalues --   -0.38277  -0.37967  -0.37803  -0.37734  -0.37489
 Alpha  occ. eigenvalues --   -0.37318  -0.37212  -0.37129  -0.36928  -0.36635
 Alpha  occ. eigenvalues --   -0.36608  -0.36470  -0.36399  -0.36134  -0.36028
 Alpha  occ. eigenvalues --   -0.35855  -0.35255  -0.35133  -0.34868  -0.34736
 Alpha  occ. eigenvalues --   -0.34702  -0.34298  -0.34145  -0.33605  -0.33521
 Alpha  occ. eigenvalues --   -0.33212  -0.32904  -0.32271  -0.32130  -0.31869
 Alpha  occ. eigenvalues --   -0.31661  -0.31621  -0.31366  -0.31270  -0.31033
 Alpha  occ. eigenvalues --   -0.30795  -0.30468  -0.30094  -0.29616  -0.29310
 Alpha  occ. eigenvalues --   -0.28673  -0.28579  -0.28068  -0.26210  -0.25360
 Alpha  occ. eigenvalues --   -0.24994  -0.24826  -0.24742  -0.24656  -0.20128
 Alpha  occ. eigenvalues --   -0.18509
 Alpha virt. eigenvalues --   -0.10716  -0.04638  -0.03104  -0.01771  -0.01284
 Alpha virt. eigenvalues --   -0.00523   0.00685   0.01318   0.02157   0.03250
 Alpha virt. eigenvalues --    0.04477   0.04786   0.04891   0.05272   0.05583

 Mulliken charges:
               1
     1  Mg   0.950852
     2  C   -0.095327
     3  C   -0.057730
     4  C   -0.023349
     5  C   -0.078872
     6  N   -0.345320
     7  C    0.069267
     8  C   -0.153221
     9  C   -0.105855
    10  C    0.023829
    11  C    0.032433
    12  C    0.017619
    13  C   -0.019894
    14  C    0.245801
    15  O   -0.336024
    16  O   -0.330298
    17  N   -0.476044
    18  C    0.173971
    19  C   -0.196150
    20  C   -0.087358
    21  C    0.151767
    22  C    0.077448
    23  C    0.032455
    24  O   -0.229065
    25  C   -0.034588
    26  N   -0.386809
    27  C    0.027577
    28  C   -0.106673
    29  C   -0.107439
    30  C    0.110659
    31  C    0.009438
    32  C   -0.028439
    33  C   -0.072095
    34  N   -0.503750
    35  C    0.134984
    36  C   -0.199399
    37  C   -0.076807
    38  C    0.215041
    39  C    0.085082
    40  C    0.114033
    41  O   -0.221349
    42  C   -0.031707
    43  C    0.279232
    44  O   -0.248146
    45  O   -0.343419
    46  C    0.121233
    47  C    0.247268
    48  C   -0.155485
    49  C   -0.209307
    50  C   -0.002820
    51  C    0.046932
    52  C   -0.094245
    53  C   -0.017418
    54  C   -0.292757
    55  C    0.010674
    56  C    0.022937
    57  C   -0.046739
    58  C    0.006709
    59  C   -0.238101
    60  C   -0.001190
    61  C   -0.016506
    62  C   -0.085311
    63  C    0.020553
    64  C   -0.265992
    65  C   -0.006201
    66  C   -0.017224
    67  H    0.000012
    68  H    0.025048
    69  H    0.013055
    70  H    0.046714
    71  H    0.033195
    72  H    0.038084
    73  H    0.058812
    74  H    0.037672
    75  H    0.037701
    76  H    0.063940
    77  H    0.067769
    78  H    0.061927
    79  H    0.052826
    80  H    0.039107
    81  H    0.064613
    82  H    0.049079
    83  H    0.045532
    84  H    0.068892
    85  H    0.052953
    86  H    0.045296
    87  H    0.049147
    88  H    0.050801
    89  H    0.030689
    90  H    0.043660
    91  H    0.034781
    92  H    0.036401
    93  H    0.049877
    94  H    0.046757
    95  H    0.029248
    96  H    0.060206
    97  H    0.065561
    98  H    0.116390
    99  H    0.066923
   100  H    0.047549
   101  H    0.063534
   102  H    0.067772
   103  H    0.075843
   104  H    0.037344
   105  H    0.049559
   106  H    0.040452
   107  H    0.066943
   108  H    0.042310
   109  H    0.029352
   110  H    0.056119
   111  H    0.030825
   112  H    0.026391
   113  H    0.026977
   114  H    0.043783
   115  H    0.049213
   116  H    0.023366
   117  H    0.023083
   118  H    0.023155
   119  H    0.043961
   120  H    0.025337
   121  H    0.029159
   122  H    0.026719
   123  H    0.027321
   124  H    0.028665
   125  H    0.042506
   126  H    0.037995
   127  H    0.025777
   128  H    0.019423
   129  H    0.042614
   130  H    0.020188
   131  H    0.023048
   132  H    0.039502
   133  H    0.048192
   134  H    0.037955
   135  H    0.031164
   136  H    0.032211
   137  H    0.016522
   138  H    0.039786
   139  H    0.022754
   140  H    0.049598
 Sum of Mulliken charges =  -0.00000

 Dipole moment (field-independent basis, Debye):
    X=             -6.6323    Y=              2.3992    Z=             -0.7554  Tot=              7.0933
 Quadrupole moment (field-independent basis, Debye-Ang):
   XX=           -385.0004   YY=           -413.1945   ZZ=           -394.7812
   XY=            -10.4388   XZ=              4.9561   YZ=             -4.0546

 Normal termination of Gaussian 16 at Thu May  5 05:23:48 2022.
