 Gaussian 16, Revision A.03,
 Gaussian 16:  ES64L-G16RevA.03 25-Dec-2016

 --------------------------------
 #p wB97XD/Def2SVP td=(nstates=5)
 --------------------------------

 ----------------------------------------------------
 step_701_chromophore_10 TDDFT with wB97XD functional
 ----------------------------------------------------
 Symbolic Z-matrix:
 Charge =  0 Multiplicity = 1

                         Standard orientation:
 ---------------------------------------------------------------------
 Center     Atomic      Atomic             Coordinates (Angstroms)
 Number     Number       Type             X           Y           Z
 ---------------------------------------------------------------------
      1         12           0        5.922721    0.427512    0.178027
      2          6           0        3.167615   -1.836390   -0.393479
      3          6           0        4.034295    2.901383   -1.393969
      4          6           0        8.680809    2.423183    0.219914
      5          6           0        7.826340   -2.300052    1.291492
      6          7           0        3.766378    0.526882   -0.763776
      7          6           0        2.870844   -0.510366   -0.784956
      8          6           0        1.561807    0.030221   -1.430250
      9          6           0        1.976906    1.394631   -2.059479
     10          6           0        3.303354    1.654746   -1.330935
     11          6           0        1.972064    1.534823   -3.595179
     12          6           0        0.338483    0.095764   -0.410203
     13          6           0       -0.943327   -0.670286   -0.784598
     14          6           0       -1.396054   -1.672911    0.160189
     15          8           0       -0.648254   -2.441085    0.873002
     16          8           0       -2.699090   -1.616391    0.320550
     17          7           0        6.325725    2.450103   -0.378019
     18          6           0        5.366482    3.296945   -0.908537
     19          6           0        5.903639    4.636259   -0.974598
     20          6           0        7.266261    4.474718   -0.500447
     21          6           0        7.494323    3.099269   -0.206981
     22          6           0        5.046689    5.788239   -1.481546
     23          6           0        8.208054    5.608831   -0.219408
     24          8           0        9.273657    5.462619    0.331350
     25          6           0        7.798123    7.034507   -0.539905
     26          7           0        8.014150    0.095683    0.700974
     27          6           0        8.920001    1.117563    0.689962
     28          6           0       10.292074    0.646674    1.143789
     29          6           0        9.955669   -0.867723    1.690792
     30          6           0        8.450219   -1.036055    1.329684
     31          6           0       11.385267    0.713441    0.018721
     32          6           0       10.123835   -1.003083    3.237852
     33          6           0        9.328214   -0.096377    4.158684
     34          7           0        5.663329   -1.576460    0.443711
     35          6           0        6.539050   -2.571769    0.824632
     36          6           0        5.901631   -3.853947    0.702469
     37          6           0        4.575641   -3.523085    0.319261
     38          6           0        4.499859   -2.163461    0.125948
     39          6           0        6.455392   -5.206090    1.010470
     40          6           0        3.276532   -4.184642    0.006452
     41          8           0        2.982206   -5.377754    0.116041
     42          6           0        2.338658   -3.103379   -0.476424
     43          6           0        1.968394   -3.445927   -1.892281
     44          8           0        2.557951   -2.995127   -2.854451
     45          8           0        0.902793   -4.310538   -1.894813
     46          6           0        0.383598   -4.561850   -3.226478
     47          6           0       -3.363347   -2.292959    1.520602
     48          6           0       -4.906004   -2.041480    1.241570
     49          6           0       -5.814780   -2.871300    0.605082
     50          6           0       -5.455414   -4.137530   -0.245246
     51          6           0       -7.310941   -2.539428    0.662652
     52          6           0       -7.551744   -1.115791    0.339800
     53          6           0       -8.279101   -1.019371   -1.030900
     54          6           0       -9.514185   -0.057077   -0.911865
     55          6           0      -10.336617   -0.297025   -2.204826
     56          6           0       -9.024954    1.415341   -0.713086
     57          6           0      -10.305509    2.270781   -0.351819
     58          6           0      -10.304785    2.863055    1.112983
     59          6           0      -11.726475    2.971216    1.710563
     60          6           0      -11.832904    4.042968    2.816983
     61          6           0      -12.173566    1.527179    2.141352
     62          6           0      -13.760868    1.362751    2.012767
     63          6           0      -14.240191    0.607743    0.758617
     64          6           0      -15.665005    1.042828    0.312435
     65          6           0      -16.466873   -0.119672   -0.300484
     66          6           0      -15.654105    2.145225   -0.772709
     67          1           0        3.439766    3.623591   -1.956914
     68          1           0        9.536434    3.058106    0.459945
     69          1           0        8.418909   -3.194278    1.498006
     70          1           0        1.202829   -0.648576   -2.203259
     71          1           0        1.267181    2.130937   -1.680726
     72          1           0        1.462110    0.647419   -3.968706
     73          1           0        2.935570    1.589457   -4.101397
     74          1           0        1.365977    2.395766   -3.877360
     75          1           0        0.024895    1.133158   -0.297239
     76          1           0        0.716485   -0.300046    0.532080
     77          1           0       -0.812636   -1.166903   -1.746410
     78          1           0       -1.634812    0.159143   -0.933944
     79          1           0        5.180983    6.581274   -0.746454
     80          1           0        4.003803    5.477605   -1.542212
     81          1           0        5.336888    6.039799   -2.501658
     82          1           0        7.590214    7.104928   -1.607385
     83          1           0        8.634303    7.723578   -0.417036
     84          1           0        6.956089    7.391191    0.053594
     85          1           0       10.554378    1.410237    1.875637
     86          1           0       10.541213   -1.633819    1.182685
     87          1           0       10.910473    0.953366   -0.932223
     88          1           0       12.126385   -0.085520    0.054744
     89          1           0       11.987194    1.617419    0.103367
     90          1           0       11.172275   -0.843750    3.486032
     91          1           0        9.743044   -2.008711    3.417072
     92          1           0        9.977399    0.319068    4.929713
     93          1           0        8.512691   -0.632646    4.645075
     94          1           0        8.986579    0.798414    3.637600
     95          1           0        7.535698   -5.130934    1.131368
     96          1           0        6.209110   -5.879475    0.189919
     97          1           0        5.974885   -5.638425    1.888871
     98          1           0        1.525214   -3.051697    0.247551
     99          1           0        1.163764   -4.649830   -3.981934
    100          1           0       -0.271890   -3.708446   -3.398193
    101          1           0       -0.119158   -5.528711   -3.201270
    102          1           0       -3.147923   -1.841560    2.488368
    103          1           0       -3.220055   -3.371820    1.580765
    104          1           0       -5.407764   -1.234569    1.775991
    105          1           0       -4.446302   -3.996474   -0.632110
    106          1           0       -6.094916   -4.122662   -1.128145
    107          1           0       -5.570246   -5.124993    0.200170
    108          1           0       -7.669817   -2.532649    1.692493
    109          1           0       -7.932843   -3.256018    0.125701
    110          1           0       -6.627868   -0.550529    0.217878
    111          1           0       -8.174130   -0.668429    1.114843
    112          1           0       -8.593633   -2.018241   -1.333692
    113          1           0       -7.573199   -0.616276   -1.757631
    114          1           0      -10.068911   -0.429301   -0.050875
    115          1           0       -9.996008   -1.173110   -2.757556
    116          1           0      -10.470876    0.588743   -2.826333
    117          1           0      -11.387872   -0.358457   -1.925702
    118          1           0       -8.814535    1.615636   -1.763955
    119          1           0       -8.129430    1.470515   -0.094288
    120          1           0      -11.182831    1.633755   -0.468081
    121          1           0      -10.464438    3.054171   -1.091649
    122          1           0       -9.894436    3.862237    0.967001
    123          1           0       -9.710872    2.312650    1.842901
    124          1           0      -12.429616    3.298669    0.944103
    125          1           0      -11.778447    5.073926    2.467571
    126          1           0      -11.096746    3.746418    3.563925
    127          1           0      -12.850728    3.976502    3.201510
    128          1           0      -12.001089    1.503200    3.216434
    129          1           0      -11.554155    0.777235    1.649402
    130          1           0      -14.261372    2.330712    1.988518
    131          1           0      -14.151481    1.026099    2.973294
    132          1           0      -14.331098   -0.402848    1.157572
    133          1           0      -13.410560    0.747064    0.064511
    134          1           0      -16.244115    1.440065    1.145777
    135          1           0      -17.315426   -0.446510    0.301572
    136          1           0      -15.827388   -0.958882   -0.572106
    137          1           0      -16.948704    0.198956   -1.224129
    138          1           0      -14.683275    2.164498   -1.268830
    139          1           0      -15.679206    2.963532   -0.052769
    140          1           0      -16.526003    2.281091   -1.412170
 ---------------------------------------------------------------------

 SCF Done:  E(RwB97XD) =  -3007.85245560     A.U. after   19 cycles

 Excitation energies and oscillator strengths:

 Excited State   1:      Singlet-A      1.6598 eV  746.99 nm  f=0.3514  <S**2>=0.000
     245 -> 248       -0.20087
     246 -> 247        0.67876
     245 <- 248       -0.12285
 This state for optimization and/or second-order correction.
 Total Energy, E(TD-HF/TD-DFT) =  -3007.79146007
 Copying the excited state density for this state as the 1-particle RhoCI density.

 Excited State   2:      Singlet-A      2.1131 eV  586.75 nm  f=0.1548  <S**2>=0.000
     245 -> 247        0.64871
     246 -> 248        0.26804
     246 <- 248        0.10180

 Excited State   3:      Singlet-A      3.3283 eV  372.52 nm  f=0.0042  <S**2>=0.000
     244 -> 247        0.67370
     246 -> 248       -0.14401

 Excited State   4:      Singlet-A      3.4428 eV  360.12 nm  f=0.0005  <S**2>=0.000
     243 -> 247        0.65710
     246 -> 248       -0.15334

 Excited State   5:      Singlet-A      3.5372 eV  350.51 nm  f=0.0031  <S**2>=0.000
     240 -> 247        0.38987
     240 -> 249       -0.24713
     240 -> 251        0.12151
     241 -> 247        0.38905
     241 -> 249       -0.24375
     241 -> 251        0.11922
     243 -> 247       -0.11042

 The electronic state is 1-A.
 Alpha  occ. eigenvalues --  -46.95211 -19.31416 -19.30017 -19.24914 -19.24134
 Alpha  occ. eigenvalues --  -19.23365 -19.22781 -14.46142 -14.45817 -14.43475
 Alpha  occ. eigenvalues --  -14.43394 -10.43494 -10.43116 -10.38332 -10.38167
 Alpha  occ. eigenvalues --  -10.37777 -10.35099 -10.34819 -10.34779 -10.34509
 Alpha  occ. eigenvalues --  -10.34165 -10.33860 -10.33480 -10.32988 -10.32889
 Alpha  occ. eigenvalues --  -10.32409 -10.32239 -10.32161 -10.31865 -10.31821
 Alpha  occ. eigenvalues --  -10.31772 -10.31625 -10.31588 -10.31473 -10.31270
 Alpha  occ. eigenvalues --  -10.31144 -10.31122 -10.30812 -10.30807 -10.30649
 Alpha  occ. eigenvalues --  -10.30397 -10.30313 -10.30044 -10.29978 -10.29928
 Alpha  occ. eigenvalues --  -10.29865 -10.29693 -10.29675 -10.29610 -10.29565
 Alpha  occ. eigenvalues --  -10.29507 -10.29452 -10.29332 -10.29326 -10.29129
 Alpha  occ. eigenvalues --  -10.29097 -10.29079 -10.29006 -10.28740 -10.28714
 Alpha  occ. eigenvalues --  -10.28674 -10.28578 -10.28370 -10.28199 -10.28135
 Alpha  occ. eigenvalues --  -10.27679  -3.21003  -1.94606  -1.94103  -1.93966
 Alpha  occ. eigenvalues --   -1.19167  -1.18590  -1.12098  -1.10778  -1.10584
 Alpha  occ. eigenvalues --   -1.07131  -1.05758  -1.04830  -1.04538  -1.03688
 Alpha  occ. eigenvalues --   -0.94099  -0.92924  -0.91615  -0.91409  -0.90455
 Alpha  occ. eigenvalues --   -0.89839  -0.89429  -0.88922  -0.88616  -0.88306
 Alpha  occ. eigenvalues --   -0.87683  -0.87253  -0.86145  -0.85287  -0.84643
 Alpha  occ. eigenvalues --   -0.84218  -0.83245  -0.82791  -0.82383  -0.81985
 Alpha  occ. eigenvalues --   -0.81338  -0.79776  -0.79558  -0.78777  -0.77901
 Alpha  occ. eigenvalues --   -0.77756  -0.77059  -0.76974  -0.76622  -0.76361
 Alpha  occ. eigenvalues --   -0.75326  -0.74256  -0.73234  -0.72425  -0.70774
 Alpha  occ. eigenvalues --   -0.70230  -0.69617  -0.68867  -0.68358  -0.67878
 Alpha  occ. eigenvalues --   -0.67012  -0.66457  -0.66050  -0.65750  -0.65374
 Alpha  occ. eigenvalues --   -0.65367  -0.65143  -0.64616  -0.63742  -0.61736
 Alpha  occ. eigenvalues --   -0.61514  -0.61117  -0.60882  -0.60322  -0.60286
 Alpha  occ. eigenvalues --   -0.59492  -0.58829  -0.58546  -0.57792  -0.57096
 Alpha  occ. eigenvalues --   -0.56947  -0.56374  -0.56163  -0.55877  -0.55686
 Alpha  occ. eigenvalues --   -0.55644  -0.55578  -0.55271  -0.55007  -0.54703
 Alpha  occ. eigenvalues --   -0.54303  -0.54200  -0.54025  -0.53981  -0.53691
 Alpha  occ. eigenvalues --   -0.53524  -0.53062  -0.53006  -0.52722  -0.52276
 Alpha  occ. eigenvalues --   -0.51989  -0.51901  -0.51654  -0.51455  -0.51179
 Alpha  occ. eigenvalues --   -0.51082  -0.51008  -0.50910  -0.50632  -0.50297
 Alpha  occ. eigenvalues --   -0.50188  -0.49921  -0.49701  -0.49400  -0.49172
 Alpha  occ. eigenvalues --   -0.49062  -0.48755  -0.48540  -0.48397  -0.48262
 Alpha  occ. eigenvalues --   -0.47956  -0.47819  -0.47755  -0.47410  -0.47282
 Alpha  occ. eigenvalues --   -0.47260  -0.47194  -0.46819  -0.46710  -0.46455
 Alpha  occ. eigenvalues --   -0.46350  -0.46167  -0.45954  -0.45670  -0.45584
 Alpha  occ. eigenvalues --   -0.45402  -0.45069  -0.44926  -0.44839  -0.44619
 Alpha  occ. eigenvalues --   -0.44433  -0.44369  -0.44268  -0.44097  -0.43847
 Alpha  occ. eigenvalues --   -0.43845  -0.43568  -0.43420  -0.43213  -0.43117
 Alpha  occ. eigenvalues --   -0.42897  -0.42322  -0.42153  -0.41860  -0.41784
 Alpha  occ. eigenvalues --   -0.41689  -0.41315  -0.41166  -0.40623  -0.40541
 Alpha  occ. eigenvalues --   -0.40288  -0.39933  -0.39193  -0.39143  -0.38805
 Alpha  occ. eigenvalues --   -0.38708  -0.38632  -0.38437  -0.38248  -0.38032
 Alpha  occ. eigenvalues --   -0.37762  -0.37360  -0.36957  -0.36568  -0.36493
 Alpha  occ. eigenvalues --   -0.35814  -0.35363  -0.34724  -0.32748  -0.32146
 Alpha  occ. eigenvalues --   -0.32032  -0.31916  -0.31396  -0.31216  -0.24983
 Alpha  occ. eigenvalues --   -0.22718
 Alpha virt. eigenvalues --   -0.06690   0.00753   0.03228   0.04931   0.05240
 Alpha virt. eigenvalues --    0.06240   0.06569   0.08072   0.08874   0.09656
 Alpha virt. eigenvalues --    0.11064   0.11407   0.11590   0.12076   0.12227

 Mulliken charges:
               1
     1  Mg   0.943500
     2  C   -0.102575
     3  C   -0.070621
     4  C   -0.040782
     5  C   -0.099086
     6  N   -0.309339
     7  C    0.037035
     8  C   -0.122806
     9  C   -0.077394
    10  C    0.004103
    11  C    0.041788
    12  C    0.027428
    13  C   -0.005757
    14  C    0.234736
    15  O   -0.332299
    16  O   -0.329133
    17  N   -0.443464
    18  C    0.164013
    19  C   -0.188061
    20  C   -0.078423
    21  C    0.142744
    22  C    0.093478
    23  C    0.026142
    24  O   -0.223775
    25  C   -0.022171
    26  N   -0.354334
    27  C    0.015619
    28  C   -0.086174
    29  C   -0.077890
    30  C    0.093851
    31  C    0.019746
    32  C   -0.014002
    33  C   -0.055020
    34  N   -0.463349
    35  C    0.131672
    36  C   -0.199280
    37  C   -0.072222
    38  C    0.197995
    39  C    0.097786
    40  C    0.092915
    41  O   -0.210812
    42  C    0.012773
    43  C    0.258624
    44  O   -0.242968
    45  O   -0.342669
    46  C    0.137020
    47  C    0.260061
    48  C   -0.159540
    49  C   -0.202398
    50  C    0.012006
    51  C    0.063710
    52  C   -0.074339
    53  C   -0.001863
    54  C   -0.250769
    55  C    0.020924
    56  C    0.033985
    57  C   -0.018489
    58  C    0.021476
    59  C   -0.205487
    60  C    0.011934
    61  C    0.002919
    62  C   -0.067107
    63  C    0.041040
    64  C   -0.235533
    65  C    0.005301
    66  C   -0.004655
    67  H   -0.007661
    68  H    0.019800
    69  H    0.007191
    70  H    0.025157
    71  H    0.021554
    72  H    0.032248
    73  H    0.054173
    74  H    0.032598
    75  H    0.030222
    76  H    0.054292
    77  H    0.061521
    78  H    0.058304
    79  H    0.045665
    80  H    0.034295
    81  H    0.060484
    82  H    0.042840
    83  H    0.044154
    84  H    0.064019
    85  H    0.042714
    86  H    0.037661
    87  H    0.042530
    88  H    0.045915
    89  H    0.024932
    90  H    0.036616
    91  H    0.024570
    92  H    0.031449
    93  H    0.045006
    94  H    0.035516
    95  H    0.023117
    96  H    0.055604
    97  H    0.061132
    98  H    0.106056
    99  H    0.062737
   100  H    0.042788
   101  H    0.060481
   102  H    0.065208
   103  H    0.072125
   104  H    0.032191
   105  H    0.043780
   106  H    0.033608
   107  H    0.062808
   108  H    0.034501
   109  H    0.022237
   110  H    0.044927
   111  H    0.020472
   112  H    0.014266
   113  H    0.017797
   114  H    0.025425
   115  H    0.044346
   116  H    0.017139
   117  H    0.016301
   118  H    0.011291
   119  H    0.036729
   120  H   -0.000261
   121  H    0.023191
   122  H    0.018858
   123  H    0.017238
   124  H    0.012533
   125  H    0.037796
   126  H    0.030803
   127  H    0.018563
   128  H    0.010186
   129  H    0.028203
   130  H    0.004623
   131  H    0.016552
   132  H    0.030660
   133  H    0.031814
   134  H    0.027893
   135  H    0.026091
   136  H    0.026218
   137  H    0.009596
   138  H    0.033451
   139  H    0.014710
   140  H    0.044708
 Sum of Mulliken charges =  -0.00000

 Dipole moment (field-independent basis, Debye):
    X=             -6.6945    Y=              2.5095    Z=             -0.8035  Tot=              7.1944
 Quadrupole moment (field-independent basis, Debye-Ang):
   XX=           -386.2583   YY=           -411.5404   ZZ=           -394.3928
   XY=             -9.2819   XZ=              4.6144   YZ=             -4.0156

 Normal termination of Gaussian 16 at Thu May  5 05:53:02 2022.
