 Gaussian 16, Revision A.03,
 Gaussian 16:  ES64L-G16RevA.03 25-Dec-2016

 --------------------
 #p ZINDO=(nstates=5)
 --------------------

 -----------------------------
 step_701_chromophore_10 ZINDO
 -----------------------------
 Symbolic Z-matrix:
 Charge =  0 Multiplicity = 1

                         Standard orientation:
 ---------------------------------------------------------------------
 Center     Atomic      Atomic             Coordinates (Angstroms)
 Number     Number       Type             X           Y           Z
 ---------------------------------------------------------------------
      1         12           0        5.922721    0.427512    0.178027
      2          6           0        3.167615   -1.836390   -0.393479
      3          6           0        4.034295    2.901383   -1.393969
      4          6           0        8.680809    2.423183    0.219914
      5          6           0        7.826340   -2.300052    1.291492
      6          7           0        3.766378    0.526882   -0.763776
      7          6           0        2.870844   -0.510366   -0.784956
      8          6           0        1.561807    0.030221   -1.430250
      9          6           0        1.976906    1.394631   -2.059479
     10          6           0        3.303354    1.654746   -1.330935
     11          6           0        1.972064    1.534823   -3.595179
     12          6           0        0.338483    0.095764   -0.410203
     13          6           0       -0.943327   -0.670286   -0.784598
     14          6           0       -1.396054   -1.672911    0.160189
     15          8           0       -0.648254   -2.441085    0.873002
     16          8           0       -2.699090   -1.616391    0.320550
     17          7           0        6.325725    2.450103   -0.378019
     18          6           0        5.366482    3.296945   -0.908537
     19          6           0        5.903639    4.636259   -0.974598
     20          6           0        7.266261    4.474718   -0.500447
     21          6           0        7.494323    3.099269   -0.206981
     22          6           0        5.046689    5.788239   -1.481546
     23          6           0        8.208054    5.608831   -0.219408
     24          8           0        9.273657    5.462619    0.331350
     25          6           0        7.798123    7.034507   -0.539905
     26          7           0        8.014150    0.095683    0.700974
     27          6           0        8.920001    1.117563    0.689962
     28          6           0       10.292074    0.646674    1.143789
     29          6           0        9.955669   -0.867723    1.690792
     30          6           0        8.450219   -1.036055    1.329684
     31          6           0       11.385267    0.713441    0.018721
     32          6           0       10.123835   -1.003083    3.237852
     33          6           0        9.328214   -0.096377    4.158684
     34          7           0        5.663329   -1.576460    0.443711
     35          6           0        6.539050   -2.571769    0.824632
     36          6           0        5.901631   -3.853947    0.702469
     37          6           0        4.575641   -3.523085    0.319261
     38          6           0        4.499859   -2.163461    0.125948
     39          6           0        6.455392   -5.206090    1.010470
     40          6           0        3.276532   -4.184642    0.006452
     41          8           0        2.982206   -5.377754    0.116041
     42          6           0        2.338658   -3.103379   -0.476424
     43          6           0        1.968394   -3.445927   -1.892281
     44          8           0        2.557951   -2.995127   -2.854451
     45          8           0        0.902793   -4.310538   -1.894813
     46          6           0        0.383598   -4.561850   -3.226478
     47          6           0       -3.363347   -2.292959    1.520602
     48          6           0       -4.906004   -2.041480    1.241570
     49          6           0       -5.814780   -2.871300    0.605082
     50          6           0       -5.455414   -4.137530   -0.245246
     51          6           0       -7.310941   -2.539428    0.662652
     52          6           0       -7.551744   -1.115791    0.339800
     53          6           0       -8.279101   -1.019371   -1.030900
     54          6           0       -9.514185   -0.057077   -0.911865
     55          6           0      -10.336617   -0.297025   -2.204826
     56          6           0       -9.024954    1.415341   -0.713086
     57          6           0      -10.305509    2.270781   -0.351819
     58          6           0      -10.304785    2.863055    1.112983
     59          6           0      -11.726475    2.971216    1.710563
     60          6           0      -11.832904    4.042968    2.816983
     61          6           0      -12.173566    1.527179    2.141352
     62          6           0      -13.760868    1.362751    2.012767
     63          6           0      -14.240191    0.607743    0.758617
     64          6           0      -15.665005    1.042828    0.312435
     65          6           0      -16.466873   -0.119672   -0.300484
     66          6           0      -15.654105    2.145225   -0.772709
     67          1           0        3.439766    3.623591   -1.956914
     68          1           0        9.536434    3.058106    0.459945
     69          1           0        8.418909   -3.194278    1.498006
     70          1           0        1.202829   -0.648576   -2.203259
     71          1           0        1.267181    2.130937   -1.680726
     72          1           0        1.462110    0.647419   -3.968706
     73          1           0        2.935570    1.589457   -4.101397
     74          1           0        1.365977    2.395766   -3.877360
     75          1           0        0.024895    1.133158   -0.297239
     76          1           0        0.716485   -0.300046    0.532080
     77          1           0       -0.812636   -1.166903   -1.746410
     78          1           0       -1.634812    0.159143   -0.933944
     79          1           0        5.180983    6.581274   -0.746454
     80          1           0        4.003803    5.477605   -1.542212
     81          1           0        5.336888    6.039799   -2.501658
     82          1           0        7.590214    7.104928   -1.607385
     83          1           0        8.634303    7.723578   -0.417036
     84          1           0        6.956089    7.391191    0.053594
     85          1           0       10.554378    1.410237    1.875637
     86          1           0       10.541213   -1.633819    1.182685
     87          1           0       10.910473    0.953366   -0.932223
     88          1           0       12.126385   -0.085520    0.054744
     89          1           0       11.987194    1.617419    0.103367
     90          1           0       11.172275   -0.843750    3.486032
     91          1           0        9.743044   -2.008711    3.417072
     92          1           0        9.977399    0.319068    4.929713
     93          1           0        8.512691   -0.632646    4.645075
     94          1           0        8.986579    0.798414    3.637600
     95          1           0        7.535698   -5.130934    1.131368
     96          1           0        6.209110   -5.879475    0.189919
     97          1           0        5.974885   -5.638425    1.888871
     98          1           0        1.525214   -3.051697    0.247551
     99          1           0        1.163764   -4.649830   -3.981934
    100          1           0       -0.271890   -3.708446   -3.398193
    101          1           0       -0.119158   -5.528711   -3.201270
    102          1           0       -3.147923   -1.841560    2.488368
    103          1           0       -3.220055   -3.371820    1.580765
    104          1           0       -5.407764   -1.234569    1.775991
    105          1           0       -4.446302   -3.996474   -0.632110
    106          1           0       -6.094916   -4.122662   -1.128145
    107          1           0       -5.570246   -5.124993    0.200170
    108          1           0       -7.669817   -2.532649    1.692493
    109          1           0       -7.932843   -3.256018    0.125701
    110          1           0       -6.627868   -0.550529    0.217878
    111          1           0       -8.174130   -0.668429    1.114843
    112          1           0       -8.593633   -2.018241   -1.333692
    113          1           0       -7.573199   -0.616276   -1.757631
    114          1           0      -10.068911   -0.429301   -0.050875
    115          1           0       -9.996008   -1.173110   -2.757556
    116          1           0      -10.470876    0.588743   -2.826333
    117          1           0      -11.387872   -0.358457   -1.925702
    118          1           0       -8.814535    1.615636   -1.763955
    119          1           0       -8.129430    1.470515   -0.094288
    120          1           0      -11.182831    1.633755   -0.468081
    121          1           0      -10.464438    3.054171   -1.091649
    122          1           0       -9.894436    3.862237    0.967001
    123          1           0       -9.710872    2.312650    1.842901
    124          1           0      -12.429616    3.298669    0.944103
    125          1           0      -11.778447    5.073926    2.467571
    126          1           0      -11.096746    3.746418    3.563925
    127          1           0      -12.850728    3.976502    3.201510
    128          1           0      -12.001089    1.503200    3.216434
    129          1           0      -11.554155    0.777235    1.649402
    130          1           0      -14.261372    2.330712    1.988518
    131          1           0      -14.151481    1.026099    2.973294
    132          1           0      -14.331098   -0.402848    1.157572
    133          1           0      -13.410560    0.747064    0.064511
    134          1           0      -16.244115    1.440065    1.145777
    135          1           0      -17.315426   -0.446510    0.301572
    136          1           0      -15.827388   -0.958882   -0.572106
    137          1           0      -16.948704    0.198956   -1.224129
    138          1           0      -14.683275    2.164498   -1.268830
    139          1           0      -15.679206    2.963532   -0.052769
    140          1           0      -16.526003    2.281091   -1.412170
 ---------------------------------------------------------------------

 SCF Done:  E(RZINDO/S) =  -474.040054026     A.U. after   21 cycles

 Excitation energies and oscillator strengths:

 Excited State   1:      Singlet-A      1.2544 eV  988.41 nm  f=0.5800  <S**2>=0.000
     175 ->178        -0.20805
     176 ->177         0.65809
 This state for optimization and/or second-order correction.
 Total Energy, E(CIS/TDA) =  -473.993956554
 Copying the excited state density for this state as the 1-particle RhoCI density.

 Excited State   2:      Singlet-A      1.8648 eV  664.86 nm  f=0.1072  <S**2>=0.000
     175 ->177         0.58169
     176 ->178         0.37665

 Excited State   3:      Singlet-A      2.9733 eV  416.99 nm  f=0.0062  <S**2>=0.000
     167 ->179         0.10611
     168 ->177         0.27402
     168 ->179        -0.41171
     168 ->181         0.14726
     168 ->185         0.13343
     168 ->186        -0.18956
     168 ->200         0.11331
     169 ->177        -0.11628
     170 ->177        -0.11145
     170 ->179         0.12072

 Excited State   4:      Singlet-A      2.9964 eV  413.78 nm  f=0.0030  <S**2>=0.000
     168 ->177         0.14812
     168 ->181         0.17184
     169 ->177         0.26239
     169 ->179         0.22936
     169 ->181         0.33239
     169 ->183         0.15658
     169 ->186         0.19705
     169 ->187         0.14049
     170 ->181         0.11818

 Excited State   5:      Singlet-A      3.0693 eV  403.94 nm  f=1.0981  <S**2>=0.000
     173 ->177         0.28314
     174 ->177         0.12699
     175 ->177        -0.31993
     176 ->178         0.51916

 The electronic state is 1-A.
 Alpha  occ. eigenvalues --   -1.84132  -1.79096  -1.77868  -1.73218  -1.72355
 Alpha  occ. eigenvalues --   -1.69962  -1.66363  -1.61979  -1.59094  -1.58713
 Alpha  occ. eigenvalues --   -1.55424  -1.51187  -1.49600  -1.48401  -1.44775
 Alpha  occ. eigenvalues --   -1.43351  -1.40251  -1.39187  -1.38005  -1.36391
 Alpha  occ. eigenvalues --   -1.35492  -1.33550  -1.32542  -1.29954  -1.27979
 Alpha  occ. eigenvalues --   -1.27284  -1.24181  -1.22091  -1.20439  -1.17203
 Alpha  occ. eigenvalues --   -1.16642  -1.15450  -1.14684  -1.14335  -1.13082
 Alpha  occ. eigenvalues --   -1.12458  -1.11494  -1.09971  -1.05105  -1.03270
 Alpha  occ. eigenvalues --   -1.02053  -1.01088  -0.97802  -0.97178  -0.96091
 Alpha  occ. eigenvalues --   -0.95545  -0.93612  -0.92557  -0.92428  -0.91807
 Alpha  occ. eigenvalues --   -0.89995  -0.89588  -0.89470  -0.87965  -0.87260
 Alpha  occ. eigenvalues --   -0.85163  -0.83975  -0.82705  -0.81118  -0.79442
 Alpha  occ. eigenvalues --   -0.78719  -0.78133  -0.77572  -0.76779  -0.76595
 Alpha  occ. eigenvalues --   -0.75624  -0.75136  -0.75085  -0.74748  -0.74444
 Alpha  occ. eigenvalues --   -0.73728  -0.72802  -0.71861  -0.71284  -0.70855
 Alpha  occ. eigenvalues --   -0.70714  -0.69813  -0.69595  -0.68754  -0.68019
 Alpha  occ. eigenvalues --   -0.67607  -0.67145  -0.66684  -0.66253  -0.66064
 Alpha  occ. eigenvalues --   -0.65179  -0.64520  -0.64081  -0.63933  -0.63285
 Alpha  occ. eigenvalues --   -0.62636  -0.62222  -0.61931  -0.61682  -0.61235
 Alpha  occ. eigenvalues --   -0.61047  -0.60965  -0.60467  -0.59954  -0.59912
 Alpha  occ. eigenvalues --   -0.59559  -0.58985  -0.58730  -0.58266  -0.58144
 Alpha  occ. eigenvalues --   -0.57755  -0.57414  -0.56746  -0.56531  -0.56076
 Alpha  occ. eigenvalues --   -0.55652  -0.55271  -0.54939  -0.54493  -0.54272
 Alpha  occ. eigenvalues --   -0.54185  -0.53970  -0.53443  -0.52976  -0.52741
 Alpha  occ. eigenvalues --   -0.52314  -0.52207  -0.51829  -0.51588  -0.51362
 Alpha  occ. eigenvalues --   -0.50894  -0.50703  -0.50562  -0.50244  -0.50035
 Alpha  occ. eigenvalues --   -0.49867  -0.49824  -0.49571  -0.49053  -0.48976
 Alpha  occ. eigenvalues --   -0.48475  -0.48159  -0.48036  -0.47644  -0.47361
 Alpha  occ. eigenvalues --   -0.47188  -0.46690  -0.46638  -0.46496  -0.46380
 Alpha  occ. eigenvalues --   -0.45929  -0.45555  -0.45468  -0.45171  -0.45003
 Alpha  occ. eigenvalues --   -0.44622  -0.44383  -0.44290  -0.44228  -0.44096
 Alpha  occ. eigenvalues --   -0.43939  -0.43540  -0.42680  -0.42145  -0.42027
 Alpha  occ. eigenvalues --   -0.41774  -0.41225  -0.41213  -0.39111  -0.38269
 Alpha  occ. eigenvalues --   -0.37964  -0.36238  -0.34539  -0.34238  -0.34105
 Alpha  occ. eigenvalues --   -0.32531  -0.32133  -0.32014  -0.31529  -0.25646
 Alpha  occ. eigenvalues --   -0.21623
 Alpha virt. eigenvalues --   -0.08351  -0.01542  -0.00070   0.00850   0.01708
 Alpha virt. eigenvalues --    0.02740   0.03156   0.03558   0.03658   0.05363
 Alpha virt. eigenvalues --    0.06626   0.06963   0.07815   0.08108   0.08532

 Mulliken charges:
               1
     1  Mg   0.424440
     2  C   -0.038318
     3  C   -0.094472
     4  C   -0.069961
     5  C   -0.057364
     6  N   -0.281260
     7  C    0.119231
     8  C   -0.001034
     9  C    0.010464
    10  C    0.127647
    11  C   -0.044678
    12  C   -0.029792
    13  C    0.010029
    14  C    0.486410
    15  O   -0.569253
    16  O   -0.250102
    17  N   -0.321123
    18  C    0.094991
    19  C   -0.007013
    20  C   -0.046859
    21  C    0.149216
    22  C   -0.040660
    23  C    0.323782
    24  O   -0.523669
    25  C   -0.032756
    26  N   -0.269416
    27  C    0.138065
    28  C   -0.003496
    29  C   -0.001378
    30  C    0.115561
    31  C   -0.058385
    32  C   -0.027358
    33  C   -0.054178
    34  N   -0.316501
    35  C    0.100148
    36  C    0.025944
    37  C   -0.057047
    38  C    0.120777
    39  C   -0.034981
    40  C    0.336159
    41  O   -0.523635
    42  C    0.066706
    43  C    0.497575
    44  O   -0.526540
    45  O   -0.255097
    46  C    0.075380
    47  C    0.107319
    48  C   -0.114760
    49  C    0.003759
    50  C   -0.047423
    51  C   -0.018290
    52  C   -0.034376
    53  C   -0.050144
    54  C   -0.017129
    55  C   -0.065907
    56  C   -0.042614
    57  C   -0.040827
    58  C   -0.036301
    59  C   -0.015878
    60  C   -0.058643
    61  C   -0.042692
    62  C   -0.049390
    63  C   -0.031661
    64  C   -0.006448
    65  C   -0.062721
    66  C   -0.067683
    67  H    0.023738
    68  H    0.037843
    69  H    0.031228
    70  H    0.029132
    71  H    0.018673
    72  H    0.019248
    73  H    0.033608
    74  H    0.017282
    75  H    0.022861
    76  H    0.035813
    77  H    0.050515
    78  H    0.034439
    79  H    0.033942
    80  H    0.026931
    81  H    0.035498
    82  H    0.026108
    83  H    0.030155
    84  H    0.040388
    85  H    0.040243
    86  H    0.035042
    87  H    0.031467
    88  H    0.028640
    89  H    0.013586
    90  H    0.020546
    91  H    0.018552
    92  H    0.013564
    93  H    0.024249
    94  H    0.023122
    95  H    0.021367
    96  H    0.036278
    97  H    0.039209
    98  H    0.083380
    99  H    0.050035
   100  H    0.036613
   101  H    0.034826
   102  H    0.054373
   103  H    0.060778
   104  H    0.030647
   105  H    0.023109
   106  H    0.018617
   107  H    0.040597
   108  H    0.019091
   109  H    0.027715
   110  H    0.025430
   111  H    0.017811
   112  H    0.019844
   113  H    0.016618
   114  H    0.021123
   115  H    0.029953
   116  H    0.019297
   117  H    0.009366
   118  H    0.018518
   119  H    0.038345
   120  H    0.020342
   121  H    0.019596
   122  H    0.011029
   123  H    0.025944
   124  H    0.013826
   125  H    0.023771
   126  H    0.024854
   127  H    0.012461
   128  H    0.012749
   129  H    0.032794
   130  H    0.012650
   131  H    0.016084
   132  H    0.018390
   133  H    0.036834
   134  H    0.025534
   135  H    0.015780
   136  H    0.018173
   137  H    0.011337
   138  H    0.025462
   139  H    0.006150
   140  H    0.032495
 Sum of Mulliken charges =  -0.00000

 Dipole moment (field-independent basis, Debye):
    X=             -7.3124    Y=              4.2906    Z=             -1.3302  Tot=              8.5819
 N-N= 4.275710570853D+03 E-N= 0.000000000000D+00  KE=-9.226302493368D+03
 Leave Link  601 at Thu May  5 06:06:36 2022, MaxMem=  6710886400 cpu:               0.8 elap:               0.0
 (Enter /sw/apps/gaussian-16.0/g16/l9999.exe)
 1\1\GINC-BP1-COMPUTE192\SP\RZINDO CIS\STO-3G\C55H74Mg1N4O6\OF15641\05-
 May-2022\0\\#p ZINDO=(nstates=5)\\step_701_chromophore_10 ZINDO\\0,1\M
 g,0,41.358,7.963,28.685\C,0,42.875,9.195,31.722\C,0,39.322,5.956,30.68
 1\C,0,40.289,6.401,25.855\C,0,43.804,9.691,26.859\N,0,41.094,7.648,31.
 004\C,0,41.787,8.327,31.972\C,0,41.233,7.853,33.347\C,0,40.388,6.588,3
 3.007\C,0,40.208,6.762,31.492\C,0,40.875,5.214,33.51\C,0,40.456,8.997,
 34.14\C,0,40.952,9.346,35.555\C,0,41.343,10.724,35.781\O,0,41.927,11.4

 Normal termination of Gaussian 16 at Thu May  5 06:06:36 2022.
