 Gaussian 16, Revision A.03,
 Gaussian 16:  ES64L-G16RevA.03 25-Dec-2016

 ------------------------------
 #p blyp/Def2SVP td=(nstates=5)
 ------------------------------

 -------------------------------------------------
 step_601_chromophore_1 TDDFT with blyp functional
 -------------------------------------------------
 Symbolic Z-matrix:
 Charge =  0 Multiplicity = 1

                         Standard orientation:
 ---------------------------------------------------------------------
 Center     Atomic      Atomic             Coordinates (Angstroms)
 Number     Number       Type             X           Y           Z
 ---------------------------------------------------------------------
      1         12           0        5.974888    0.501580    0.186342
      2          6           0        3.746796   -2.379354   -0.235600
      3          6           0        3.490269    2.450059   -1.051057
      4          6           0        8.261873    3.003874   -0.173046
      5          6           0        8.594239   -1.816223    0.585075
      6          7           0        3.821968    0.037169   -0.638934
      7          6           0        3.092932   -1.143869   -0.600922
      8          6           0        1.623862   -0.927666   -1.141709
      9          6           0        1.695372    0.577734   -1.601493
     10          6           0        3.075300    1.073076   -1.080480
     11          6           0        1.655641    0.636631   -3.148220
     12          6           0        0.577891   -1.197399   -0.058936
     13          6           0       -0.867698   -0.813168   -0.199072
     14          6           0       -1.910075   -1.844766   -0.661532
     15          8           0       -1.629460   -3.036368   -0.733964
     16          8           0       -3.150215   -1.231667   -0.929207
     17          7           0        5.827638    2.485640   -0.216142
     18          6           0        4.710911    3.096982   -0.682463
     19          6           0        5.037733    4.511886   -0.806585
     20          6           0        6.424269    4.691856   -0.494771
     21          6           0        6.897333    3.354420   -0.307410
     22          6           0        3.963311    5.473677   -1.300128
     23          6           0        7.204182    5.936789   -0.325820
     24          8           0        8.401447    5.999341   -0.066296
     25          6           0        6.518458    7.269002   -0.523033
     26          7           0        8.097937    0.558988    0.114028
     27          6           0        8.800277    1.747946    0.106765
     28          6           0       10.242877    1.463003    0.176881
     29          6           0       10.269272   -0.004813    0.632309
     30          6           0        8.871321   -0.487990    0.439994
     31          6           0       10.966096    1.843017   -1.169949
     32          6           0       10.687675   -0.225869    2.138240
     33          6           0        9.795902    0.451399    3.246589
     34          7           0        6.142235   -1.626493    0.262326
     35          6           0        7.292345   -2.390331    0.505460
     36          6           0        6.899042   -3.813880    0.673245
     37          6           0        5.550729   -3.817213    0.359171
     38          6           0        5.150171   -2.512882    0.203575
     39          6           0        7.879054   -4.980352    0.941996
     40          6           0        4.419264   -4.723222    0.200904
     41          8           0        4.387805   -5.914013    0.234075
     42          6           0        3.184546   -3.807970   -0.275623
     43          6           0        2.104280   -4.189650    0.613787
     44          8           0        1.716004   -3.740793    1.709115
     45          8           0        1.649338   -5.331282    0.017991
     46          6           0        0.606525   -6.176083    0.560173
     47          6           0       -4.297461   -2.133162   -1.035671
     48          6           0       -5.530952   -1.223254   -1.224717
     49          6           0       -6.806178   -1.532361   -1.097498
     50          6           0       -7.277223   -2.905251   -0.846677
     51          6           0       -7.888065   -0.508481   -1.189775
     52          6           0       -8.215463    0.178215    0.159554
     53          6           0       -8.691865    1.583701   -0.164687
     54          6           0       -8.434063    2.521491    1.032519
     55          6           0       -6.931791    2.933029    1.258569
     56          6           0       -9.093765    2.128431    2.430372
     57          6           0      -10.549684    2.693137    2.611823
     58          6           0      -11.632030    1.610415    3.018166
     59          6           0      -13.017331    1.855216    2.311229
     60          6           0      -14.266259    1.754158    3.286324
     61          6           0      -13.059745    0.822021    1.216614
     62          6           0      -13.918042    1.272529   -0.010386
     63          6           0      -14.499039    0.083734   -0.798107
     64          6           0      -13.860566   -0.030845   -2.156459
     65          6           0      -14.679813   -1.022375   -2.998772
     66          6           0      -12.365275   -0.517360   -2.087804
     67          1           0        2.619267    3.020688   -1.381104
     68          1           0        9.091581    3.675375   -0.405398
     69          1           0        9.448332   -2.395201    0.941680
     70          1           0        1.616197   -1.721686   -1.887953
     71          1           0        0.961075    1.247514   -1.153778
     72          1           0        2.409389    1.390572   -3.374256
     73          1           0        0.646167    0.846162   -3.503271
     74          1           0        2.012857   -0.249459   -3.672865
     75          1           0        0.931016   -0.780423    0.884793
     76          1           0        0.545252   -2.279655    0.064606
     77          1           0       -0.730885   -0.060270   -0.975243
     78          1           0       -1.191425   -0.190356    0.634487
     79          1           0        3.064221    5.077697   -1.774514
     80          1           0        4.496360    6.132097   -1.985913
     81          1           0        3.605853    6.042699   -0.442488
     82          1           0        5.763944    7.227680    0.263089
     83          1           0        6.066335    7.424080   -1.502093
     84          1           0        7.190133    8.084416   -0.253361
     85          1           0       10.662361    2.025458    1.010801
     86          1           0       10.907364   -0.606802   -0.014469
     87          1           0       10.391618    2.619675   -1.673606
     88          1           0       10.923825    0.904961   -1.722344
     89          1           0       11.962046    2.219433   -0.935048
     90          1           0       11.672131    0.240161    2.190780
     91          1           0       10.881424   -1.278424    2.343001
     92          1           0       10.378199    1.250304    3.705419
     93          1           0        9.458139   -0.257305    4.002576
     94          1           0        8.904789    0.844453    2.758119
     95          1           0        8.139508   -5.089720    1.994914
     96          1           0        8.797026   -4.928031    0.356707
     97          1           0        7.401048   -5.898801    0.600173
     98          1           0        2.883724   -4.016815   -1.303093
     99          1           0       -0.356804   -5.836951    0.178700
    100          1           0        0.522243   -6.115547    1.645096
    101          1           0        0.657762   -7.210249    0.220282
    102          1           0       -4.341599   -2.738739   -0.131294
    103          1           0       -4.183897   -2.825479   -1.870209
    104          1           0       -5.296981   -0.209670   -1.549729
    105          1           0       -6.637380   -3.518119   -0.212002
    106          1           0       -7.324516   -3.498011   -1.760396
    107          1           0       -8.224016   -2.829234   -0.311463
    108          1           0       -8.855411   -0.984476   -1.351691
    109          1           0       -7.640050    0.185545   -1.993134
    110          1           0       -7.322429    0.184138    0.784298
    111          1           0       -8.952561   -0.454561    0.654430
    112          1           0       -9.717210    1.351878   -0.450868
    113          1           0       -8.165773    2.001723   -1.022791
    114          1           0       -8.884407    3.460266    0.710551
    115          1           0       -6.675876    3.992247    1.287226
    116          1           0       -6.354498    2.597226    0.395784
    117          1           0       -6.699992    2.455261    2.211216
    118          1           0       -8.613076    2.639594    3.264396
    119          1           0       -9.171750    1.042528    2.479843
    120          1           0      -10.886449    3.313560    1.780378
    121          1           0      -10.474332    3.453740    3.387910
    122          1           0      -11.639906    1.754782    4.098791
    123          1           0      -11.231532    0.608452    2.864193
    124          1           0      -12.925962    2.787463    1.754451
    125          1           0      -14.130039    2.422393    4.137646
    126          1           0      -14.450833    0.734505    3.623786
    127          1           0      -15.160155    2.188598    2.837104
    128          1           0      -13.406448   -0.133087    1.610678
    129          1           0      -12.044259    0.694493    0.840126
    130          1           0      -13.217018    1.796439   -0.660346
    131          1           0      -14.767934    1.859072    0.336362
    132          1           0      -15.548302    0.273357   -1.026834
    133          1           0      -14.432948   -0.850259   -0.240273
    134          1           0      -13.781660    0.972242   -2.574952
    135          1           0      -14.874692   -0.500909   -3.935563
    136          1           0      -15.631781   -1.359943   -2.590343
    137          1           0      -14.080537   -1.894864   -3.259371
    138          1           0      -11.772896    0.083388   -2.778153
    139          1           0      -12.173610   -1.546403   -2.389765
    140          1           0      -11.949985   -0.384527   -1.088759
 ---------------------------------------------------------------------

 SCF Done:  E(RB-LYP) =  -3007.36940662     A.U. after   20 cycles

 Excitation energies and oscillator strengths:

 Excited State   1:      Singlet-A      1.7912 eV  692.19 nm  f=0.2898  <S**2>=0.000
     245 -> 248       -0.18913
     246 -> 247        0.68724
     246 <- 247       -0.15006
 This state for optimization and/or second-order correction.
 Total Energy, E(TD-HF/TD-DFT) =  -3007.30358130
 Copying the excited state density for this state as the 1-particle RhoCI density.

 Excited State   2:      Singlet-A      1.8281 eV  678.21 nm  f=0.0134  <S**2>=0.000
     244 -> 247        0.60235
     245 -> 247        0.35759

 Excited State   3:      Singlet-A      1.9928 eV  622.18 nm  f=0.0579  <S**2>=0.000
     243 -> 247        0.16237
     244 -> 247       -0.35938
     245 -> 247        0.53544
     246 -> 248        0.20496

 Excited State   4:      Singlet-A      2.1491 eV  576.92 nm  f=0.0081  <S**2>=0.000
     243 -> 247        0.68467
     245 -> 247       -0.12996

 Excited State   5:      Singlet-A      2.3739 eV  522.28 nm  f=0.0001  <S**2>=0.000
     242 -> 247        0.70703

 The electronic state is 1-A.
 Alpha  occ. eigenvalues --  -46.27549 -18.82311 -18.80428 -18.77925 -18.76479
 Alpha  occ. eigenvalues --  -18.75443 -18.75068 -14.03177 -14.02526 -14.01276
 Alpha  occ. eigenvalues --  -14.00930 -10.04896 -10.02868  -9.99933  -9.99452
 Alpha  occ. eigenvalues --   -9.98376  -9.96937  -9.96744  -9.96315  -9.96040
 Alpha  occ. eigenvalues --   -9.95982  -9.95654  -9.95586  -9.95241  -9.94568
 Alpha  occ. eigenvalues --   -9.94425  -9.94264  -9.94224  -9.94138  -9.93648
 Alpha  occ. eigenvalues --   -9.93579  -9.93459  -9.93148  -9.93046  -9.92989
 Alpha  occ. eigenvalues --   -9.92937  -9.92930  -9.92568  -9.92526  -9.92374
 Alpha  occ. eigenvalues --   -9.92351  -9.92274  -9.92202  -9.92096  -9.92052
 Alpha  occ. eigenvalues --   -9.92022  -9.92007  -9.91982  -9.91891  -9.91745
 Alpha  occ. eigenvalues --   -9.91636  -9.91521  -9.91470  -9.91463  -9.91456
 Alpha  occ. eigenvalues --   -9.91428  -9.91292  -9.91074  -9.91069  -9.91055
 Alpha  occ. eigenvalues --   -9.90923  -9.90876  -9.90787  -9.90710  -9.90589
 Alpha  occ. eigenvalues --   -9.90538  -2.92106  -1.72515  -1.71999  -1.71817
 Alpha  occ. eigenvalues --   -0.96936  -0.96186  -0.93283  -0.91102  -0.90505
 Alpha  occ. eigenvalues --   -0.87769  -0.86612  -0.85838  -0.85690  -0.84719
 Alpha  occ. eigenvalues --   -0.74537  -0.74403  -0.73186  -0.72695  -0.72150
 Alpha  occ. eigenvalues --   -0.72021  -0.71709  -0.71079  -0.70560  -0.70334
 Alpha  occ. eigenvalues --   -0.69399  -0.69046  -0.68170  -0.67681  -0.66948
 Alpha  occ. eigenvalues --   -0.66137  -0.65590  -0.65252  -0.64961  -0.64201
 Alpha  occ. eigenvalues --   -0.63930  -0.62550  -0.62106  -0.61541  -0.60617
 Alpha  occ. eigenvalues --   -0.60300  -0.60122  -0.59780  -0.59678  -0.58628
 Alpha  occ. eigenvalues --   -0.58334  -0.57539  -0.56634  -0.55417  -0.54753
 Alpha  occ. eigenvalues --   -0.53925  -0.53523  -0.53144  -0.52927  -0.51564
 Alpha  occ. eigenvalues --   -0.51018  -0.50962  -0.50569  -0.50087  -0.49740
 Alpha  occ. eigenvalues --   -0.49235  -0.48998  -0.48029  -0.47654  -0.46499
 Alpha  occ. eigenvalues --   -0.46130  -0.45948  -0.45437  -0.44833  -0.44206
 Alpha  occ. eigenvalues --   -0.43951  -0.43501  -0.42910  -0.42831  -0.42486
 Alpha  occ. eigenvalues --   -0.42358  -0.41947  -0.41876  -0.41661  -0.41022
 Alpha  occ. eigenvalues --   -0.40745  -0.40276  -0.40178  -0.39995  -0.39763
 Alpha  occ. eigenvalues --   -0.39747  -0.39635  -0.39420  -0.39326  -0.39245
 Alpha  occ. eigenvalues --   -0.38896  -0.38613  -0.38420  -0.38231  -0.38010
 Alpha  occ. eigenvalues --   -0.37912  -0.37825  -0.37745  -0.37414  -0.37256
 Alpha  occ. eigenvalues --   -0.36970  -0.36903  -0.36739  -0.36423  -0.36395
 Alpha  occ. eigenvalues --   -0.36080  -0.35936  -0.35884  -0.35716  -0.35603
 Alpha  occ. eigenvalues --   -0.35238  -0.35053  -0.34685  -0.34574  -0.34509
 Alpha  occ. eigenvalues --   -0.34292  -0.34083  -0.33913  -0.33820  -0.33735
 Alpha  occ. eigenvalues --   -0.33613  -0.33532  -0.33387  -0.33120  -0.33112
 Alpha  occ. eigenvalues --   -0.32926  -0.32916  -0.32432  -0.32414  -0.32083
 Alpha  occ. eigenvalues --   -0.31872  -0.31706  -0.31621  -0.31521  -0.31402
 Alpha  occ. eigenvalues --   -0.31256  -0.31119  -0.30829  -0.30810  -0.30646
 Alpha  occ. eigenvalues --   -0.30591  -0.30417  -0.30164  -0.29999  -0.29941
 Alpha  occ. eigenvalues --   -0.29682  -0.29564  -0.29417  -0.28810  -0.28688
 Alpha  occ. eigenvalues --   -0.28489  -0.28440  -0.28408  -0.27957  -0.27734
 Alpha  occ. eigenvalues --   -0.27685  -0.27470  -0.26929  -0.26404  -0.26299
 Alpha  occ. eigenvalues --   -0.26196  -0.25856  -0.25713  -0.25460  -0.25278
 Alpha  occ. eigenvalues --   -0.25027  -0.23753  -0.23662  -0.23593  -0.23255
 Alpha  occ. eigenvalues --   -0.23122  -0.22640  -0.21787  -0.21007  -0.20719
 Alpha  occ. eigenvalues --   -0.20456  -0.20170  -0.19207  -0.18197  -0.16964
 Alpha  occ. eigenvalues --   -0.15669
 Alpha virt. eigenvalues --   -0.11446  -0.06868  -0.05974  -0.04545  -0.03523
 Alpha virt. eigenvalues --   -0.02859  -0.01449  -0.01295  -0.01164   0.00169
 Alpha virt. eigenvalues --    0.00729   0.01552   0.01884   0.02559   0.03058

 Mulliken charges:
               1
     1  Mg   0.701256
     2  C    0.032689
     3  C   -0.030711
     4  C   -0.046755
     5  C   -0.083675
     6  N   -0.183404
     7  C   -0.117106
     8  C    0.073083
     9  C   -0.004975
    10  C   -0.063660
    11  C    0.137242
    12  C    0.107480
    13  C    0.116546
    14  C    0.129301
    15  O   -0.184674
    16  O   -0.296017
    17  N   -0.314854
    18  C    0.181273
    19  C   -0.154057
    20  C    0.060437
    21  C    0.135684
    22  C    0.169095
    23  C   -0.098992
    24  O   -0.164854
    25  C    0.129946
    26  N   -0.234213
    27  C   -0.051127
    28  C    0.073991
    29  C    0.012648
    30  C    0.035953
    31  C    0.148170
    32  C    0.055175
    33  C    0.059707
    34  N   -0.232146
    35  C    0.108505
    36  C   -0.170337
    37  C    0.073792
    38  C    0.056268
    39  C    0.157956
    40  C   -0.046594
    41  O   -0.078975
    42  C    0.009547
    43  C    0.151668
    44  O   -0.211630
    45  O   -0.272088
    46  C    0.222351
    47  C    0.321066
    48  C   -0.120597
    49  C   -0.126842
    50  C    0.156561
    51  C    0.135473
    52  C    0.025667
    53  C    0.107084
    54  C   -0.055909
    55  C    0.095477
    56  C    0.112411
    57  C    0.013588
    58  C    0.100015
    59  C   -0.029210
    60  C    0.110350
    61  C    0.036644
    62  C    0.088732
    63  C    0.104682
    64  C   -0.110794
    65  C    0.129105
    66  C    0.067969
    67  H   -0.069406
    68  H   -0.039468
    69  H   -0.060790
    70  H   -0.022500
    71  H   -0.017968
    72  H   -0.019013
    73  H    0.001529
    74  H   -0.008197
    75  H   -0.033075
    76  H    0.002606
    77  H   -0.027518
    78  H    0.003387
    79  H   -0.004336
    80  H   -0.000150
    81  H    0.000735
    82  H   -0.007974
    83  H    0.016263
    84  H   -0.011347
    85  H   -0.034568
    86  H   -0.041536
    87  H    0.000032
    88  H   -0.005110
    89  H    0.002841
    90  H   -0.027480
    91  H   -0.017764
    92  H    0.002248
    93  H   -0.000670
    94  H    0.008801
    95  H    0.004364
    96  H   -0.004704
    97  H    0.000922
    98  H    0.017508
    99  H    0.006174
   100  H    0.009603
   101  H    0.012710
   102  H    0.000218
   103  H    0.003636
   104  H   -0.041653
   105  H   -0.024439
   106  H    0.007647
   107  H   -0.016420
   108  H   -0.040493
   109  H   -0.020202
   110  H   -0.026002
   111  H   -0.014581
   112  H   -0.027994
   113  H   -0.027356
   114  H   -0.046359
   115  H   -0.013573
   116  H   -0.024717
   117  H   -0.004541
   118  H   -0.026436
   119  H   -0.017685
   120  H   -0.030795
   121  H   -0.037447
   122  H   -0.044622
   123  H   -0.029204
   124  H   -0.037229
   125  H   -0.018437
   126  H   -0.005031
   127  H   -0.019415
   128  H   -0.034597
   129  H   -0.018024
   130  H   -0.023697
   131  H   -0.028938
   132  H   -0.042156
   133  H   -0.032542
   134  H   -0.030672
   135  H   -0.021777
   136  H   -0.011753
   137  H   -0.022575
   138  H   -0.016098
   139  H   -0.015361
   140  H   -0.015218
 Sum of Mulliken charges =  -0.00000

 Dipole moment (field-independent basis, Debye):
    X=             -3.2060    Y=              2.5323    Z=             -1.2013  Tot=              4.2584
 Quadrupole moment (field-independent basis, Debye-Ang):
   XX=           -370.6999   YY=           -425.5592   ZZ=           -404.4531
   XY=             -8.9261   XZ=              4.1473   YZ=             -0.1011

 Normal termination of Gaussian 16 at Sat Apr 30 05:11:59 2022.
