 Gaussian 16, Revision A.03,
 Gaussian 16:  ES64L-G16RevA.03 25-Dec-2016

 -----------------------------------
 #p cam-b3lyp/Def2SVP td=(nstates=5)
 -----------------------------------

 ------------------------------------------------------
 step_601_chromophore_1 TDDFT with cam-b3lyp functional
 ------------------------------------------------------
 Symbolic Z-matrix:
 Charge =  0 Multiplicity = 1

                         Standard orientation:
 ---------------------------------------------------------------------
 Center     Atomic      Atomic             Coordinates (Angstroms)
 Number     Number       Type             X           Y           Z
 ---------------------------------------------------------------------
      1         12           0        5.974888    0.501580    0.186342
      2          6           0        3.746796   -2.379354   -0.235600
      3          6           0        3.490269    2.450059   -1.051057
      4          6           0        8.261873    3.003874   -0.173046
      5          6           0        8.594239   -1.816223    0.585075
      6          7           0        3.821968    0.037169   -0.638934
      7          6           0        3.092932   -1.143869   -0.600922
      8          6           0        1.623862   -0.927666   -1.141709
      9          6           0        1.695372    0.577734   -1.601493
     10          6           0        3.075300    1.073076   -1.080480
     11          6           0        1.655641    0.636631   -3.148220
     12          6           0        0.577891   -1.197399   -0.058936
     13          6           0       -0.867698   -0.813168   -0.199072
     14          6           0       -1.910075   -1.844766   -0.661532
     15          8           0       -1.629460   -3.036368   -0.733964
     16          8           0       -3.150215   -1.231667   -0.929207
     17          7           0        5.827638    2.485640   -0.216142
     18          6           0        4.710911    3.096982   -0.682463
     19          6           0        5.037733    4.511886   -0.806585
     20          6           0        6.424269    4.691856   -0.494771
     21          6           0        6.897333    3.354420   -0.307410
     22          6           0        3.963311    5.473677   -1.300128
     23          6           0        7.204182    5.936789   -0.325820
     24          8           0        8.401447    5.999341   -0.066296
     25          6           0        6.518458    7.269002   -0.523033
     26          7           0        8.097937    0.558988    0.114028
     27          6           0        8.800277    1.747946    0.106765
     28          6           0       10.242877    1.463003    0.176881
     29          6           0       10.269272   -0.004813    0.632309
     30          6           0        8.871321   -0.487990    0.439994
     31          6           0       10.966096    1.843017   -1.169949
     32          6           0       10.687675   -0.225869    2.138240
     33          6           0        9.795902    0.451399    3.246589
     34          7           0        6.142235   -1.626493    0.262326
     35          6           0        7.292345   -2.390331    0.505460
     36          6           0        6.899042   -3.813880    0.673245
     37          6           0        5.550729   -3.817213    0.359171
     38          6           0        5.150171   -2.512882    0.203575
     39          6           0        7.879054   -4.980352    0.941996
     40          6           0        4.419264   -4.723222    0.200904
     41          8           0        4.387805   -5.914013    0.234075
     42          6           0        3.184546   -3.807970   -0.275623
     43          6           0        2.104280   -4.189650    0.613787
     44          8           0        1.716004   -3.740793    1.709115
     45          8           0        1.649338   -5.331282    0.017991
     46          6           0        0.606525   -6.176083    0.560173
     47          6           0       -4.297461   -2.133162   -1.035671
     48          6           0       -5.530952   -1.223254   -1.224717
     49          6           0       -6.806178   -1.532361   -1.097498
     50          6           0       -7.277223   -2.905251   -0.846677
     51          6           0       -7.888065   -0.508481   -1.189775
     52          6           0       -8.215463    0.178215    0.159554
     53          6           0       -8.691865    1.583701   -0.164687
     54          6           0       -8.434063    2.521491    1.032519
     55          6           0       -6.931791    2.933029    1.258569
     56          6           0       -9.093765    2.128431    2.430372
     57          6           0      -10.549684    2.693137    2.611823
     58          6           0      -11.632030    1.610415    3.018166
     59          6           0      -13.017331    1.855216    2.311229
     60          6           0      -14.266259    1.754158    3.286324
     61          6           0      -13.059745    0.822021    1.216614
     62          6           0      -13.918042    1.272529   -0.010386
     63          6           0      -14.499039    0.083734   -0.798107
     64          6           0      -13.860566   -0.030845   -2.156459
     65          6           0      -14.679813   -1.022375   -2.998772
     66          6           0      -12.365275   -0.517360   -2.087804
     67          1           0        2.619267    3.020688   -1.381104
     68          1           0        9.091581    3.675375   -0.405398
     69          1           0        9.448332   -2.395201    0.941680
     70          1           0        1.616197   -1.721686   -1.887953
     71          1           0        0.961075    1.247514   -1.153778
     72          1           0        2.409389    1.390572   -3.374256
     73          1           0        0.646167    0.846162   -3.503271
     74          1           0        2.012857   -0.249459   -3.672865
     75          1           0        0.931016   -0.780423    0.884793
     76          1           0        0.545252   -2.279655    0.064606
     77          1           0       -0.730885   -0.060270   -0.975243
     78          1           0       -1.191425   -0.190356    0.634487
     79          1           0        3.064221    5.077697   -1.774514
     80          1           0        4.496360    6.132097   -1.985913
     81          1           0        3.605853    6.042699   -0.442488
     82          1           0        5.763944    7.227680    0.263089
     83          1           0        6.066335    7.424080   -1.502093
     84          1           0        7.190133    8.084416   -0.253361
     85          1           0       10.662361    2.025458    1.010801
     86          1           0       10.907364   -0.606802   -0.014469
     87          1           0       10.391618    2.619675   -1.673606
     88          1           0       10.923825    0.904961   -1.722344
     89          1           0       11.962046    2.219433   -0.935048
     90          1           0       11.672131    0.240161    2.190780
     91          1           0       10.881424   -1.278424    2.343001
     92          1           0       10.378199    1.250304    3.705419
     93          1           0        9.458139   -0.257305    4.002576
     94          1           0        8.904789    0.844453    2.758119
     95          1           0        8.139508   -5.089720    1.994914
     96          1           0        8.797026   -4.928031    0.356707
     97          1           0        7.401048   -5.898801    0.600173
     98          1           0        2.883724   -4.016815   -1.303093
     99          1           0       -0.356804   -5.836951    0.178700
    100          1           0        0.522243   -6.115547    1.645096
    101          1           0        0.657762   -7.210249    0.220282
    102          1           0       -4.341599   -2.738739   -0.131294
    103          1           0       -4.183897   -2.825479   -1.870209
    104          1           0       -5.296981   -0.209670   -1.549729
    105          1           0       -6.637380   -3.518119   -0.212002
    106          1           0       -7.324516   -3.498011   -1.760396
    107          1           0       -8.224016   -2.829234   -0.311463
    108          1           0       -8.855411   -0.984476   -1.351691
    109          1           0       -7.640050    0.185545   -1.993134
    110          1           0       -7.322429    0.184138    0.784298
    111          1           0       -8.952561   -0.454561    0.654430
    112          1           0       -9.717210    1.351878   -0.450868
    113          1           0       -8.165773    2.001723   -1.022791
    114          1           0       -8.884407    3.460266    0.710551
    115          1           0       -6.675876    3.992247    1.287226
    116          1           0       -6.354498    2.597226    0.395784
    117          1           0       -6.699992    2.455261    2.211216
    118          1           0       -8.613076    2.639594    3.264396
    119          1           0       -9.171750    1.042528    2.479843
    120          1           0      -10.886449    3.313560    1.780378
    121          1           0      -10.474332    3.453740    3.387910
    122          1           0      -11.639906    1.754782    4.098791
    123          1           0      -11.231532    0.608452    2.864193
    124          1           0      -12.925962    2.787463    1.754451
    125          1           0      -14.130039    2.422393    4.137646
    126          1           0      -14.450833    0.734505    3.623786
    127          1           0      -15.160155    2.188598    2.837104
    128          1           0      -13.406448   -0.133087    1.610678
    129          1           0      -12.044259    0.694493    0.840126
    130          1           0      -13.217018    1.796439   -0.660346
    131          1           0      -14.767934    1.859072    0.336362
    132          1           0      -15.548302    0.273357   -1.026834
    133          1           0      -14.432948   -0.850259   -0.240273
    134          1           0      -13.781660    0.972242   -2.574952
    135          1           0      -14.874692   -0.500909   -3.935563
    136          1           0      -15.631781   -1.359943   -2.590343
    137          1           0      -14.080537   -1.894864   -3.259371
    138          1           0      -11.772896    0.083388   -2.778153
    139          1           0      -12.173610   -1.546403   -2.389765
    140          1           0      -11.949985   -0.384527   -1.088759
 ---------------------------------------------------------------------

 SCF Done:  E(RCAM-B3LYP) =  -3007.16351298     A.U. after   18 cycles

 Excitation energies and oscillator strengths:

 Excited State   1:      Singlet-A      1.6795 eV  738.20 nm  f=0.3714  <S**2>=0.000
     245 -> 248        0.18385
     246 -> 247        0.68340
     245 <- 248        0.10921
 This state for optimization and/or second-order correction.
 Total Energy, E(TD-HF/TD-DFT) =  -3007.10179111
 Copying the excited state density for this state as the 1-particle RhoCI density.

 Excited State   2:      Singlet-A      2.1924 eV  565.52 nm  f=0.1192  <S**2>=0.000
     245 -> 247        0.64174
     246 -> 248       -0.28413

 Excited State   3:      Singlet-A      3.4387 eV  360.55 nm  f=0.1467  <S**2>=0.000
     241 -> 247        0.11365
     242 -> 247       -0.18185
     243 -> 247        0.52904
     244 -> 247       -0.10430
     245 -> 247        0.13061
     246 -> 248        0.35912

 Excited State   4:      Singlet-A      3.5005 eV  354.19 nm  f=0.3761  <S**2>=0.000
     240 -> 247        0.11853
     241 -> 247        0.13775
     243 -> 247       -0.40624
     245 -> 247        0.20409
     246 -> 248        0.47479

 Excited State   5:      Singlet-A      3.5370 eV  350.54 nm  f=0.0167  <S**2>=0.000
     239 -> 247        0.19016
     239 -> 249        0.13844
     239 -> 251        0.10702
     240 -> 249        0.12590
     241 -> 249        0.12134
     242 -> 247        0.51963
     242 -> 249        0.15435
     243 -> 247        0.13360

 The electronic state is 1-A.
 Alpha  occ. eigenvalues --  -46.89133 -19.25239 -19.23403 -19.20992 -19.19576
 Alpha  occ. eigenvalues --  -19.18618 -19.18368 -14.42179 -14.41223 -14.39757
 Alpha  occ. eigenvalues --  -14.39275 -10.40358 -10.38504 -10.35203 -10.34722
 Alpha  occ. eigenvalues --  -10.32475 -10.31445 -10.31333 -10.30552 -10.30482
 Alpha  occ. eigenvalues --  -10.30274 -10.30147 -10.29752 -10.29418 -10.29082
 Alpha  occ. eigenvalues --  -10.28671 -10.28593 -10.28574 -10.28365 -10.27926
 Alpha  occ. eigenvalues --  -10.27908 -10.27826 -10.27137 -10.27102 -10.26953
 Alpha  occ. eigenvalues --  -10.26774 -10.26693 -10.26596 -10.26185 -10.26155
 Alpha  occ. eigenvalues --  -10.26127 -10.26109 -10.25990 -10.25986 -10.25971
 Alpha  occ. eigenvalues --  -10.25798 -10.25631 -10.25625 -10.25623 -10.25587
 Alpha  occ. eigenvalues --  -10.25413 -10.25365 -10.25339 -10.25287 -10.25252
 Alpha  occ. eigenvalues --  -10.25131 -10.25053 -10.24783 -10.24763 -10.24733
 Alpha  occ. eigenvalues --  -10.24688 -10.24564 -10.24552 -10.24382 -10.24173
 Alpha  occ. eigenvalues --  -10.24163  -3.17587  -1.92473  -1.92039  -1.91890
 Alpha  occ. eigenvalues --   -1.15410  -1.14778  -1.11652  -1.09595  -1.08417
 Alpha  occ. eigenvalues --   -1.05785  -1.04295  -1.03441  -1.03301  -1.02312
 Alpha  occ. eigenvalues --   -0.91616  -0.91361  -0.90018  -0.89537  -0.88837
 Alpha  occ. eigenvalues --   -0.88739  -0.88219  -0.87685  -0.87197  -0.87148
 Alpha  occ. eigenvalues --   -0.85816  -0.85435  -0.84431  -0.83863  -0.83056
 Alpha  occ. eigenvalues --   -0.82149  -0.81628  -0.81274  -0.80812  -0.80131
 Alpha  occ. eigenvalues --   -0.79727  -0.78343  -0.77713  -0.76943  -0.75999
 Alpha  occ. eigenvalues --   -0.75679  -0.75491  -0.75082  -0.74907  -0.73833
 Alpha  occ. eigenvalues --   -0.73423  -0.72516  -0.71542  -0.70253  -0.69303
 Alpha  occ. eigenvalues --   -0.68557  -0.68094  -0.67683  -0.67479  -0.65741
 Alpha  occ. eigenvalues --   -0.65258  -0.64943  -0.64467  -0.64107  -0.63780
 Alpha  occ. eigenvalues --   -0.63062  -0.62914  -0.61798  -0.61294  -0.60169
 Alpha  occ. eigenvalues --   -0.59750  -0.59521  -0.59004  -0.58107  -0.57625
 Alpha  occ. eigenvalues --   -0.57275  -0.57014  -0.55862  -0.55847  -0.55704
 Alpha  occ. eigenvalues --   -0.55552  -0.55097  -0.54851  -0.54639  -0.53945
 Alpha  occ. eigenvalues --   -0.53671  -0.53385  -0.53194  -0.52754  -0.52676
 Alpha  occ. eigenvalues --   -0.52564  -0.52438  -0.52217  -0.51982  -0.51666
 Alpha  occ. eigenvalues --   -0.51576  -0.51074  -0.50928  -0.50562  -0.50455
 Alpha  occ. eigenvalues --   -0.50409  -0.50178  -0.49971  -0.49803  -0.49703
 Alpha  occ. eigenvalues --   -0.49519  -0.49038  -0.49012  -0.48900  -0.48727
 Alpha  occ. eigenvalues --   -0.48586  -0.48496  -0.48120  -0.47977  -0.47824
 Alpha  occ. eigenvalues --   -0.47385  -0.47124  -0.46635  -0.46488  -0.46231
 Alpha  occ. eigenvalues --   -0.45993  -0.45958  -0.45710  -0.45577  -0.45477
 Alpha  occ. eigenvalues --   -0.45361  -0.45261  -0.45169  -0.44929  -0.44691
 Alpha  occ. eigenvalues --   -0.44662  -0.44598  -0.44137  -0.44022  -0.43768
 Alpha  occ. eigenvalues --   -0.43560  -0.43323  -0.43309  -0.43136  -0.42919
 Alpha  occ. eigenvalues --   -0.42775  -0.42684  -0.42237  -0.42148  -0.42027
 Alpha  occ. eigenvalues --   -0.41945  -0.41742  -0.41650  -0.41214  -0.41103
 Alpha  occ. eigenvalues --   -0.40887  -0.40856  -0.40660  -0.40034  -0.39891
 Alpha  occ. eigenvalues --   -0.39841  -0.39556  -0.39468  -0.39281  -0.38851
 Alpha  occ. eigenvalues --   -0.38575  -0.38298  -0.37723  -0.37694  -0.37305
 Alpha  occ. eigenvalues --   -0.37084  -0.37024  -0.36537  -0.36304  -0.35961
 Alpha  occ. eigenvalues --   -0.35861  -0.34905  -0.34639  -0.34199  -0.34030
 Alpha  occ. eigenvalues --   -0.33967  -0.33368  -0.32796  -0.31196  -0.30777
 Alpha  occ. eigenvalues --   -0.30504  -0.30125  -0.29899  -0.29870  -0.23718
 Alpha  occ. eigenvalues --   -0.20948
 Alpha virt. eigenvalues --   -0.08603  -0.01648   0.00452   0.02177   0.02466
 Alpha virt. eigenvalues --    0.04391   0.05937   0.06088   0.06116   0.06832
 Alpha virt. eigenvalues --    0.06923   0.08126   0.08628   0.09214   0.09488

 Mulliken charges:
               1
     1  Mg   0.831339
     2  C    0.011150
     3  C   -0.050767
     4  C   -0.064442
     5  C   -0.086894
     6  N   -0.245754
     7  C   -0.076423
     8  C    0.024481
     9  C   -0.066687
    10  C   -0.039456
    11  C    0.081798
    12  C    0.055943
    13  C    0.045327
    14  C    0.212595
    15  O   -0.226370
    16  O   -0.361773
    17  N   -0.406016
    18  C    0.191959
    19  C   -0.156963
    20  C   -0.013104
    21  C    0.161198
    22  C    0.113550
    23  C   -0.018887
    24  O   -0.204931
    25  C    0.049848
    26  N   -0.305695
    27  C   -0.025264
    28  C    0.009724
    29  C   -0.051295
    30  C    0.053190
    31  C    0.091960
    32  C    0.005213
    33  C   -0.000050
    34  N   -0.319385
    35  C    0.109367
    36  C   -0.164879
    37  C   -0.009627
    38  C    0.094178
    39  C    0.107805
    40  C    0.053417
    41  O   -0.116506
    42  C   -0.066628
    43  C    0.236205
    44  O   -0.248599
    45  O   -0.336283
    46  C    0.185730
    47  C    0.289940
    48  C   -0.136063
    49  C   -0.153744
    50  C    0.090825
    51  C    0.076615
    52  C   -0.023296
    53  C    0.060256
    54  C   -0.115534
    55  C    0.039217
    56  C    0.055656
    57  C   -0.030409
    58  C    0.044777
    59  C   -0.091394
    60  C    0.055129
    61  C   -0.003947
    62  C    0.032123
    63  C    0.047735
    64  C   -0.166707
    65  C    0.065284
    66  C    0.017239
    67  H   -0.034829
    68  H   -0.000230
    69  H   -0.025605
    70  H    0.011854
    71  H    0.015509
    72  H    0.007089
    73  H    0.025452
    74  H    0.018019
    75  H    0.002162
    76  H    0.030171
    77  H    0.004706
    78  H    0.037616
    79  H    0.024418
    80  H    0.023397
    81  H    0.028033
    82  H    0.018983
    83  H    0.042669
    84  H    0.025070
    85  H    0.002524
    86  H   -0.003393
    87  H    0.024012
    88  H    0.018360
    89  H    0.027015
    90  H    0.001316
    91  H    0.009672
    92  H    0.024985
    93  H    0.023835
    94  H    0.026749
    95  H    0.029577
    96  H    0.019605
    97  H    0.027943
    98  H    0.060169
    99  H    0.027866
   100  H    0.034877
   101  H    0.035718
   102  H    0.026588
   103  H    0.031805
   104  H   -0.006218
   105  H    0.001452
   106  H    0.033409
   107  H    0.007670
   108  H   -0.011065
   109  H    0.009560
   110  H    0.002328
   111  H    0.008200
   112  H   -0.004310
   113  H    0.001605
   114  H   -0.012697
   115  H    0.011613
   116  H   -0.001736
   117  H    0.017649
   118  H    0.004267
   119  H    0.007585
   120  H   -0.005501
   121  H   -0.008776
   122  H   -0.013523
   123  H   -0.002405
   124  H   -0.004912
   125  H    0.005959
   126  H    0.017364
   127  H    0.004336
   128  H   -0.007587
   129  H    0.002331
   130  H    0.002384
   131  H   -0.000339
   132  H   -0.010772
   133  H   -0.003972
   134  H    0.001388
   135  H    0.003168
   136  H    0.013030
   137  H    0.001921
   138  H    0.007122
   139  H    0.008353
   140  H    0.000408
 Sum of Mulliken charges =  -0.00000

 Dipole moment (field-independent basis, Debye):
    X=             -3.4993    Y=              3.1277    Z=             -1.3455  Tot=              4.8824
 Quadrupole moment (field-independent basis, Debye-Ang):
   XX=           -372.5914   YY=           -420.7283   ZZ=           -404.6233
   XY=             -5.4587   XZ=              3.9979   YZ=             -0.9460

 Normal termination of Gaussian 16 at Sat Apr 30 04:15:41 2022.
