 Gaussian 16, Revision A.03,
 Gaussian 16:  ES64L-G16RevA.03 25-Dec-2016

 ---------------------------------
 #p PBE1PBE/Def2SVP td=(nstates=5)
 ---------------------------------

 ----------------------------------------------------
 step_601_chromophore_1 TDDFT with PBE1PBE functional
 ----------------------------------------------------
 Symbolic Z-matrix:
 Charge =  0 Multiplicity = 1

                         Standard orientation:
 ---------------------------------------------------------------------
 Center     Atomic      Atomic             Coordinates (Angstroms)
 Number     Number       Type             X           Y           Z
 ---------------------------------------------------------------------
      1         12           0        5.974888    0.501580    0.186342
      2          6           0        3.746796   -2.379354   -0.235600
      3          6           0        3.490269    2.450059   -1.051057
      4          6           0        8.261873    3.003874   -0.173046
      5          6           0        8.594239   -1.816223    0.585075
      6          7           0        3.821968    0.037169   -0.638934
      7          6           0        3.092932   -1.143869   -0.600922
      8          6           0        1.623862   -0.927666   -1.141709
      9          6           0        1.695372    0.577734   -1.601493
     10          6           0        3.075300    1.073076   -1.080480
     11          6           0        1.655641    0.636631   -3.148220
     12          6           0        0.577891   -1.197399   -0.058936
     13          6           0       -0.867698   -0.813168   -0.199072
     14          6           0       -1.910075   -1.844766   -0.661532
     15          8           0       -1.629460   -3.036368   -0.733964
     16          8           0       -3.150215   -1.231667   -0.929207
     17          7           0        5.827638    2.485640   -0.216142
     18          6           0        4.710911    3.096982   -0.682463
     19          6           0        5.037733    4.511886   -0.806585
     20          6           0        6.424269    4.691856   -0.494771
     21          6           0        6.897333    3.354420   -0.307410
     22          6           0        3.963311    5.473677   -1.300128
     23          6           0        7.204182    5.936789   -0.325820
     24          8           0        8.401447    5.999341   -0.066296
     25          6           0        6.518458    7.269002   -0.523033
     26          7           0        8.097937    0.558988    0.114028
     27          6           0        8.800277    1.747946    0.106765
     28          6           0       10.242877    1.463003    0.176881
     29          6           0       10.269272   -0.004813    0.632309
     30          6           0        8.871321   -0.487990    0.439994
     31          6           0       10.966096    1.843017   -1.169949
     32          6           0       10.687675   -0.225869    2.138240
     33          6           0        9.795902    0.451399    3.246589
     34          7           0        6.142235   -1.626493    0.262326
     35          6           0        7.292345   -2.390331    0.505460
     36          6           0        6.899042   -3.813880    0.673245
     37          6           0        5.550729   -3.817213    0.359171
     38          6           0        5.150171   -2.512882    0.203575
     39          6           0        7.879054   -4.980352    0.941996
     40          6           0        4.419264   -4.723222    0.200904
     41          8           0        4.387805   -5.914013    0.234075
     42          6           0        3.184546   -3.807970   -0.275623
     43          6           0        2.104280   -4.189650    0.613787
     44          8           0        1.716004   -3.740793    1.709115
     45          8           0        1.649338   -5.331282    0.017991
     46          6           0        0.606525   -6.176083    0.560173
     47          6           0       -4.297461   -2.133162   -1.035671
     48          6           0       -5.530952   -1.223254   -1.224717
     49          6           0       -6.806178   -1.532361   -1.097498
     50          6           0       -7.277223   -2.905251   -0.846677
     51          6           0       -7.888065   -0.508481   -1.189775
     52          6           0       -8.215463    0.178215    0.159554
     53          6           0       -8.691865    1.583701   -0.164687
     54          6           0       -8.434063    2.521491    1.032519
     55          6           0       -6.931791    2.933029    1.258569
     56          6           0       -9.093765    2.128431    2.430372
     57          6           0      -10.549684    2.693137    2.611823
     58          6           0      -11.632030    1.610415    3.018166
     59          6           0      -13.017331    1.855216    2.311229
     60          6           0      -14.266259    1.754158    3.286324
     61          6           0      -13.059745    0.822021    1.216614
     62          6           0      -13.918042    1.272529   -0.010386
     63          6           0      -14.499039    0.083734   -0.798107
     64          6           0      -13.860566   -0.030845   -2.156459
     65          6           0      -14.679813   -1.022375   -2.998772
     66          6           0      -12.365275   -0.517360   -2.087804
     67          1           0        2.619267    3.020688   -1.381104
     68          1           0        9.091581    3.675375   -0.405398
     69          1           0        9.448332   -2.395201    0.941680
     70          1           0        1.616197   -1.721686   -1.887953
     71          1           0        0.961075    1.247514   -1.153778
     72          1           0        2.409389    1.390572   -3.374256
     73          1           0        0.646167    0.846162   -3.503271
     74          1           0        2.012857   -0.249459   -3.672865
     75          1           0        0.931016   -0.780423    0.884793
     76          1           0        0.545252   -2.279655    0.064606
     77          1           0       -0.730885   -0.060270   -0.975243
     78          1           0       -1.191425   -0.190356    0.634487
     79          1           0        3.064221    5.077697   -1.774514
     80          1           0        4.496360    6.132097   -1.985913
     81          1           0        3.605853    6.042699   -0.442488
     82          1           0        5.763944    7.227680    0.263089
     83          1           0        6.066335    7.424080   -1.502093
     84          1           0        7.190133    8.084416   -0.253361
     85          1           0       10.662361    2.025458    1.010801
     86          1           0       10.907364   -0.606802   -0.014469
     87          1           0       10.391618    2.619675   -1.673606
     88          1           0       10.923825    0.904961   -1.722344
     89          1           0       11.962046    2.219433   -0.935048
     90          1           0       11.672131    0.240161    2.190780
     91          1           0       10.881424   -1.278424    2.343001
     92          1           0       10.378199    1.250304    3.705419
     93          1           0        9.458139   -0.257305    4.002576
     94          1           0        8.904789    0.844453    2.758119
     95          1           0        8.139508   -5.089720    1.994914
     96          1           0        8.797026   -4.928031    0.356707
     97          1           0        7.401048   -5.898801    0.600173
     98          1           0        2.883724   -4.016815   -1.303093
     99          1           0       -0.356804   -5.836951    0.178700
    100          1           0        0.522243   -6.115547    1.645096
    101          1           0        0.657762   -7.210249    0.220282
    102          1           0       -4.341599   -2.738739   -0.131294
    103          1           0       -4.183897   -2.825479   -1.870209
    104          1           0       -5.296981   -0.209670   -1.549729
    105          1           0       -6.637380   -3.518119   -0.212002
    106          1           0       -7.324516   -3.498011   -1.760396
    107          1           0       -8.224016   -2.829234   -0.311463
    108          1           0       -8.855411   -0.984476   -1.351691
    109          1           0       -7.640050    0.185545   -1.993134
    110          1           0       -7.322429    0.184138    0.784298
    111          1           0       -8.952561   -0.454561    0.654430
    112          1           0       -9.717210    1.351878   -0.450868
    113          1           0       -8.165773    2.001723   -1.022791
    114          1           0       -8.884407    3.460266    0.710551
    115          1           0       -6.675876    3.992247    1.287226
    116          1           0       -6.354498    2.597226    0.395784
    117          1           0       -6.699992    2.455261    2.211216
    118          1           0       -8.613076    2.639594    3.264396
    119          1           0       -9.171750    1.042528    2.479843
    120          1           0      -10.886449    3.313560    1.780378
    121          1           0      -10.474332    3.453740    3.387910
    122          1           0      -11.639906    1.754782    4.098791
    123          1           0      -11.231532    0.608452    2.864193
    124          1           0      -12.925962    2.787463    1.754451
    125          1           0      -14.130039    2.422393    4.137646
    126          1           0      -14.450833    0.734505    3.623786
    127          1           0      -15.160155    2.188598    2.837104
    128          1           0      -13.406448   -0.133087    1.610678
    129          1           0      -12.044259    0.694493    0.840126
    130          1           0      -13.217018    1.796439   -0.660346
    131          1           0      -14.767934    1.859072    0.336362
    132          1           0      -15.548302    0.273357   -1.026834
    133          1           0      -14.432948   -0.850259   -0.240273
    134          1           0      -13.781660    0.972242   -2.574952
    135          1           0      -14.874692   -0.500909   -3.935563
    136          1           0      -15.631781   -1.359943   -2.590343
    137          1           0      -14.080537   -1.894864   -3.259371
    138          1           0      -11.772896    0.083388   -2.778153
    139          1           0      -12.173610   -1.546403   -2.389765
    140          1           0      -11.949985   -0.384527   -1.088759
 ---------------------------------------------------------------------

 SCF Done:  E(RPBE1PBE) =  -3005.35314506     A.U. after   16 cycles

 Excitation energies and oscillator strengths:

 Excited State   1:      Singlet-A      1.8405 eV  673.63 nm  f=0.3590  <S**2>=0.000
     245 -> 248        0.17546
     246 -> 247        0.69089
     246 <- 247       -0.10771
 This state for optimization and/or second-order correction.
 Total Energy, E(TD-HF/TD-DFT) =  -3005.28550656
 Copying the excited state density for this state as the 1-particle RhoCI density.

 Excited State   2:      Singlet-A      2.1980 eV  564.08 nm  f=0.1133  <S**2>=0.000
     245 -> 247        0.65308
     246 -> 248       -0.25634

 Excited State   3:      Singlet-A      2.9894 eV  414.75 nm  f=0.0021  <S**2>=0.000
     243 -> 247        0.59118
     243 -> 249        0.11712
     244 -> 247        0.31172

 Excited State   4:      Singlet-A      3.1238 eV  396.90 nm  f=0.0006  <S**2>=0.000
     241 -> 247       -0.40618
     241 -> 249        0.10659
     242 -> 247        0.55209

 Excited State   5:      Singlet-A      3.1524 eV  393.31 nm  f=0.0073  <S**2>=0.000
     241 -> 247        0.52197
     242 -> 247        0.41279
     246 -> 248        0.16512

 The electronic state is 1-A.
 Alpha  occ. eigenvalues --  -46.92536 -19.25931 -19.24079 -19.21236 -19.19848
 Alpha  occ. eigenvalues --  -19.18829 -19.18527 -14.41617 -14.40818 -14.39389
 Alpha  occ. eigenvalues --  -14.38990 -10.37381 -10.35458 -10.32414 -10.31772
 Alpha  occ. eigenvalues --  -10.29853 -10.29301 -10.29026 -10.28124 -10.28093
 Alpha  occ. eigenvalues --  -10.27815 -10.27624 -10.27482 -10.27201 -10.26632
 Alpha  occ. eigenvalues --  -10.26461 -10.26414 -10.26370 -10.26185 -10.25778
 Alpha  occ. eigenvalues --  -10.25504 -10.25473 -10.24628 -10.24605 -10.24583
 Alpha  occ. eigenvalues --  -10.24572 -10.24445 -10.24334 -10.23885 -10.23720
 Alpha  occ. eigenvalues --  -10.23712 -10.23700 -10.23698 -10.23566 -10.23506
 Alpha  occ. eigenvalues --  -10.23505 -10.23249 -10.23085 -10.22976 -10.22971
 Alpha  occ. eigenvalues --  -10.22962 -10.22904 -10.22850 -10.22843 -10.22810
 Alpha  occ. eigenvalues --  -10.22685 -10.22522 -10.22450 -10.22385 -10.22341
 Alpha  occ. eigenvalues --  -10.22099 -10.22096 -10.21970 -10.21938 -10.21698
 Alpha  occ. eigenvalues --  -10.21567  -3.14574  -1.87398  -1.86943  -1.86798
 Alpha  occ. eigenvalues --   -1.10182  -1.09525  -1.06488  -1.04261  -1.03269
 Alpha  occ. eigenvalues --   -1.00557  -0.98937  -0.98129  -0.97957  -0.96932
 Alpha  occ. eigenvalues --   -0.85982  -0.85491  -0.84099  -0.83747  -0.83190
 Alpha  occ. eigenvalues --   -0.82845  -0.82570  -0.81802  -0.81487  -0.81342
 Alpha  occ. eigenvalues --   -0.80221  -0.79707  -0.78625  -0.78172  -0.77327
 Alpha  occ. eigenvalues --   -0.76331  -0.75825  -0.75543  -0.75046  -0.74387
 Alpha  occ. eigenvalues --   -0.73876  -0.72591  -0.71994  -0.71278  -0.70166
 Alpha  occ. eigenvalues --   -0.69814  -0.69746  -0.69273  -0.69197  -0.68017
 Alpha  occ. eigenvalues --   -0.67715  -0.66982  -0.65933  -0.64554  -0.63698
 Alpha  occ. eigenvalues --   -0.62984  -0.62377  -0.62110  -0.61699  -0.60171
 Alpha  occ. eigenvalues --   -0.59552  -0.59458  -0.58986  -0.58683  -0.57872
 Alpha  occ. eigenvalues --   -0.57518  -0.57106  -0.56052  -0.55891  -0.54678
 Alpha  occ. eigenvalues --   -0.54294  -0.53966  -0.53553  -0.52754  -0.52198
 Alpha  occ. eigenvalues --   -0.51768  -0.51433  -0.50395  -0.50233  -0.50191
 Alpha  occ. eigenvalues --   -0.49947  -0.49603  -0.49443  -0.48985  -0.48488
 Alpha  occ. eigenvalues --   -0.48208  -0.47844  -0.47755  -0.47253  -0.47179
 Alpha  occ. eigenvalues --   -0.47047  -0.46825  -0.46725  -0.46476  -0.46260
 Alpha  occ. eigenvalues --   -0.46159  -0.45637  -0.45512  -0.45107  -0.45063
 Alpha  occ. eigenvalues --   -0.44981  -0.44686  -0.44506  -0.44463  -0.44243
 Alpha  occ. eigenvalues --   -0.44127  -0.43626  -0.43579  -0.43538  -0.43328
 Alpha  occ. eigenvalues --   -0.43184  -0.43119  -0.42731  -0.42573  -0.42418
 Alpha  occ. eigenvalues --   -0.42005  -0.41781  -0.41300  -0.41210  -0.40816
 Alpha  occ. eigenvalues --   -0.40746  -0.40677  -0.40477  -0.40309  -0.40081
 Alpha  occ. eigenvalues --   -0.40041  -0.39998  -0.39845  -0.39683  -0.39448
 Alpha  occ. eigenvalues --   -0.39395  -0.39346  -0.38974  -0.38828  -0.38482
 Alpha  occ. eigenvalues --   -0.38302  -0.38155  -0.38057  -0.37873  -0.37654
 Alpha  occ. eigenvalues --   -0.37596  -0.37546  -0.36962  -0.36891  -0.36798
 Alpha  occ. eigenvalues --   -0.36673  -0.36593  -0.36489  -0.36067  -0.35979
 Alpha  occ. eigenvalues --   -0.35826  -0.35678  -0.35436  -0.34859  -0.34751
 Alpha  occ. eigenvalues --   -0.34662  -0.34437  -0.34268  -0.34256  -0.33603
 Alpha  occ. eigenvalues --   -0.33316  -0.33057  -0.32724  -0.32557  -0.32248
 Alpha  occ. eigenvalues --   -0.32020  -0.31846  -0.31388  -0.31366  -0.31004
 Alpha  occ. eigenvalues --   -0.30780  -0.29780  -0.29517  -0.29228  -0.29119
 Alpha  occ. eigenvalues --   -0.28948  -0.28664  -0.27904  -0.26659  -0.26051
 Alpha  occ. eigenvalues --   -0.25803  -0.25505  -0.25123  -0.25122  -0.20670
 Alpha  occ. eigenvalues --   -0.18595
 Alpha virt. eigenvalues --   -0.11049  -0.05176  -0.03718  -0.01967  -0.00621
 Alpha virt. eigenvalues --   -0.00229   0.01503   0.01605   0.01812   0.03103
 Alpha virt. eigenvalues --    0.03457   0.04272   0.04936   0.05480   0.06020

 Mulliken charges:
               1
     1  Mg   0.972165
     2  C   -0.002353
     3  C   -0.053952
     4  C   -0.049413
     5  C   -0.066384
     6  N   -0.342876
     7  C    0.002077
     8  C   -0.052192
     9  C   -0.151603
    10  C    0.007918
    11  C    0.029091
    12  C    0.005066
    13  C   -0.032679
    14  C    0.275759
    15  O   -0.258978
    16  O   -0.392954
    17  N   -0.523169
    18  C    0.220481
    19  C   -0.189488
    20  C   -0.059445
    21  C    0.181968
    22  C    0.055040
    23  C    0.030823
    24  O   -0.243148
    25  C   -0.023796
    26  N   -0.410989
    27  C    0.008138
    28  C   -0.063716
    29  C   -0.136708
    30  C    0.092560
    31  C    0.030438
    32  C   -0.053207
    33  C   -0.075757
    34  N   -0.442178
    35  C    0.124098
    36  C   -0.170024
    37  C   -0.069286
    38  C    0.151582
    39  C    0.053069
    40  C    0.152659
    41  O   -0.160687
    42  C   -0.167216
    43  C    0.314155
    44  O   -0.285617
    45  O   -0.367930
    46  C    0.133465
    47  C    0.253288
    48  C   -0.136877
    49  C   -0.208324
    50  C    0.028840
    51  C    0.008509
    52  C   -0.082935
    53  C    0.000506
    54  C   -0.202542
    55  C   -0.020205
    56  C   -0.003883
    57  C   -0.082030
    58  C   -0.011361
    59  C   -0.182223
    60  C   -0.004209
    61  C   -0.059667
    62  C   -0.034339
    63  C   -0.007131
    64  C   -0.261394
    65  C    0.004762
    66  C   -0.042749
    67  H   -0.002092
    68  H    0.030667
    69  H    0.005166
    70  H    0.048659
    71  H    0.049576
    72  H    0.036099
    73  H    0.052554
    74  H    0.044933
    75  H    0.035218
    76  H    0.075117
    77  H    0.042071
    78  H    0.068350
    79  H    0.050079
    80  H    0.051586
    81  H    0.055971
    82  H    0.047479
    83  H    0.067890
    84  H    0.052662
    85  H    0.041419
    86  H    0.033860
    87  H    0.052253
    88  H    0.046748
    89  H    0.054509
    90  H    0.036411
    91  H    0.041401
    92  H    0.052035
    93  H    0.051842
    94  H    0.060350
    95  H    0.057595
    96  H    0.046395
    97  H    0.056342
    98  H    0.095581
    99  H    0.050494
   100  H    0.055665
   101  H    0.057230
   102  H    0.052220
   103  H    0.058072
   104  H    0.023674
   105  H    0.028714
   106  H    0.061214
   107  H    0.034767
   108  H    0.025483
   109  H    0.040029
   110  H    0.036994
   111  H    0.039435
   112  H    0.032742
   113  H    0.033357
   114  H    0.027299
   115  H    0.039121
   116  H    0.026011
   117  H    0.044425
   118  H    0.036786
   119  H    0.041030
   120  H    0.024313
   121  H    0.024119
   122  H    0.019881
   123  H    0.028171
   124  H    0.033524
   125  H    0.034328
   126  H    0.043523
   127  H    0.031679
   128  H    0.024463
   129  H    0.041635
   130  H    0.035579
   131  H    0.033220
   132  H    0.023894
   133  H    0.028152
   134  H    0.038202
   135  H    0.031619
   136  H    0.039103
   137  H    0.029201
   138  H    0.034615
   139  H    0.034780
   140  H    0.031677
 Sum of Mulliken charges =  -0.00000

 Dipole moment (field-independent basis, Debye):
    X=             -3.3110    Y=              2.9315    Z=             -1.2654  Tot=              4.5998
 Quadrupole moment (field-independent basis, Debye-Ang):
   XX=           -365.1422   YY=           -418.1432   ZZ=           -402.1725
   XY=             -7.3473   XZ=              4.7035   YZ=             -0.9725

 Normal termination of Gaussian 16 at Sat Apr 30 04:34:15 2022.
