 Gaussian 16, Revision A.03,
 Gaussian 16:  ES64L-G16RevA.03 25-Dec-2016

 --------------------------------
 #p wB97XD/Def2SVP td=(nstates=5)
 --------------------------------

 ---------------------------------------------------
 step_601_chromophore_1 TDDFT with wB97XD functional
 ---------------------------------------------------
 Symbolic Z-matrix:
 Charge =  0 Multiplicity = 1

                         Standard orientation:
 ---------------------------------------------------------------------
 Center     Atomic      Atomic             Coordinates (Angstroms)
 Number     Number       Type             X           Y           Z
 ---------------------------------------------------------------------
      1         12           0        5.974888    0.501580    0.186342
      2          6           0        3.746796   -2.379354   -0.235600
      3          6           0        3.490269    2.450059   -1.051057
      4          6           0        8.261873    3.003874   -0.173046
      5          6           0        8.594239   -1.816223    0.585075
      6          7           0        3.821968    0.037169   -0.638934
      7          6           0        3.092932   -1.143869   -0.600922
      8          6           0        1.623862   -0.927666   -1.141709
      9          6           0        1.695372    0.577734   -1.601493
     10          6           0        3.075300    1.073076   -1.080480
     11          6           0        1.655641    0.636631   -3.148220
     12          6           0        0.577891   -1.197399   -0.058936
     13          6           0       -0.867698   -0.813168   -0.199072
     14          6           0       -1.910075   -1.844766   -0.661532
     15          8           0       -1.629460   -3.036368   -0.733964
     16          8           0       -3.150215   -1.231667   -0.929207
     17          7           0        5.827638    2.485640   -0.216142
     18          6           0        4.710911    3.096982   -0.682463
     19          6           0        5.037733    4.511886   -0.806585
     20          6           0        6.424269    4.691856   -0.494771
     21          6           0        6.897333    3.354420   -0.307410
     22          6           0        3.963311    5.473677   -1.300128
     23          6           0        7.204182    5.936789   -0.325820
     24          8           0        8.401447    5.999341   -0.066296
     25          6           0        6.518458    7.269002   -0.523033
     26          7           0        8.097937    0.558988    0.114028
     27          6           0        8.800277    1.747946    0.106765
     28          6           0       10.242877    1.463003    0.176881
     29          6           0       10.269272   -0.004813    0.632309
     30          6           0        8.871321   -0.487990    0.439994
     31          6           0       10.966096    1.843017   -1.169949
     32          6           0       10.687675   -0.225869    2.138240
     33          6           0        9.795902    0.451399    3.246589
     34          7           0        6.142235   -1.626493    0.262326
     35          6           0        7.292345   -2.390331    0.505460
     36          6           0        6.899042   -3.813880    0.673245
     37          6           0        5.550729   -3.817213    0.359171
     38          6           0        5.150171   -2.512882    0.203575
     39          6           0        7.879054   -4.980352    0.941996
     40          6           0        4.419264   -4.723222    0.200904
     41          8           0        4.387805   -5.914013    0.234075
     42          6           0        3.184546   -3.807970   -0.275623
     43          6           0        2.104280   -4.189650    0.613787
     44          8           0        1.716004   -3.740793    1.709115
     45          8           0        1.649338   -5.331282    0.017991
     46          6           0        0.606525   -6.176083    0.560173
     47          6           0       -4.297461   -2.133162   -1.035671
     48          6           0       -5.530952   -1.223254   -1.224717
     49          6           0       -6.806178   -1.532361   -1.097498
     50          6           0       -7.277223   -2.905251   -0.846677
     51          6           0       -7.888065   -0.508481   -1.189775
     52          6           0       -8.215463    0.178215    0.159554
     53          6           0       -8.691865    1.583701   -0.164687
     54          6           0       -8.434063    2.521491    1.032519
     55          6           0       -6.931791    2.933029    1.258569
     56          6           0       -9.093765    2.128431    2.430372
     57          6           0      -10.549684    2.693137    2.611823
     58          6           0      -11.632030    1.610415    3.018166
     59          6           0      -13.017331    1.855216    2.311229
     60          6           0      -14.266259    1.754158    3.286324
     61          6           0      -13.059745    0.822021    1.216614
     62          6           0      -13.918042    1.272529   -0.010386
     63          6           0      -14.499039    0.083734   -0.798107
     64          6           0      -13.860566   -0.030845   -2.156459
     65          6           0      -14.679813   -1.022375   -2.998772
     66          6           0      -12.365275   -0.517360   -2.087804
     67          1           0        2.619267    3.020688   -1.381104
     68          1           0        9.091581    3.675375   -0.405398
     69          1           0        9.448332   -2.395201    0.941680
     70          1           0        1.616197   -1.721686   -1.887953
     71          1           0        0.961075    1.247514   -1.153778
     72          1           0        2.409389    1.390572   -3.374256
     73          1           0        0.646167    0.846162   -3.503271
     74          1           0        2.012857   -0.249459   -3.672865
     75          1           0        0.931016   -0.780423    0.884793
     76          1           0        0.545252   -2.279655    0.064606
     77          1           0       -0.730885   -0.060270   -0.975243
     78          1           0       -1.191425   -0.190356    0.634487
     79          1           0        3.064221    5.077697   -1.774514
     80          1           0        4.496360    6.132097   -1.985913
     81          1           0        3.605853    6.042699   -0.442488
     82          1           0        5.763944    7.227680    0.263089
     83          1           0        6.066335    7.424080   -1.502093
     84          1           0        7.190133    8.084416   -0.253361
     85          1           0       10.662361    2.025458    1.010801
     86          1           0       10.907364   -0.606802   -0.014469
     87          1           0       10.391618    2.619675   -1.673606
     88          1           0       10.923825    0.904961   -1.722344
     89          1           0       11.962046    2.219433   -0.935048
     90          1           0       11.672131    0.240161    2.190780
     91          1           0       10.881424   -1.278424    2.343001
     92          1           0       10.378199    1.250304    3.705419
     93          1           0        9.458139   -0.257305    4.002576
     94          1           0        8.904789    0.844453    2.758119
     95          1           0        8.139508   -5.089720    1.994914
     96          1           0        8.797026   -4.928031    0.356707
     97          1           0        7.401048   -5.898801    0.600173
     98          1           0        2.883724   -4.016815   -1.303093
     99          1           0       -0.356804   -5.836951    0.178700
    100          1           0        0.522243   -6.115547    1.645096
    101          1           0        0.657762   -7.210249    0.220282
    102          1           0       -4.341599   -2.738739   -0.131294
    103          1           0       -4.183897   -2.825479   -1.870209
    104          1           0       -5.296981   -0.209670   -1.549729
    105          1           0       -6.637380   -3.518119   -0.212002
    106          1           0       -7.324516   -3.498011   -1.760396
    107          1           0       -8.224016   -2.829234   -0.311463
    108          1           0       -8.855411   -0.984476   -1.351691
    109          1           0       -7.640050    0.185545   -1.993134
    110          1           0       -7.322429    0.184138    0.784298
    111          1           0       -8.952561   -0.454561    0.654430
    112          1           0       -9.717210    1.351878   -0.450868
    113          1           0       -8.165773    2.001723   -1.022791
    114          1           0       -8.884407    3.460266    0.710551
    115          1           0       -6.675876    3.992247    1.287226
    116          1           0       -6.354498    2.597226    0.395784
    117          1           0       -6.699992    2.455261    2.211216
    118          1           0       -8.613076    2.639594    3.264396
    119          1           0       -9.171750    1.042528    2.479843
    120          1           0      -10.886449    3.313560    1.780378
    121          1           0      -10.474332    3.453740    3.387910
    122          1           0      -11.639906    1.754782    4.098791
    123          1           0      -11.231532    0.608452    2.864193
    124          1           0      -12.925962    2.787463    1.754451
    125          1           0      -14.130039    2.422393    4.137646
    126          1           0      -14.450833    0.734505    3.623786
    127          1           0      -15.160155    2.188598    2.837104
    128          1           0      -13.406448   -0.133087    1.610678
    129          1           0      -12.044259    0.694493    0.840126
    130          1           0      -13.217018    1.796439   -0.660346
    131          1           0      -14.767934    1.859072    0.336362
    132          1           0      -15.548302    0.273357   -1.026834
    133          1           0      -14.432948   -0.850259   -0.240273
    134          1           0      -13.781660    0.972242   -2.574952
    135          1           0      -14.874692   -0.500909   -3.935563
    136          1           0      -15.631781   -1.359943   -2.590343
    137          1           0      -14.080537   -1.894864   -3.259371
    138          1           0      -11.772896    0.083388   -2.778153
    139          1           0      -12.173610   -1.546403   -2.389765
    140          1           0      -11.949985   -0.384527   -1.088759
 ---------------------------------------------------------------------

 SCF Done:  E(RwB97XD) =  -3007.86301086     A.U. after   20 cycles

 Excitation energies and oscillator strengths:

 Excited State   1:      Singlet-A      1.6187 eV  765.93 nm  f=0.3702  <S**2>=0.000
     245 -> 248        0.18988
     246 -> 247        0.68108
     245 <- 248        0.11915
 This state for optimization and/or second-order correction.
 Total Energy, E(TD-HF/TD-DFT) =  -3007.80352362
 Copying the excited state density for this state as the 1-particle RhoCI density.

 Excited State   2:      Singlet-A      2.1352 eV  580.68 nm  f=0.1162  <S**2>=0.000
     245 -> 247        0.63997
     246 -> 248       -0.28664

 Excited State   3:      Singlet-A      3.4486 eV  359.52 nm  f=0.1544  <S**2>=0.000
     240 -> 247        0.10186
     241 -> 247        0.15646
     242 -> 247       -0.14500
     243 -> 247        0.52725
     245 -> 247        0.12862
     246 -> 248        0.36144

 Excited State   4:      Singlet-A      3.5181 eV  352.42 nm  f=0.3737  <S**2>=0.000
     240 -> 247        0.12175
     241 -> 247        0.13345
     243 -> 247       -0.42429
     245 -> 247        0.20186
     246 -> 248        0.46497

 Excited State   5:      Singlet-A      3.5537 eV  348.89 nm  f=0.0184  <S**2>=0.000
     239 -> 247        0.12996
     239 -> 249        0.11719
     240 -> 249        0.14363
     241 -> 249        0.11050
     242 -> 247        0.52773
     242 -> 248       -0.11329
     242 -> 249        0.20543
     242 -> 250        0.12445
     243 -> 247        0.11518

 The electronic state is 1-A.
 Alpha  occ. eigenvalues --  -46.95460 -19.30503 -19.28640 -19.25906 -19.24590
 Alpha  occ. eigenvalues --  -19.23571 -19.23406 -14.46791 -14.45795 -14.44371
 Alpha  occ. eigenvalues --  -14.43855 -10.44178 -10.42348 -10.39197 -10.38691
 Alpha  occ. eigenvalues --  -10.36366 -10.35499 -10.35384 -10.34623 -10.34558
 Alpha  occ. eigenvalues --  -10.34183 -10.33978 -10.33775 -10.33375 -10.33287
 Alpha  occ. eigenvalues --  -10.32759 -10.32735 -10.32553 -10.32431 -10.32049
 Alpha  occ. eigenvalues --  -10.32023 -10.31855 -10.31068 -10.31060 -10.31053
 Alpha  occ. eigenvalues --  -10.30789 -10.30715 -10.30550 -10.30154 -10.30069
 Alpha  occ. eigenvalues --  -10.30053 -10.30038 -10.29991 -10.29975 -10.29852
 Alpha  occ. eigenvalues --  -10.29797 -10.29525 -10.29499 -10.29451 -10.29445
 Alpha  occ. eigenvalues --  -10.29345 -10.29343 -10.29280 -10.29220 -10.29205
 Alpha  occ. eigenvalues --  -10.29062 -10.28898 -10.28746 -10.28732 -10.28695
 Alpha  occ. eigenvalues --  -10.28528 -10.28473 -10.28393 -10.28318 -10.28066
 Alpha  occ. eigenvalues --  -10.27987  -3.21378  -1.94949  -1.94495  -1.94343
 Alpha  occ. eigenvalues --   -1.17579  -1.16948  -1.13882  -1.11815  -1.10619
 Alpha  occ. eigenvalues --   -1.07963  -1.06288  -1.05496  -1.05305  -1.04336
 Alpha  occ. eigenvalues --   -0.93577  -0.93167  -0.91771  -0.91386  -0.90762
 Alpha  occ. eigenvalues --   -0.90518  -0.90079  -0.89466  -0.89172  -0.89087
 Alpha  occ. eigenvalues --   -0.87757  -0.87335  -0.86279  -0.85778  -0.84948
 Alpha  occ. eigenvalues --   -0.83988  -0.83532  -0.83202  -0.82711  -0.82060
 Alpha  occ. eigenvalues --   -0.81554  -0.80307  -0.79614  -0.78843  -0.77845
 Alpha  occ. eigenvalues --   -0.77464  -0.77426  -0.76893  -0.76843  -0.75682
 Alpha  occ. eigenvalues --   -0.75335  -0.74496  -0.73496  -0.72182  -0.71216
 Alpha  occ. eigenvalues --   -0.70538  -0.69988  -0.69695  -0.69362  -0.67700
 Alpha  occ. eigenvalues --   -0.67109  -0.66957  -0.66402  -0.66110  -0.65578
 Alpha  occ. eigenvalues --   -0.65011  -0.64744  -0.63663  -0.63278  -0.62174
 Alpha  occ. eigenvalues --   -0.61704  -0.61463  -0.60979  -0.60089  -0.59596
 Alpha  occ. eigenvalues --   -0.59211  -0.58965  -0.57813  -0.57711  -0.57634
 Alpha  occ. eigenvalues --   -0.57427  -0.57020  -0.56839  -0.56484  -0.55884
 Alpha  occ. eigenvalues --   -0.55590  -0.55252  -0.55140  -0.54689  -0.54573
 Alpha  occ. eigenvalues --   -0.54523  -0.54386  -0.54110  -0.53864  -0.53555
 Alpha  occ. eigenvalues --   -0.53471  -0.52975  -0.52834  -0.52463  -0.52371
 Alpha  occ. eigenvalues --   -0.52307  -0.52037  -0.51852  -0.51753  -0.51653
 Alpha  occ. eigenvalues --   -0.51476  -0.50965  -0.50911  -0.50787  -0.50621
 Alpha  occ. eigenvalues --   -0.50492  -0.50417  -0.50053  -0.49888  -0.49733
 Alpha  occ. eigenvalues --   -0.49344  -0.49020  -0.48538  -0.48419  -0.48080
 Alpha  occ. eigenvalues --   -0.47917  -0.47847  -0.47633  -0.47522  -0.47300
 Alpha  occ. eigenvalues --   -0.47275  -0.47170  -0.47065  -0.46843  -0.46607
 Alpha  occ. eigenvalues --   -0.46538  -0.46507  -0.46042  -0.45939  -0.45687
 Alpha  occ. eigenvalues --   -0.45464  -0.45228  -0.45214  -0.45045  -0.44808
 Alpha  occ. eigenvalues --   -0.44737  -0.44608  -0.44096  -0.44045  -0.43901
 Alpha  occ. eigenvalues --   -0.43811  -0.43768  -0.43597  -0.43095  -0.43027
 Alpha  occ. eigenvalues --   -0.42810  -0.42724  -0.42512  -0.41979  -0.41747
 Alpha  occ. eigenvalues --   -0.41725  -0.41463  -0.41316  -0.41151  -0.40672
 Alpha  occ. eigenvalues --   -0.40407  -0.40134  -0.39659  -0.39555  -0.39309
 Alpha  occ. eigenvalues --   -0.39075  -0.38872  -0.38376  -0.38372  -0.37931
 Alpha  occ. eigenvalues --   -0.37712  -0.36833  -0.36596  -0.36031  -0.36021
 Alpha  occ. eigenvalues --   -0.35815  -0.35417  -0.34928  -0.33330  -0.32765
 Alpha  occ. eigenvalues --   -0.32632  -0.32203  -0.32080  -0.31891  -0.25630
 Alpha  occ. eigenvalues --   -0.22749
 Alpha virt. eigenvalues --   -0.06969   0.00264   0.02529   0.04559   0.05340
 Alpha virt. eigenvalues --    0.06640   0.08249   0.08336   0.08540   0.09570
 Alpha virt. eigenvalues --    0.10008   0.10755   0.11754   0.12262   0.12740

 Mulliken charges:
               1
     1  Mg   0.963657
     2  C   -0.002681
     3  C   -0.067418
     4  C   -0.072253
     5  C   -0.089903
     6  N   -0.308087
     7  C   -0.035185
     8  C   -0.022654
     9  C   -0.125644
    10  C   -0.007864
    11  C    0.038406
    12  C    0.021306
    13  C   -0.014051
    14  C    0.267488
    15  O   -0.256628
    16  O   -0.391971
    17  N   -0.492708
    18  C    0.210828
    19  C   -0.176478
    20  C   -0.055973
    21  C    0.180966
    22  C    0.067935
    23  C    0.028033
    24  O   -0.236624
    25  C   -0.011296
    26  N   -0.377042
    27  C    0.000032
    28  C   -0.043981
    29  C   -0.105217
    30  C    0.079626
    31  C    0.043580
    32  C   -0.040605
    33  C   -0.054868
    34  N   -0.406312
    35  C    0.117788
    36  C   -0.173288
    37  C   -0.059357
    38  C    0.131411
    39  C    0.064520
    40  C    0.130856
    41  O   -0.152718
    42  C   -0.129244
    43  C    0.293002
    44  O   -0.277285
    45  O   -0.367477
    46  C    0.146849
    47  C    0.263657
    48  C   -0.152219
    49  C   -0.186650
    50  C    0.040672
    51  C    0.030667
    52  C   -0.066147
    53  C    0.019625
    54  C   -0.170970
    55  C   -0.008348
    56  C    0.013164
    57  C   -0.068639
    58  C    0.005495
    59  C   -0.151021
    60  C    0.007370
    61  C   -0.033720
    62  C   -0.014820
    63  C    0.006796
    64  C   -0.228584
    65  C    0.015977
    66  C   -0.026269
    67  H   -0.009824
    68  H    0.025141
    69  H   -0.000464
    70  H    0.037890
    71  H    0.040625
    72  H    0.027834
    73  H    0.047937
    74  H    0.040132
    75  H    0.029467
    76  H    0.054248
    77  H    0.029622
    78  H    0.064695
    79  H    0.047454
    80  H    0.044227
    81  H    0.051393
    82  H    0.039893
    83  H    0.063575
    84  H    0.051958
    85  H    0.030073
    86  H    0.024566
    87  H    0.044965
    88  H    0.039983
    89  H    0.050024
    90  H    0.026915
    91  H    0.033796
    92  H    0.047082
    93  H    0.047169
    94  H    0.045579
    95  H    0.052604
    96  H    0.040845
    97  H    0.051761
    98  H    0.089690
    99  H    0.048016
   100  H    0.052075
   101  H    0.053762
   102  H    0.046731
   103  H    0.054079
   104  H    0.021069
   105  H    0.022898
   106  H    0.056472
   107  H    0.028832
   108  H    0.014952
   109  H    0.032202
   110  H    0.023643
   111  H    0.030301
   112  H    0.019689
   113  H    0.024373
   114  H    0.014944
   115  H    0.034881
   116  H    0.018871
   117  H    0.037265
   118  H    0.029340
   119  H    0.027550
   120  H    0.012937
   121  H    0.016916
   122  H    0.012428
   123  H    0.017789
   124  H    0.019692
   125  H    0.028206
   126  H    0.038089
   127  H    0.025794
   128  H    0.013752
   129  H    0.018008
   130  H    0.024204
   131  H    0.024272
   132  H    0.014827
   133  H    0.018832
   134  H    0.027076
   135  H    0.025844
   136  H    0.033826
   137  H    0.022591
   138  H    0.028565
   139  H    0.028656
   140  H    0.017388
 Sum of Mulliken charges =  -0.00000

 Dipole moment (field-independent basis, Debye):
    X=             -3.5255    Y=              3.2419    Z=             -1.3226  Tot=              4.9688
 Quadrupole moment (field-independent basis, Debye-Ang):
   XX=           -367.5964   YY=           -416.1062   ZZ=           -401.7426
   XY=             -5.0864   XZ=              4.3172   YZ=             -1.1001

 Normal termination of Gaussian 16 at Sat Apr 30 05:00:43 2022.
