 Gaussian 16, Revision A.03,
 Gaussian 16:  ES64L-G16RevA.03 25-Dec-2016

 --------------------
 #p ZINDO=(nstates=5)
 --------------------

 ----------------------------
 step_601_chromophore_1 ZINDO
 ----------------------------
 Symbolic Z-matrix:
 Charge =  0 Multiplicity = 1

                         Standard orientation:
 ---------------------------------------------------------------------
 Center     Atomic      Atomic             Coordinates (Angstroms)
 Number     Number       Type             X           Y           Z
 ---------------------------------------------------------------------
      1         12           0        5.974888    0.501580    0.186342
      2          6           0        3.746796   -2.379354   -0.235600
      3          6           0        3.490269    2.450059   -1.051057
      4          6           0        8.261873    3.003874   -0.173046
      5          6           0        8.594239   -1.816223    0.585075
      6          7           0        3.821968    0.037169   -0.638934
      7          6           0        3.092932   -1.143869   -0.600922
      8          6           0        1.623862   -0.927666   -1.141709
      9          6           0        1.695372    0.577734   -1.601493
     10          6           0        3.075300    1.073076   -1.080480
     11          6           0        1.655641    0.636631   -3.148220
     12          6           0        0.577891   -1.197399   -0.058936
     13          6           0       -0.867698   -0.813168   -0.199072
     14          6           0       -1.910075   -1.844766   -0.661532
     15          8           0       -1.629460   -3.036368   -0.733964
     16          8           0       -3.150215   -1.231667   -0.929207
     17          7           0        5.827638    2.485640   -0.216142
     18          6           0        4.710911    3.096982   -0.682463
     19          6           0        5.037733    4.511886   -0.806585
     20          6           0        6.424269    4.691856   -0.494771
     21          6           0        6.897333    3.354420   -0.307410
     22          6           0        3.963311    5.473677   -1.300128
     23          6           0        7.204182    5.936789   -0.325820
     24          8           0        8.401447    5.999341   -0.066296
     25          6           0        6.518458    7.269002   -0.523033
     26          7           0        8.097937    0.558988    0.114028
     27          6           0        8.800277    1.747946    0.106765
     28          6           0       10.242877    1.463003    0.176881
     29          6           0       10.269272   -0.004813    0.632309
     30          6           0        8.871321   -0.487990    0.439994
     31          6           0       10.966096    1.843017   -1.169949
     32          6           0       10.687675   -0.225869    2.138240
     33          6           0        9.795902    0.451399    3.246589
     34          7           0        6.142235   -1.626493    0.262326
     35          6           0        7.292345   -2.390331    0.505460
     36          6           0        6.899042   -3.813880    0.673245
     37          6           0        5.550729   -3.817213    0.359171
     38          6           0        5.150171   -2.512882    0.203575
     39          6           0        7.879054   -4.980352    0.941996
     40          6           0        4.419264   -4.723222    0.200904
     41          8           0        4.387805   -5.914013    0.234075
     42          6           0        3.184546   -3.807970   -0.275623
     43          6           0        2.104280   -4.189650    0.613787
     44          8           0        1.716004   -3.740793    1.709115
     45          8           0        1.649338   -5.331282    0.017991
     46          6           0        0.606525   -6.176083    0.560173
     47          6           0       -4.297461   -2.133162   -1.035671
     48          6           0       -5.530952   -1.223254   -1.224717
     49          6           0       -6.806178   -1.532361   -1.097498
     50          6           0       -7.277223   -2.905251   -0.846677
     51          6           0       -7.888065   -0.508481   -1.189775
     52          6           0       -8.215463    0.178215    0.159554
     53          6           0       -8.691865    1.583701   -0.164687
     54          6           0       -8.434063    2.521491    1.032519
     55          6           0       -6.931791    2.933029    1.258569
     56          6           0       -9.093765    2.128431    2.430372
     57          6           0      -10.549684    2.693137    2.611823
     58          6           0      -11.632030    1.610415    3.018166
     59          6           0      -13.017331    1.855216    2.311229
     60          6           0      -14.266259    1.754158    3.286324
     61          6           0      -13.059745    0.822021    1.216614
     62          6           0      -13.918042    1.272529   -0.010386
     63          6           0      -14.499039    0.083734   -0.798107
     64          6           0      -13.860566   -0.030845   -2.156459
     65          6           0      -14.679813   -1.022375   -2.998772
     66          6           0      -12.365275   -0.517360   -2.087804
     67          1           0        2.619267    3.020688   -1.381104
     68          1           0        9.091581    3.675375   -0.405398
     69          1           0        9.448332   -2.395201    0.941680
     70          1           0        1.616197   -1.721686   -1.887953
     71          1           0        0.961075    1.247514   -1.153778
     72          1           0        2.409389    1.390572   -3.374256
     73          1           0        0.646167    0.846162   -3.503271
     74          1           0        2.012857   -0.249459   -3.672865
     75          1           0        0.931016   -0.780423    0.884793
     76          1           0        0.545252   -2.279655    0.064606
     77          1           0       -0.730885   -0.060270   -0.975243
     78          1           0       -1.191425   -0.190356    0.634487
     79          1           0        3.064221    5.077697   -1.774514
     80          1           0        4.496360    6.132097   -1.985913
     81          1           0        3.605853    6.042699   -0.442488
     82          1           0        5.763944    7.227680    0.263089
     83          1           0        6.066335    7.424080   -1.502093
     84          1           0        7.190133    8.084416   -0.253361
     85          1           0       10.662361    2.025458    1.010801
     86          1           0       10.907364   -0.606802   -0.014469
     87          1           0       10.391618    2.619675   -1.673606
     88          1           0       10.923825    0.904961   -1.722344
     89          1           0       11.962046    2.219433   -0.935048
     90          1           0       11.672131    0.240161    2.190780
     91          1           0       10.881424   -1.278424    2.343001
     92          1           0       10.378199    1.250304    3.705419
     93          1           0        9.458139   -0.257305    4.002576
     94          1           0        8.904789    0.844453    2.758119
     95          1           0        8.139508   -5.089720    1.994914
     96          1           0        8.797026   -4.928031    0.356707
     97          1           0        7.401048   -5.898801    0.600173
     98          1           0        2.883724   -4.016815   -1.303093
     99          1           0       -0.356804   -5.836951    0.178700
    100          1           0        0.522243   -6.115547    1.645096
    101          1           0        0.657762   -7.210249    0.220282
    102          1           0       -4.341599   -2.738739   -0.131294
    103          1           0       -4.183897   -2.825479   -1.870209
    104          1           0       -5.296981   -0.209670   -1.549729
    105          1           0       -6.637380   -3.518119   -0.212002
    106          1           0       -7.324516   -3.498011   -1.760396
    107          1           0       -8.224016   -2.829234   -0.311463
    108          1           0       -8.855411   -0.984476   -1.351691
    109          1           0       -7.640050    0.185545   -1.993134
    110          1           0       -7.322429    0.184138    0.784298
    111          1           0       -8.952561   -0.454561    0.654430
    112          1           0       -9.717210    1.351878   -0.450868
    113          1           0       -8.165773    2.001723   -1.022791
    114          1           0       -8.884407    3.460266    0.710551
    115          1           0       -6.675876    3.992247    1.287226
    116          1           0       -6.354498    2.597226    0.395784
    117          1           0       -6.699992    2.455261    2.211216
    118          1           0       -8.613076    2.639594    3.264396
    119          1           0       -9.171750    1.042528    2.479843
    120          1           0      -10.886449    3.313560    1.780378
    121          1           0      -10.474332    3.453740    3.387910
    122          1           0      -11.639906    1.754782    4.098791
    123          1           0      -11.231532    0.608452    2.864193
    124          1           0      -12.925962    2.787463    1.754451
    125          1           0      -14.130039    2.422393    4.137646
    126          1           0      -14.450833    0.734505    3.623786
    127          1           0      -15.160155    2.188598    2.837104
    128          1           0      -13.406448   -0.133087    1.610678
    129          1           0      -12.044259    0.694493    0.840126
    130          1           0      -13.217018    1.796439   -0.660346
    131          1           0      -14.767934    1.859072    0.336362
    132          1           0      -15.548302    0.273357   -1.026834
    133          1           0      -14.432948   -0.850259   -0.240273
    134          1           0      -13.781660    0.972242   -2.574952
    135          1           0      -14.874692   -0.500909   -3.935563
    136          1           0      -15.631781   -1.359943   -2.590343
    137          1           0      -14.080537   -1.894864   -3.259371
    138          1           0      -11.772896    0.083388   -2.778153
    139          1           0      -12.173610   -1.546403   -2.389765
    140          1           0      -11.949985   -0.384527   -1.088759
 ---------------------------------------------------------------------

 SCF Done:  E(RZINDO/S) =  -474.303079334     A.U. after   18 cycles

 Excitation energies and oscillator strengths:

 Excited State   1:      Singlet-A      1.2161 eV 1019.53 nm  f=0.6000  <S**2>=0.000
     175 ->178         0.19487
     176 ->177         0.66123
 This state for optimization and/or second-order correction.
 Total Energy, E(CIS/TDA) =  -474.258388951
 Copying the excited state density for this state as the 1-particle RhoCI density.

 Excited State   2:      Singlet-A      1.8775 eV  660.35 nm  f=0.0511  <S**2>=0.000
     175 ->177         0.55388
     176 ->178        -0.41370

 Excited State   3:      Singlet-A      2.9240 eV  424.02 nm  f=0.0100  <S**2>=0.000
     168 ->177         0.29086
     168 ->178        -0.15289
     168 ->179        -0.39877
     168 ->180         0.24702
     168 ->184        -0.14579
     168 ->185        -0.20819
     168 ->187        -0.12547
     168 ->195         0.11569

 Excited State   4:      Singlet-A      2.9590 eV  419.00 nm  f=0.9651  <S**2>=0.000
     171 ->177        -0.13459
     175 ->177         0.35717
     176 ->178         0.51282
     176 ->179         0.19745
     176 ->181         0.10840

 Excited State   5:      Singlet-A      2.9958 eV  413.86 nm  f=0.1506  <S**2>=0.000
     175 ->177        -0.13016
     176 ->178        -0.15918
     176 ->179         0.61183
     176 ->181         0.18123

 The electronic state is 1-A.
 Alpha  occ. eigenvalues --   -1.84924  -1.81784  -1.79559  -1.72318  -1.71803
 Alpha  occ. eigenvalues --   -1.69353  -1.65970  -1.62795  -1.59593  -1.57204
 Alpha  occ. eigenvalues --   -1.56371  -1.52737  -1.50046  -1.47309  -1.44891
 Alpha  occ. eigenvalues --   -1.43820  -1.41744  -1.40097  -1.38702  -1.38389
 Alpha  occ. eigenvalues --   -1.35749  -1.32462  -1.31764  -1.31015  -1.28503
 Alpha  occ. eigenvalues --   -1.27106  -1.25551  -1.22110  -1.20728  -1.19239
 Alpha  occ. eigenvalues --   -1.17269  -1.16826  -1.15318  -1.13952  -1.13635
 Alpha  occ. eigenvalues --   -1.12824  -1.11823  -1.09733  -1.04488  -1.03503
 Alpha  occ. eigenvalues --   -1.02988  -1.01244  -0.98911  -0.97986  -0.97215
 Alpha  occ. eigenvalues --   -0.95917  -0.94859  -0.93030  -0.92707  -0.92155
 Alpha  occ. eigenvalues --   -0.90394  -0.89549  -0.88522  -0.87745  -0.85170
 Alpha  occ. eigenvalues --   -0.84997  -0.84351  -0.83253  -0.81598  -0.80364
 Alpha  occ. eigenvalues --   -0.78863  -0.78123  -0.77858  -0.76910  -0.76471
 Alpha  occ. eigenvalues --   -0.76291  -0.75238  -0.74593  -0.74522  -0.73890
 Alpha  occ. eigenvalues --   -0.73268  -0.72524  -0.71896  -0.71693  -0.70391
 Alpha  occ. eigenvalues --   -0.69592  -0.68914  -0.68586  -0.67920  -0.67816
 Alpha  occ. eigenvalues --   -0.67307  -0.67044  -0.66648  -0.66456  -0.66163
 Alpha  occ. eigenvalues --   -0.65294  -0.65194  -0.64256  -0.63485  -0.63228
 Alpha  occ. eigenvalues --   -0.62737  -0.62149  -0.61890  -0.61790  -0.61518
 Alpha  occ. eigenvalues --   -0.61178  -0.60736  -0.60645  -0.60274  -0.59615
 Alpha  occ. eigenvalues --   -0.59234  -0.58844  -0.58652  -0.58397  -0.57951
 Alpha  occ. eigenvalues --   -0.57739  -0.57506  -0.56884  -0.56690  -0.56494
 Alpha  occ. eigenvalues --   -0.56333  -0.55521  -0.55287  -0.54666  -0.54559
 Alpha  occ. eigenvalues --   -0.54037  -0.53844  -0.52883  -0.52701  -0.52682
 Alpha  occ. eigenvalues --   -0.52588  -0.52390  -0.52126  -0.51895  -0.51648
 Alpha  occ. eigenvalues --   -0.51065  -0.50877  -0.50725  -0.50654  -0.50198
 Alpha  occ. eigenvalues --   -0.49668  -0.49456  -0.49256  -0.49078  -0.48741
 Alpha  occ. eigenvalues --   -0.48596  -0.48416  -0.48117  -0.47894  -0.47627
 Alpha  occ. eigenvalues --   -0.47157  -0.46907  -0.46730  -0.46597  -0.46095
 Alpha  occ. eigenvalues --   -0.46062  -0.45806  -0.45481  -0.45336  -0.45251
 Alpha  occ. eigenvalues --   -0.44998  -0.44743  -0.44398  -0.44209  -0.44026
 Alpha  occ. eigenvalues --   -0.43814  -0.43319  -0.42564  -0.42335  -0.41731
 Alpha  occ. eigenvalues --   -0.41571  -0.41019  -0.39702  -0.39137  -0.38365
 Alpha  occ. eigenvalues --   -0.37740  -0.36873  -0.35361  -0.34655  -0.34353
 Alpha  occ. eigenvalues --   -0.33107  -0.32583  -0.32305  -0.31814  -0.26213
 Alpha  occ. eigenvalues --   -0.21371
 Alpha virt. eigenvalues --   -0.08397  -0.01832  -0.00390   0.01291   0.01643
 Alpha virt. eigenvalues --    0.01690   0.03169   0.03514   0.05061   0.05383
 Alpha virt. eigenvalues --    0.06514   0.07037   0.07337   0.07928   0.08510

 Mulliken charges:
               1
     1  Mg   0.428159
     2  C   -0.053277
     3  C   -0.088337
     4  C   -0.082750
     5  C   -0.079803
     6  N   -0.281561
     7  C    0.087303
     8  C    0.009271
     9  C    0.011269
    10  C    0.136130
    11  C   -0.053075
    12  C   -0.023186
    13  C   -0.000596
    14  C    0.466799
    15  O   -0.500891
    16  O   -0.278774
    17  N   -0.324123
    18  C    0.117111
    19  C    0.016038
    20  C   -0.044247
    21  C    0.156720
    22  C   -0.046342
    23  C    0.332731
    24  O   -0.530186
    25  C   -0.033334
    26  N   -0.287147
    27  C    0.152660
    28  C    0.004765
    29  C    0.001630
    30  C    0.136795
    31  C   -0.051405
    32  C   -0.031833
    33  C   -0.054879
    34  N   -0.316095
    35  C    0.079940
    36  C    0.005703
    37  C   -0.034749
    38  C    0.111502
    39  C   -0.040035
    40  C    0.339094
    41  O   -0.491912
    42  C    0.060758
    43  C    0.502655
    44  O   -0.542853
    45  O   -0.268529
    46  C    0.075796
    47  C    0.106843
    48  C   -0.099260
    49  C    0.007246
    50  C   -0.043125
    51  C   -0.027614
    52  C   -0.029071
    53  C   -0.026308
    54  C   -0.017407
    55  C   -0.063863
    56  C   -0.042299
    57  C   -0.052174
    58  C   -0.041917
    59  C   -0.012685
    60  C   -0.055807
    61  C   -0.035808
    62  C   -0.047396
    63  C   -0.032230
    64  C   -0.007396
    65  C   -0.059435
    66  C   -0.065119
    67  H    0.020388
    68  H    0.049340
    69  H    0.030360
    70  H    0.043248
    71  H    0.036158
    72  H    0.021706
    73  H    0.023883
    74  H    0.025878
    75  H    0.025780
    76  H    0.035315
    77  H    0.029139
    78  H    0.045862
    79  H    0.032740
    80  H    0.026128
    81  H    0.029977
    82  H    0.030064
    83  H    0.041930
    84  H    0.036999
    85  H    0.027386
    86  H    0.022607
    87  H    0.031911
    88  H    0.028654
    89  H    0.027533
    90  H    0.005505
    91  H    0.023762
    92  H    0.023945
    93  H    0.024055
    94  H    0.027474
    95  H    0.034537
    96  H    0.023842
    97  H    0.027512
    98  H    0.062986
    99  H    0.031685
   100  H    0.047217
   101  H    0.038872
   102  H    0.048982
   103  H    0.050957
   104  H    0.026433
   105  H    0.018113
   106  H    0.034574
   107  H    0.019397
   108  H    0.016371
   109  H    0.027246
   110  H    0.018721
   111  H    0.023137
   112  H    0.024229
   113  H    0.022854
   114  H    0.004517
   115  H    0.022669
   116  H    0.016144
   117  H    0.025095
   118  H    0.029685
   119  H    0.031073
   120  H    0.019033
   121  H    0.010109
   122  H    0.011442
   123  H    0.025005
   124  H    0.029182
   125  H    0.013986
   126  H    0.029535
   127  H    0.017044
   128  H    0.019753
   129  H    0.014495
   130  H    0.025340
   131  H    0.021905
   132  H    0.009106
   133  H    0.023856
   134  H    0.025379
   135  H    0.010464
   136  H    0.024088
   137  H    0.018634
   138  H    0.010561
   139  H    0.020819
   140  H    0.017607
 Sum of Mulliken charges =  -0.00000

 Dipole moment (field-independent basis, Debye):
    X=             -4.5221    Y=              6.0374    Z=             -3.2121  Tot=              8.1986
 N-N= 4.266279571481D+03 E-N= 0.000000000000D+00  KE=-9.207473883128D+03
 Leave Link  601 at Sat Apr 30 05:12:05 2022, MaxMem=  6710886400 cpu:               0.8 elap:               0.0
 (Enter /sw/apps/gaussian-16.0/g16/l9999.exe)
 1\1\GINC-BP1-COMPUTE102\SP\RZINDO CIS\STO-3G\C55H74Mg1N4O6\OF15641\30-
 Apr-2022\0\\#p ZINDO=(nstates=5)\\step_601_chromophore_1 ZINDO\\0,1\Mg
 ,0,-1.263,17.477,26.891\C,0,-1.618,15.222,29.76\C,0,-1.75,20.069,29.02
 3\C,0,-1.728,19.484,24.175\C,0,-1.665,14.64,24.846\N,0,-1.718,17.605,2
 9.195\C,0,-1.693,16.608,30.161\C,0,-1.914,17.206,31.607\C,0,-2.184,18.
 72,31.264\C,0,-1.875,18.83,29.743\C,0,-3.675,19.041,31.531\C,0,-0.696,
 16.98,32.504\C,0,-0.51,17.669,33.826\C,0,-0.894,16.963,35.137\O,0,-1.1

 Normal termination of Gaussian 16 at Sat Apr 30 05:12:06 2022.
