 Gaussian 16, Revision A.03,
 Gaussian 16:  ES64L-G16RevA.03 25-Dec-2016

 ------------------------------
 #p blyp/Def2SVP td=(nstates=5)
 ------------------------------

 ---------------------------------------------------
 step_1551_chromophore_26 TDDFT with blyp functional
 ---------------------------------------------------
 Symbolic Z-matrix:
 Charge =  0 Multiplicity = 1

                         Standard orientation:
 ---------------------------------------------------------------------
 Center     Atomic      Atomic             Coordinates (Angstroms)
 Number     Number       Type             X           Y           Z
 ---------------------------------------------------------------------
      1         12           0       -4.074067    1.501588    0.447253
      2          6           0       -5.088580   -1.904273    0.142619
      3          6           0       -2.196158    0.410610    3.183206
      4          6           0       -2.680402    4.481894    0.622523
      5          6           0       -5.328218    2.013889   -2.757721
      6          7           0       -3.715960   -0.500382    1.481421
      7          6           0       -4.221398   -1.724363    1.187636
      8          6           0       -3.804700   -2.787458    2.181322
      9          6           0       -2.965848   -1.960334    3.237358
     10          6           0       -2.901133   -0.613550    2.548937
     11          6           0       -3.469929   -1.948956    4.709453
     12          6           0       -3.126086   -4.093399    1.591057
     13          6           0       -2.208741   -3.848146    0.352079
     14          6           0       -1.002157   -4.661714    0.123580
     15          8           0       -0.760534   -5.703326    0.721001
     16          8           0       -0.162217   -4.021077   -0.753969
     17          7           0       -2.706307    2.416731    1.854414
     18          6           0       -2.030576    1.817287    2.933648
     19          6           0       -1.286566    2.825016    3.582420
     20          6           0       -1.426955    4.072836    2.891666
     21          6           0       -2.279326    3.680475    1.712554
     22          6           0       -0.568860    2.506661    4.904217
     23          6           0       -0.669898    5.354691    3.253784
     24          8           0        0.153336    5.456889    4.155151
     25          6           0       -0.920826    6.673862    2.451962
     26          7           0       -3.629574    2.861106   -1.102470
     27          6           0       -3.287466    4.145590   -0.591787
     28          6           0       -3.680072    5.214151   -1.665777
     29          6           0       -4.073239    4.272483   -2.887653
     30          6           0       -4.394592    2.957325   -2.226853
     31          6           0       -4.861676    6.100770   -1.117952
     32          6           0       -2.887911    4.068426   -3.903708
     33          6           0       -3.233983    4.175975   -5.391146
     34          7           0       -5.062647    0.325961   -1.087131
     35          6           0       -5.650998    0.709855   -2.309534
     36          6           0       -6.434811   -0.472202   -2.784724
     37          6           0       -6.159452   -1.510802   -1.882357
     38          6           0       -5.370902   -0.962078   -0.844434
     39          6           0       -7.277767   -0.583796   -4.095979
     40          6           0       -6.411396   -2.891214   -1.636612
     41          8           0       -6.855872   -3.791491   -2.356318
     42          6           0       -5.742170   -3.206577   -0.268786
     43          6           0       -6.825759   -3.641391    0.639830
     44          8           0       -6.923545   -4.788304    1.092356
     45          8           0       -7.673524   -2.560308    0.996230
     46          6           0       -8.748312   -2.954969    1.874793
     47          6           0        1.187177   -4.659598   -0.857837
     48          6           0        2.016161   -3.838394   -1.873673
     49          6           0        3.170207   -3.182744   -1.637680
     50          6           0        3.969360   -3.134342   -0.364651
     51          6           0        3.831002   -2.321911   -2.746855
     52          6           0        3.998713   -0.802940   -2.435703
     53          6           0        5.497343   -0.416986   -2.507917
     54          6           0        5.744489    0.940849   -1.636342
     55          6           0        5.455639    2.197788   -2.370605
     56          6           0        7.184060    1.016174   -1.046503
     57          6           0        7.235226    0.629605    0.465978
     58          6           0        8.065042   -0.661164    0.620470
     59          6           0        9.572729   -0.494502    1.075287
     60          6           0       10.112516   -1.557241    2.038021
     61          6           0       10.485459   -0.474866   -0.135204
     62          6           0       11.793743    0.249976    0.100256
     63          6           0       12.946966   -0.271679   -0.746111
     64          6           0       14.283744   -0.278696    0.019939
     65          6           0       14.757065    1.158375    0.245930
     66          6           0       15.404688   -1.150027   -0.634829
     67          1           0       -1.567826   -0.039264    3.954478
     68          1           0       -2.412851    5.539228    0.579673
     69          1           0       -5.745214    2.154442   -3.757477
     70          1           0       -4.755937   -3.051404    2.643341
     71          1           0       -1.957496   -2.372720    3.186994
     72          1           0       -3.552664   -0.923142    5.069243
     73          1           0       -2.858202   -2.504660    5.419453
     74          1           0       -4.478068   -2.359788    4.754435
     75          1           0       -3.933256   -4.823682    1.534857
     76          1           0       -2.519346   -4.474391    2.412431
     77          1           0       -1.847498   -2.819189    0.330499
     78          1           0       -2.829031   -3.890742   -0.542849
     79          1           0        0.407415    2.031515    4.814479
     80          1           0       -1.220112    1.937303    5.567585
     81          1           0       -0.381543    3.416443    5.474594
     82          1           0       -1.996688    6.848066    2.435016
     83          1           0       -0.568165    6.365952    1.467667
     84          1           0       -0.321662    7.511097    2.811463
     85          1           0       -2.869581    5.898331   -1.914557
     86          1           0       -4.952276    4.733815   -3.337165
     87          1           0       -4.657815    7.169706   -1.045603
     88          1           0       -5.086299    5.857093   -0.080747
     89          1           0       -5.794891    6.045935   -1.678748
     90          1           0       -2.469640    3.089992   -3.669207
     91          1           0       -2.028743    4.722398   -3.754391
     92          1           0       -3.010060    3.216895   -5.857864
     93          1           0       -2.562895    4.925808   -5.811047
     94          1           0       -4.279794    4.375615   -5.627434
     95          1           0       -8.061773   -1.292857   -3.831657
     96          1           0       -6.597733   -1.013150   -4.831513
     97          1           0       -7.686929    0.367814   -4.435720
     98          1           0       -5.010011   -4.007260   -0.378356
     99          1           0       -8.799261   -3.912435    2.393403
    100          1           0       -9.710223   -2.810636    1.383125
    101          1           0       -8.665354   -2.206861    2.662733
    102          1           0        1.083697   -5.691408   -1.193333
    103          1           0        1.609035   -4.689361    0.146922
    104          1           0        1.540230   -3.698165   -2.843975
    105          1           0        5.048964   -3.256527   -0.460745
    106          1           0        3.595102   -3.883151    0.332447
    107          1           0        3.838446   -2.198700    0.178349
    108          1           0        3.221461   -2.268743   -3.649374
    109          1           0        4.735443   -2.835602   -3.073598
    110          1           0        3.532513   -0.501942   -1.497025
    111          1           0        3.726948   -0.278034   -3.352167
    112          1           0        5.711534   -0.181396   -3.550198
    113          1           0        6.154470   -1.271297   -2.341146
    114          1           0        5.027610    0.909584   -0.815846
    115          1           0        6.331505    2.783491   -2.648888
    116          1           0        5.007566    2.896474   -1.663842
    117          1           0        4.871055    2.021947   -3.274013
    118          1           0        7.628604    1.991335   -1.246220
    119          1           0        7.744339    0.347498   -1.699541
    120          1           0        6.271698    0.522198    0.963145
    121          1           0        7.744372    1.412240    1.029353
    122          1           0        7.999845   -1.199840   -0.325663
    123          1           0        7.505276   -1.267781    1.333256
    124          1           0        9.609339    0.501207    1.518283
    125          1           0        9.240144   -1.989542    2.528133
    126          1           0       10.603997   -1.032257    2.857501
    127          1           0       10.821946   -2.268312    1.615654
    128          1           0       10.049802   -0.102428   -1.062537
    129          1           0       10.716852   -1.524194   -0.319796
    130          1           0       12.026096    0.287781    1.164273
    131          1           0       11.625745    1.305633   -0.112494
    132          1           0       12.940023    0.529864   -1.485234
    133          1           0       12.912689   -1.292561   -1.125030
    134          1           0       14.066379   -0.702043    1.000234
    135          1           0       15.797421    1.246205    0.557941
    136          1           0       14.299970    1.632469    1.114318
    137          1           0       14.610760    1.706132   -0.686243
    138          1           0       15.011510   -1.717094   -1.478213
    139          1           0       15.818548   -1.881564    0.058670
    140          1           0       16.202766   -0.534894   -1.050331
 ---------------------------------------------------------------------

 SCF Done:  E(RB-LYP) =  -3007.37351673     A.U. after   21 cycles

 Excitation energies and oscillator strengths:

 Excited State   1:      Singlet-A      1.6369 eV  757.41 nm  f=0.0003  <S**2>=0.000
     244 -> 247        0.70177
 This state for optimization and/or second-order correction.
 Total Energy, E(TD-HF/TD-DFT) =  -3007.31335998
 Copying the excited state density for this state as the 1-particle RhoCI density.

 Excited State   2:      Singlet-A      1.7556 eV  706.23 nm  f=0.2797  <S**2>=0.000
     243 -> 247       -0.10660
     245 -> 248       -0.15730
     246 -> 247        0.68170
     246 <- 247       -0.15830

 Excited State   3:      Singlet-A      1.8467 eV  671.38 nm  f=0.0563  <S**2>=0.000
     243 -> 247        0.48148
     245 -> 247        0.47488
     246 -> 247        0.14530
     246 -> 248        0.10642

 Excited State   4:      Singlet-A      2.0102 eV  616.78 nm  f=0.0455  <S**2>=0.000
     243 -> 247        0.49958
     245 -> 247       -0.44014
     246 -> 248       -0.18255

 Excited State   5:      Singlet-A      2.3149 eV  535.60 nm  f=0.0009  <S**2>=0.000
     241 -> 247        0.69377
     242 -> 247       -0.13503

 The electronic state is 1-A.
 Alpha  occ. eigenvalues --  -46.29273 -18.82902 -18.81958 -18.77477 -18.76618
 Alpha  occ. eigenvalues --  -18.76242 -18.75625 -14.03971 -14.03525 -14.01663
 Alpha  occ. eigenvalues --  -14.01297 -10.04584 -10.03809 -10.00330 -10.00032
 Alpha  occ. eigenvalues --   -9.98155  -9.97588  -9.97570  -9.97565  -9.96882
 Alpha  occ. eigenvalues --   -9.96691  -9.96674  -9.96579  -9.95920  -9.95080
 Alpha  occ. eigenvalues --   -9.94923  -9.94840  -9.94403  -9.94384  -9.94204
 Alpha  occ. eigenvalues --   -9.94160  -9.93976  -9.93871  -9.93716  -9.93670
 Alpha  occ. eigenvalues --   -9.93629  -9.93624  -9.93568  -9.93410  -9.93400
 Alpha  occ. eigenvalues --   -9.93145  -9.93036  -9.92835  -9.92813  -9.92420
 Alpha  occ. eigenvalues --   -9.92384  -9.92059  -9.92032  -9.91998  -9.91839
 Alpha  occ. eigenvalues --   -9.91735  -9.91695  -9.91665  -9.91636  -9.91590
 Alpha  occ. eigenvalues --   -9.91452  -9.91170  -9.90792  -9.90735  -9.90688
 Alpha  occ. eigenvalues --   -9.90658  -9.90653  -9.90518  -9.90502  -9.90471
 Alpha  occ. eigenvalues --   -9.90235  -2.93609  -1.73995  -1.73508  -1.73326
 Alpha  occ. eigenvalues --   -0.97274  -0.97272  -0.91332  -0.91262  -0.89933
 Alpha  occ. eigenvalues --   -0.89558  -0.87438  -0.85846  -0.85638  -0.84825
 Alpha  occ. eigenvalues --   -0.76746  -0.73454  -0.73169  -0.72728  -0.72333
 Alpha  occ. eigenvalues --   -0.71941  -0.71514  -0.71406  -0.70872  -0.69755
 Alpha  occ. eigenvalues --   -0.69551  -0.69111  -0.68265  -0.67994  -0.67540
 Alpha  occ. eigenvalues --   -0.66544  -0.65908  -0.65152  -0.65000  -0.64567
 Alpha  occ. eigenvalues --   -0.64383  -0.62923  -0.62377  -0.61764  -0.61161
 Alpha  occ. eigenvalues --   -0.60660  -0.60217  -0.59968  -0.59230  -0.58887
 Alpha  occ. eigenvalues --   -0.58689  -0.58104  -0.57447  -0.56274  -0.54631
 Alpha  occ. eigenvalues --   -0.54394  -0.53816  -0.52891  -0.52070  -0.51832
 Alpha  occ. eigenvalues --   -0.51534  -0.51113  -0.51031  -0.50704  -0.49828
 Alpha  occ. eigenvalues --   -0.49679  -0.49467  -0.49124  -0.48444  -0.46935
 Alpha  occ. eigenvalues --   -0.46621  -0.46356  -0.45491  -0.45050  -0.44781
 Alpha  occ. eigenvalues --   -0.44359  -0.43743  -0.43556  -0.42816  -0.42785
 Alpha  occ. eigenvalues --   -0.42238  -0.41898  -0.41769  -0.41734  -0.41323
 Alpha  occ. eigenvalues --   -0.41055  -0.40737  -0.40569  -0.40313  -0.40004
 Alpha  occ. eigenvalues --   -0.39786  -0.39654  -0.39338  -0.39316  -0.39027
 Alpha  occ. eigenvalues --   -0.38977  -0.38788  -0.38661  -0.38404  -0.38201
 Alpha  occ. eigenvalues --   -0.38051  -0.37574  -0.37518  -0.37407  -0.37290
 Alpha  occ. eigenvalues --   -0.37124  -0.36855  -0.36585  -0.36404  -0.36188
 Alpha  occ. eigenvalues --   -0.36055  -0.35940  -0.35913  -0.35806  -0.35561
 Alpha  occ. eigenvalues --   -0.35327  -0.35048  -0.34982  -0.34757  -0.34620
 Alpha  occ. eigenvalues --   -0.34609  -0.34427  -0.34207  -0.34152  -0.33970
 Alpha  occ. eigenvalues --   -0.33914  -0.33781  -0.33606  -0.33529  -0.33218
 Alpha  occ. eigenvalues --   -0.33103  -0.32973  -0.32785  -0.32712  -0.32427
 Alpha  occ. eigenvalues --   -0.32189  -0.32085  -0.32075  -0.31717  -0.31626
 Alpha  occ. eigenvalues --   -0.31406  -0.31343  -0.31251  -0.30944  -0.30855
 Alpha  occ. eigenvalues --   -0.30671  -0.30596  -0.30383  -0.30253  -0.30079
 Alpha  occ. eigenvalues --   -0.29917  -0.29848  -0.29770  -0.29616  -0.29449
 Alpha  occ. eigenvalues --   -0.29051  -0.28682  -0.28175  -0.27920  -0.27593
 Alpha  occ. eigenvalues --   -0.27546  -0.27011  -0.26947  -0.26843  -0.26598
 Alpha  occ. eigenvalues --   -0.26445  -0.26340  -0.26027  -0.25674  -0.25257
 Alpha  occ. eigenvalues --   -0.25165  -0.24510  -0.24331  -0.24068  -0.23767
 Alpha  occ. eigenvalues --   -0.23455  -0.22957  -0.22224  -0.22122  -0.21179
 Alpha  occ. eigenvalues --   -0.20879  -0.20745  -0.19273  -0.18326  -0.17897
 Alpha  occ. eigenvalues --   -0.16393
 Alpha virt. eigenvalues --   -0.12373  -0.07530  -0.06665  -0.05358  -0.04502
 Alpha virt. eigenvalues --   -0.03441  -0.02729  -0.02415  -0.02004  -0.00076
 Alpha virt. eigenvalues --    0.00737   0.01677   0.01983   0.02309   0.03383

 Mulliken charges:
               1
     1  Mg   0.670764
     2  C   -0.018953
     3  C   -0.041846
     4  C   -0.030353
     5  C   -0.050975
     6  N   -0.167211
     7  C   -0.124728
     8  C    0.015557
     9  C    0.024309
    10  C   -0.033225
    11  C    0.139490
    12  C    0.141364
    13  C    0.109529
    14  C    0.086311
    15  O   -0.195045
    16  O   -0.287396
    17  N   -0.279051
    18  C    0.130499
    19  C   -0.110899
    20  C    0.012386
    21  C    0.146181
    22  C    0.161062
    23  C   -0.081490
    24  O   -0.157127
    25  C    0.117997
    26  N   -0.276617
    27  C    0.006605
    28  C   -0.008061
    29  C    0.035409
    30  C    0.070437
    31  C    0.104374
    32  C    0.100581
    33  C    0.071054
    34  N   -0.250754
    35  C    0.074870
    36  C   -0.185648
    37  C    0.110054
    38  C    0.115675
    39  C    0.161165
    40  C   -0.071170
    41  O   -0.140286
    42  C    0.082429
    43  C    0.127217
    44  O   -0.174168
    45  O   -0.292973
    46  C    0.210379
    47  C    0.306705
    48  C   -0.068475
    49  C   -0.119666
    50  C    0.146356
    51  C    0.117426
    52  C    0.071959
    53  C    0.040578
    54  C   -0.078636
    55  C    0.120818
    56  C    0.099720
    57  C    0.089912
    58  C    0.086512
    59  C   -0.062073
    60  C    0.139700
    61  C    0.090254
    62  C    0.056478
    63  C    0.128812
    64  C   -0.104647
    65  C    0.093230
    66  C    0.117149
    67  H   -0.053855
    68  H   -0.071391
    69  H   -0.056645
    70  H   -0.019186
    71  H   -0.023982
    72  H   -0.005494
    73  H    0.000320
    74  H   -0.013865
    75  H    0.005634
    76  H   -0.020615
    77  H    0.009208
    78  H    0.005314
    79  H    0.002198
    80  H   -0.012221
    81  H   -0.006824
    82  H    0.014737
    83  H    0.009609
    84  H   -0.002259
    85  H   -0.020561
    86  H   -0.039285
    87  H   -0.012976
    88  H   -0.012796
    89  H   -0.006340
    90  H   -0.013910
    91  H   -0.026686
    92  H   -0.008612
    93  H   -0.004502
    94  H   -0.006526
    95  H    0.015836
    96  H    0.018729
    97  H   -0.003190
    98  H   -0.004421
    99  H    0.027348
   100  H    0.012231
   101  H   -0.001094
   102  H    0.004843
   103  H   -0.010310
   104  H   -0.032873
   105  H    0.002571
   106  H   -0.024226
   107  H   -0.000808
   108  H   -0.044728
   109  H   -0.014817
   110  H    0.000737
   111  H   -0.018669
   112  H   -0.041554
   113  H   -0.024621
   114  H   -0.034609
   115  H   -0.027300
   116  H   -0.022264
   117  H   -0.019654
   118  H   -0.041758
   119  H   -0.021068
   120  H   -0.025157
   121  H   -0.039667
   122  H   -0.031834
   123  H   -0.056309
   124  H   -0.042989
   125  H   -0.027401
   126  H   -0.021904
   127  H   -0.002454
   128  H   -0.036672
   129  H   -0.044421
   130  H   -0.040509
   131  H   -0.037490
   132  H   -0.032118
   133  H   -0.024616
   134  H   -0.037682
   135  H   -0.027530
   136  H   -0.018428
   137  H   -0.012642
   138  H   -0.031686
   139  H   -0.011863
   140  H   -0.019280
 Sum of Mulliken charges =  -0.00000

 Dipole moment (field-independent basis, Debye):
    X=             -0.3112    Y=              5.2986    Z=             -0.8974  Tot=              5.3831
 Quadrupole moment (field-independent basis, Debye-Ang):
   XX=           -393.1566   YY=           -440.7127   ZZ=           -401.6995
   XY=            -45.0865   XZ=            -16.1315   YZ=            -28.0022

 Normal termination of Gaussian 16 at Wed May  4 10:22:52 2022.
