 Gaussian 16, Revision A.03,
 Gaussian 16:  ES64L-G16RevA.03 25-Dec-2016

 -----------------------------------
 #p cam-b3lyp/Def2SVP td=(nstates=5)
 -----------------------------------

 --------------------------------------------------------
 step_1551_chromophore_26 TDDFT with cam-b3lyp functional
 --------------------------------------------------------
 Symbolic Z-matrix:
 Charge =  0 Multiplicity = 1

                         Standard orientation:
 ---------------------------------------------------------------------
 Center     Atomic      Atomic             Coordinates (Angstroms)
 Number     Number       Type             X           Y           Z
 ---------------------------------------------------------------------
      1         12           0       -4.074067    1.501588    0.447253
      2          6           0       -5.088580   -1.904273    0.142619
      3          6           0       -2.196158    0.410610    3.183206
      4          6           0       -2.680402    4.481894    0.622523
      5          6           0       -5.328218    2.013889   -2.757721
      6          7           0       -3.715960   -0.500382    1.481421
      7          6           0       -4.221398   -1.724363    1.187636
      8          6           0       -3.804700   -2.787458    2.181322
      9          6           0       -2.965848   -1.960334    3.237358
     10          6           0       -2.901133   -0.613550    2.548937
     11          6           0       -3.469929   -1.948956    4.709453
     12          6           0       -3.126086   -4.093399    1.591057
     13          6           0       -2.208741   -3.848146    0.352079
     14          6           0       -1.002157   -4.661714    0.123580
     15          8           0       -0.760534   -5.703326    0.721001
     16          8           0       -0.162217   -4.021077   -0.753969
     17          7           0       -2.706307    2.416731    1.854414
     18          6           0       -2.030576    1.817287    2.933648
     19          6           0       -1.286566    2.825016    3.582420
     20          6           0       -1.426955    4.072836    2.891666
     21          6           0       -2.279326    3.680475    1.712554
     22          6           0       -0.568860    2.506661    4.904217
     23          6           0       -0.669898    5.354691    3.253784
     24          8           0        0.153336    5.456889    4.155151
     25          6           0       -0.920826    6.673862    2.451962
     26          7           0       -3.629574    2.861106   -1.102470
     27          6           0       -3.287466    4.145590   -0.591787
     28          6           0       -3.680072    5.214151   -1.665777
     29          6           0       -4.073239    4.272483   -2.887653
     30          6           0       -4.394592    2.957325   -2.226853
     31          6           0       -4.861676    6.100770   -1.117952
     32          6           0       -2.887911    4.068426   -3.903708
     33          6           0       -3.233983    4.175975   -5.391146
     34          7           0       -5.062647    0.325961   -1.087131
     35          6           0       -5.650998    0.709855   -2.309534
     36          6           0       -6.434811   -0.472202   -2.784724
     37          6           0       -6.159452   -1.510802   -1.882357
     38          6           0       -5.370902   -0.962078   -0.844434
     39          6           0       -7.277767   -0.583796   -4.095979
     40          6           0       -6.411396   -2.891214   -1.636612
     41          8           0       -6.855872   -3.791491   -2.356318
     42          6           0       -5.742170   -3.206577   -0.268786
     43          6           0       -6.825759   -3.641391    0.639830
     44          8           0       -6.923545   -4.788304    1.092356
     45          8           0       -7.673524   -2.560308    0.996230
     46          6           0       -8.748312   -2.954969    1.874793
     47          6           0        1.187177   -4.659598   -0.857837
     48          6           0        2.016161   -3.838394   -1.873673
     49          6           0        3.170207   -3.182744   -1.637680
     50          6           0        3.969360   -3.134342   -0.364651
     51          6           0        3.831002   -2.321911   -2.746855
     52          6           0        3.998713   -0.802940   -2.435703
     53          6           0        5.497343   -0.416986   -2.507917
     54          6           0        5.744489    0.940849   -1.636342
     55          6           0        5.455639    2.197788   -2.370605
     56          6           0        7.184060    1.016174   -1.046503
     57          6           0        7.235226    0.629605    0.465978
     58          6           0        8.065042   -0.661164    0.620470
     59          6           0        9.572729   -0.494502    1.075287
     60          6           0       10.112516   -1.557241    2.038021
     61          6           0       10.485459   -0.474866   -0.135204
     62          6           0       11.793743    0.249976    0.100256
     63          6           0       12.946966   -0.271679   -0.746111
     64          6           0       14.283744   -0.278696    0.019939
     65          6           0       14.757065    1.158375    0.245930
     66          6           0       15.404688   -1.150027   -0.634829
     67          1           0       -1.567826   -0.039264    3.954478
     68          1           0       -2.412851    5.539228    0.579673
     69          1           0       -5.745214    2.154442   -3.757477
     70          1           0       -4.755937   -3.051404    2.643341
     71          1           0       -1.957496   -2.372720    3.186994
     72          1           0       -3.552664   -0.923142    5.069243
     73          1           0       -2.858202   -2.504660    5.419453
     74          1           0       -4.478068   -2.359788    4.754435
     75          1           0       -3.933256   -4.823682    1.534857
     76          1           0       -2.519346   -4.474391    2.412431
     77          1           0       -1.847498   -2.819189    0.330499
     78          1           0       -2.829031   -3.890742   -0.542849
     79          1           0        0.407415    2.031515    4.814479
     80          1           0       -1.220112    1.937303    5.567585
     81          1           0       -0.381543    3.416443    5.474594
     82          1           0       -1.996688    6.848066    2.435016
     83          1           0       -0.568165    6.365952    1.467667
     84          1           0       -0.321662    7.511097    2.811463
     85          1           0       -2.869581    5.898331   -1.914557
     86          1           0       -4.952276    4.733815   -3.337165
     87          1           0       -4.657815    7.169706   -1.045603
     88          1           0       -5.086299    5.857093   -0.080747
     89          1           0       -5.794891    6.045935   -1.678748
     90          1           0       -2.469640    3.089992   -3.669207
     91          1           0       -2.028743    4.722398   -3.754391
     92          1           0       -3.010060    3.216895   -5.857864
     93          1           0       -2.562895    4.925808   -5.811047
     94          1           0       -4.279794    4.375615   -5.627434
     95          1           0       -8.061773   -1.292857   -3.831657
     96          1           0       -6.597733   -1.013150   -4.831513
     97          1           0       -7.686929    0.367814   -4.435720
     98          1           0       -5.010011   -4.007260   -0.378356
     99          1           0       -8.799261   -3.912435    2.393403
    100          1           0       -9.710223   -2.810636    1.383125
    101          1           0       -8.665354   -2.206861    2.662733
    102          1           0        1.083697   -5.691408   -1.193333
    103          1           0        1.609035   -4.689361    0.146922
    104          1           0        1.540230   -3.698165   -2.843975
    105          1           0        5.048964   -3.256527   -0.460745
    106          1           0        3.595102   -3.883151    0.332447
    107          1           0        3.838446   -2.198700    0.178349
    108          1           0        3.221461   -2.268743   -3.649374
    109          1           0        4.735443   -2.835602   -3.073598
    110          1           0        3.532513   -0.501942   -1.497025
    111          1           0        3.726948   -0.278034   -3.352167
    112          1           0        5.711534   -0.181396   -3.550198
    113          1           0        6.154470   -1.271297   -2.341146
    114          1           0        5.027610    0.909584   -0.815846
    115          1           0        6.331505    2.783491   -2.648888
    116          1           0        5.007566    2.896474   -1.663842
    117          1           0        4.871055    2.021947   -3.274013
    118          1           0        7.628604    1.991335   -1.246220
    119          1           0        7.744339    0.347498   -1.699541
    120          1           0        6.271698    0.522198    0.963145
    121          1           0        7.744372    1.412240    1.029353
    122          1           0        7.999845   -1.199840   -0.325663
    123          1           0        7.505276   -1.267781    1.333256
    124          1           0        9.609339    0.501207    1.518283
    125          1           0        9.240144   -1.989542    2.528133
    126          1           0       10.603997   -1.032257    2.857501
    127          1           0       10.821946   -2.268312    1.615654
    128          1           0       10.049802   -0.102428   -1.062537
    129          1           0       10.716852   -1.524194   -0.319796
    130          1           0       12.026096    0.287781    1.164273
    131          1           0       11.625745    1.305633   -0.112494
    132          1           0       12.940023    0.529864   -1.485234
    133          1           0       12.912689   -1.292561   -1.125030
    134          1           0       14.066379   -0.702043    1.000234
    135          1           0       15.797421    1.246205    0.557941
    136          1           0       14.299970    1.632469    1.114318
    137          1           0       14.610760    1.706132   -0.686243
    138          1           0       15.011510   -1.717094   -1.478213
    139          1           0       15.818548   -1.881564    0.058670
    140          1           0       16.202766   -0.534894   -1.050331
 ---------------------------------------------------------------------

 SCF Done:  E(RCAM-B3LYP) =  -3007.15732492     A.U. after   17 cycles

 Excitation energies and oscillator strengths:

 Excited State   1:      Singlet-A      1.6342 eV  758.67 nm  f=0.3830  <S**2>=0.000
     245 -> 248       -0.16428
     246 -> 247        0.68925
     245 <- 248       -0.10487
 This state for optimization and/or second-order correction.
 Total Energy, E(TD-HF/TD-DFT) =  -3007.09726824
 Copying the excited state density for this state as the 1-particle RhoCI density.

 Excited State   2:      Singlet-A      2.1864 eV  567.06 nm  f=0.1030  <S**2>=0.000
     245 -> 247        0.64335
     246 -> 248        0.27361

 Excited State   3:      Singlet-A      3.2502 eV  381.47 nm  f=0.0015  <S**2>=0.000
     243 -> 247       -0.26503
     244 -> 247        0.62966

 Excited State   4:      Singlet-A      3.3452 eV  370.64 nm  f=0.0393  <S**2>=0.000
     239 -> 247       -0.13487
     240 -> 247       -0.29154
     240 -> 249       -0.16380
     242 -> 247        0.27188
     243 -> 247       -0.32257
     244 -> 247       -0.16406
     246 -> 248        0.32886

 Excited State   5:      Singlet-A      3.4254 eV  361.95 nm  f=0.0119  <S**2>=0.000
     239 -> 247        0.18534
     240 -> 247        0.43233
     240 -> 249        0.22948
     240 -> 250       -0.11560
     242 -> 247        0.19223
     243 -> 247       -0.30461
     246 -> 248        0.16635

 The electronic state is 1-A.
 Alpha  occ. eigenvalues --  -46.90961 -19.25965 -19.24842 -19.20811 -19.19672
 Alpha  occ. eigenvalues --  -19.19555 -19.18678 -14.43007 -14.42280 -14.40120
 Alpha  occ. eigenvalues --  -14.39787 -10.40328 -10.39056 -10.35559 -10.35441
 Alpha  occ. eigenvalues --  -10.32309 -10.32154 -10.32138 -10.31514 -10.31314
 Alpha  occ. eigenvalues --  -10.31213 -10.31103 -10.30982 -10.30035 -10.29779
 Alpha  occ. eigenvalues --  -10.29337 -10.28856 -10.28732 -10.28466 -10.28442
 Alpha  occ. eigenvalues --  -10.28357 -10.28113 -10.28026 -10.27909 -10.27811
 Alpha  occ. eigenvalues --  -10.27797 -10.27663 -10.27620 -10.27588 -10.27387
 Alpha  occ. eigenvalues --  -10.27015 -10.26724 -10.26532 -10.26519 -10.26319
 Alpha  occ. eigenvalues --  -10.26052 -10.26036 -10.25924 -10.25695 -10.25636
 Alpha  occ. eigenvalues --  -10.25487 -10.25466 -10.25441 -10.25345 -10.25287
 Alpha  occ. eigenvalues --  -10.25177 -10.24811 -10.24456 -10.24329 -10.24298
 Alpha  occ. eigenvalues --  -10.24283 -10.24276 -10.24125 -10.24050 -10.24045
 Alpha  occ. eigenvalues --  -10.23847  -3.19183  -1.94052  -1.93648  -1.93472
 Alpha  occ. eigenvalues --   -1.15905  -1.15705  -1.09846  -1.09589  -1.08044
 Alpha  occ. eigenvalues --   -1.07380  -1.05265  -1.03496  -1.03218  -1.02332
 Alpha  occ. eigenvalues --   -0.94059  -0.90292  -0.89976  -0.89468  -0.89049
 Alpha  occ. eigenvalues --   -0.88623  -0.88129  -0.87961  -0.87448  -0.86285
 Alpha  occ. eigenvalues --   -0.85976  -0.85538  -0.84547  -0.84226  -0.83715
 Alpha  occ. eigenvalues --   -0.82606  -0.81938  -0.80951  -0.80901  -0.80528
 Alpha  occ. eigenvalues --   -0.80191  -0.78577  -0.77898  -0.77331  -0.76654
 Alpha  occ. eigenvalues --   -0.76000  -0.75509  -0.75315  -0.74482  -0.74075
 Alpha  occ. eigenvalues --   -0.73851  -0.73155  -0.72355  -0.71098  -0.69377
 Alpha  occ. eigenvalues --   -0.68957  -0.68400  -0.67300  -0.66371  -0.66027
 Alpha  occ. eigenvalues --   -0.65600  -0.65205  -0.65014  -0.64845  -0.63827
 Alpha  occ. eigenvalues --   -0.63514  -0.63464  -0.62879  -0.62325  -0.60619
 Alpha  occ. eigenvalues --   -0.60132  -0.59802  -0.58939  -0.58450  -0.58287
 Alpha  occ. eigenvalues --   -0.57742  -0.57162  -0.56885  -0.56128  -0.55864
 Alpha  occ. eigenvalues --   -0.55201  -0.55149  -0.54818  -0.54557  -0.54215
 Alpha  occ. eigenvalues --   -0.53931  -0.53778  -0.53412  -0.53240  -0.52837
 Alpha  occ. eigenvalues --   -0.52550  -0.52193  -0.51884  -0.51734  -0.51671
 Alpha  occ. eigenvalues --   -0.51535  -0.51363  -0.51303  -0.51153  -0.50559
 Alpha  occ. eigenvalues --   -0.50333  -0.49907  -0.49771  -0.49629  -0.49557
 Alpha  occ. eigenvalues --   -0.49417  -0.49288  -0.48951  -0.48620  -0.48456
 Alpha  occ. eigenvalues --   -0.48283  -0.48184  -0.47985  -0.47905  -0.47742
 Alpha  occ. eigenvalues --   -0.47570  -0.47049  -0.46836  -0.46707  -0.46645
 Alpha  occ. eigenvalues --   -0.46502  -0.46245  -0.46175  -0.45921  -0.45832
 Alpha  occ. eigenvalues --   -0.45756  -0.45692  -0.45272  -0.45109  -0.45025
 Alpha  occ. eigenvalues --   -0.44833  -0.44665  -0.44459  -0.44379  -0.44039
 Alpha  occ. eigenvalues --   -0.43686  -0.43647  -0.43509  -0.43395  -0.43303
 Alpha  occ. eigenvalues --   -0.43145  -0.42873  -0.42726  -0.42574  -0.42284
 Alpha  occ. eigenvalues --   -0.42057  -0.41995  -0.41918  -0.41636  -0.41341
 Alpha  occ. eigenvalues --   -0.41222  -0.41055  -0.41012  -0.40733  -0.40575
 Alpha  occ. eigenvalues --   -0.40096  -0.39656  -0.39237  -0.38870  -0.38473
 Alpha  occ. eigenvalues --   -0.38455  -0.37922  -0.37740  -0.37595  -0.37482
 Alpha  occ. eigenvalues --   -0.37345  -0.37046  -0.37030  -0.36799  -0.36731
 Alpha  occ. eigenvalues --   -0.36356  -0.35234  -0.34790  -0.34707  -0.34594
 Alpha  occ. eigenvalues --   -0.34157  -0.33792  -0.33702  -0.31932  -0.31469
 Alpha  occ. eigenvalues --   -0.30791  -0.30622  -0.30435  -0.29870  -0.24858
 Alpha  occ. eigenvalues --   -0.21627
 Alpha virt. eigenvalues --   -0.09605  -0.02280  -0.00394   0.00376   0.01804
 Alpha virt. eigenvalues --    0.04158   0.04818   0.04931   0.05874   0.06834
 Alpha virt. eigenvalues --    0.07370   0.08084   0.08587   0.08656   0.09603

 Mulliken charges:
               1
     1  Mg   0.798582
     2  C   -0.047579
     3  C   -0.052693
     4  C   -0.057628
     5  C   -0.062446
     6  N   -0.232981
     7  C   -0.081856
     8  C   -0.025432
     9  C   -0.035821
    10  C   -0.010563
    11  C    0.078825
    12  C    0.084419
    13  C    0.033130
    14  C    0.173148
    15  O   -0.237208
    16  O   -0.351053
    17  N   -0.362241
    18  C    0.127867
    19  C   -0.116834
    20  C   -0.053827
    21  C    0.174488
    22  C    0.106734
    23  C   -0.005088
    24  O   -0.199145
    25  C    0.040933
    26  N   -0.345298
    27  C    0.027452
    28  C   -0.062457
    29  C   -0.022934
    30  C    0.089188
    31  C    0.047469
    32  C    0.047991
    33  C    0.007608
    34  N   -0.336519
    35  C    0.080536
    36  C   -0.179086
    37  C    0.028019
    38  C    0.158334
    39  C    0.116692
    40  C    0.026732
    41  O   -0.175760
    42  C   -0.000939
    43  C    0.219296
    44  O   -0.211990
    45  O   -0.353589
    46  C    0.169132
    47  C    0.272563
    48  C   -0.091240
    49  C   -0.142456
    50  C    0.086501
    51  C    0.063257
    52  C    0.009885
    53  C   -0.004459
    54  C   -0.128695
    55  C    0.060064
    56  C    0.046836
    57  C    0.032950
    58  C    0.037516
    59  C   -0.118412
    60  C    0.077298
    61  C    0.039641
    62  C    0.005225
    63  C    0.070651
    64  C   -0.162661
    65  C    0.031948
    66  C    0.056124
    67  H   -0.017559
    68  H   -0.036678
    69  H   -0.023879
    70  H    0.015306
    71  H    0.010768
    72  H    0.020308
    73  H    0.025299
    74  H    0.010955
    75  H    0.035161
    76  H    0.013846
    77  H    0.042441
    78  H    0.034568
    79  H    0.029025
    80  H    0.012782
    81  H    0.024357
    82  H    0.039329
    83  H    0.033493
    84  H    0.032182
    85  H    0.014262
    86  H   -0.003497
    87  H    0.011944
    88  H    0.012888
    89  H    0.017922
    90  H    0.016688
    91  H    0.002459
    92  H    0.015288
    93  H    0.018683
    94  H    0.015516
    95  H    0.041029
    96  H    0.044654
    97  H    0.021166
    98  H    0.038310
    99  H    0.053714
   100  H    0.033807
   101  H    0.021496
   102  H    0.034197
   103  H    0.018749
   104  H    0.002536
   105  H    0.025934
   106  H    0.000297
   107  H    0.022587
   108  H   -0.012627
   109  H    0.013539
   110  H    0.026842
   111  H    0.009885
   112  H   -0.012967
   113  H   -0.000576
   114  H   -0.005132
   115  H   -0.002467
   116  H    0.003594
   117  H    0.004216
   118  H   -0.011057
   119  H    0.003235
   120  H    0.003213
   121  H   -0.009956
   122  H   -0.007084
   123  H   -0.025978
   124  H   -0.011641
   125  H   -0.001263
   126  H    0.002767
   127  H    0.020645
   128  H   -0.008639
   129  H   -0.016348
   130  H   -0.013481
   131  H   -0.008749
   132  H   -0.003499
   133  H    0.003307
   134  H   -0.006313
   135  H   -0.001209
   136  H    0.005824
   137  H    0.009970
   138  H   -0.006608
   139  H    0.012590
   140  H    0.005486
 Sum of Mulliken charges =  -0.00000

 Dipole moment (field-independent basis, Debye):
    X=             -0.4977    Y=              5.5347    Z=             -0.9093  Tot=              5.6310
 Quadrupole moment (field-independent basis, Debye-Ang):
   XX=           -390.1557   YY=           -438.8833   ZZ=           -400.1534
   XY=            -45.3750   XZ=            -16.1082   YZ=            -29.0455

 Normal termination of Gaussian 16 at Wed May  4 09:25:23 2022.
