 Gaussian 16, Revision A.03,
 Gaussian 16:  ES64L-G16RevA.03 25-Dec-2016

 ---------------------------------
 #p PBE1PBE/Def2SVP td=(nstates=5)
 ---------------------------------

 ------------------------------------------------------
 step_1551_chromophore_26 TDDFT with PBE1PBE functional
 ------------------------------------------------------
 Symbolic Z-matrix:
 Charge =  0 Multiplicity = 1

                         Standard orientation:
 ---------------------------------------------------------------------
 Center     Atomic      Atomic             Coordinates (Angstroms)
 Number     Number       Type             X           Y           Z
 ---------------------------------------------------------------------
      1         12           0       -4.074067    1.501588    0.447253
      2          6           0       -5.088580   -1.904273    0.142619
      3          6           0       -2.196158    0.410610    3.183206
      4          6           0       -2.680402    4.481894    0.622523
      5          6           0       -5.328218    2.013889   -2.757721
      6          7           0       -3.715960   -0.500382    1.481421
      7          6           0       -4.221398   -1.724363    1.187636
      8          6           0       -3.804700   -2.787458    2.181322
      9          6           0       -2.965848   -1.960334    3.237358
     10          6           0       -2.901133   -0.613550    2.548937
     11          6           0       -3.469929   -1.948956    4.709453
     12          6           0       -3.126086   -4.093399    1.591057
     13          6           0       -2.208741   -3.848146    0.352079
     14          6           0       -1.002157   -4.661714    0.123580
     15          8           0       -0.760534   -5.703326    0.721001
     16          8           0       -0.162217   -4.021077   -0.753969
     17          7           0       -2.706307    2.416731    1.854414
     18          6           0       -2.030576    1.817287    2.933648
     19          6           0       -1.286566    2.825016    3.582420
     20          6           0       -1.426955    4.072836    2.891666
     21          6           0       -2.279326    3.680475    1.712554
     22          6           0       -0.568860    2.506661    4.904217
     23          6           0       -0.669898    5.354691    3.253784
     24          8           0        0.153336    5.456889    4.155151
     25          6           0       -0.920826    6.673862    2.451962
     26          7           0       -3.629574    2.861106   -1.102470
     27          6           0       -3.287466    4.145590   -0.591787
     28          6           0       -3.680072    5.214151   -1.665777
     29          6           0       -4.073239    4.272483   -2.887653
     30          6           0       -4.394592    2.957325   -2.226853
     31          6           0       -4.861676    6.100770   -1.117952
     32          6           0       -2.887911    4.068426   -3.903708
     33          6           0       -3.233983    4.175975   -5.391146
     34          7           0       -5.062647    0.325961   -1.087131
     35          6           0       -5.650998    0.709855   -2.309534
     36          6           0       -6.434811   -0.472202   -2.784724
     37          6           0       -6.159452   -1.510802   -1.882357
     38          6           0       -5.370902   -0.962078   -0.844434
     39          6           0       -7.277767   -0.583796   -4.095979
     40          6           0       -6.411396   -2.891214   -1.636612
     41          8           0       -6.855872   -3.791491   -2.356318
     42          6           0       -5.742170   -3.206577   -0.268786
     43          6           0       -6.825759   -3.641391    0.639830
     44          8           0       -6.923545   -4.788304    1.092356
     45          8           0       -7.673524   -2.560308    0.996230
     46          6           0       -8.748312   -2.954969    1.874793
     47          6           0        1.187177   -4.659598   -0.857837
     48          6           0        2.016161   -3.838394   -1.873673
     49          6           0        3.170207   -3.182744   -1.637680
     50          6           0        3.969360   -3.134342   -0.364651
     51          6           0        3.831002   -2.321911   -2.746855
     52          6           0        3.998713   -0.802940   -2.435703
     53          6           0        5.497343   -0.416986   -2.507917
     54          6           0        5.744489    0.940849   -1.636342
     55          6           0        5.455639    2.197788   -2.370605
     56          6           0        7.184060    1.016174   -1.046503
     57          6           0        7.235226    0.629605    0.465978
     58          6           0        8.065042   -0.661164    0.620470
     59          6           0        9.572729   -0.494502    1.075287
     60          6           0       10.112516   -1.557241    2.038021
     61          6           0       10.485459   -0.474866   -0.135204
     62          6           0       11.793743    0.249976    0.100256
     63          6           0       12.946966   -0.271679   -0.746111
     64          6           0       14.283744   -0.278696    0.019939
     65          6           0       14.757065    1.158375    0.245930
     66          6           0       15.404688   -1.150027   -0.634829
     67          1           0       -1.567826   -0.039264    3.954478
     68          1           0       -2.412851    5.539228    0.579673
     69          1           0       -5.745214    2.154442   -3.757477
     70          1           0       -4.755937   -3.051404    2.643341
     71          1           0       -1.957496   -2.372720    3.186994
     72          1           0       -3.552664   -0.923142    5.069243
     73          1           0       -2.858202   -2.504660    5.419453
     74          1           0       -4.478068   -2.359788    4.754435
     75          1           0       -3.933256   -4.823682    1.534857
     76          1           0       -2.519346   -4.474391    2.412431
     77          1           0       -1.847498   -2.819189    0.330499
     78          1           0       -2.829031   -3.890742   -0.542849
     79          1           0        0.407415    2.031515    4.814479
     80          1           0       -1.220112    1.937303    5.567585
     81          1           0       -0.381543    3.416443    5.474594
     82          1           0       -1.996688    6.848066    2.435016
     83          1           0       -0.568165    6.365952    1.467667
     84          1           0       -0.321662    7.511097    2.811463
     85          1           0       -2.869581    5.898331   -1.914557
     86          1           0       -4.952276    4.733815   -3.337165
     87          1           0       -4.657815    7.169706   -1.045603
     88          1           0       -5.086299    5.857093   -0.080747
     89          1           0       -5.794891    6.045935   -1.678748
     90          1           0       -2.469640    3.089992   -3.669207
     91          1           0       -2.028743    4.722398   -3.754391
     92          1           0       -3.010060    3.216895   -5.857864
     93          1           0       -2.562895    4.925808   -5.811047
     94          1           0       -4.279794    4.375615   -5.627434
     95          1           0       -8.061773   -1.292857   -3.831657
     96          1           0       -6.597733   -1.013150   -4.831513
     97          1           0       -7.686929    0.367814   -4.435720
     98          1           0       -5.010011   -4.007260   -0.378356
     99          1           0       -8.799261   -3.912435    2.393403
    100          1           0       -9.710223   -2.810636    1.383125
    101          1           0       -8.665354   -2.206861    2.662733
    102          1           0        1.083697   -5.691408   -1.193333
    103          1           0        1.609035   -4.689361    0.146922
    104          1           0        1.540230   -3.698165   -2.843975
    105          1           0        5.048964   -3.256527   -0.460745
    106          1           0        3.595102   -3.883151    0.332447
    107          1           0        3.838446   -2.198700    0.178349
    108          1           0        3.221461   -2.268743   -3.649374
    109          1           0        4.735443   -2.835602   -3.073598
    110          1           0        3.532513   -0.501942   -1.497025
    111          1           0        3.726948   -0.278034   -3.352167
    112          1           0        5.711534   -0.181396   -3.550198
    113          1           0        6.154470   -1.271297   -2.341146
    114          1           0        5.027610    0.909584   -0.815846
    115          1           0        6.331505    2.783491   -2.648888
    116          1           0        5.007566    2.896474   -1.663842
    117          1           0        4.871055    2.021947   -3.274013
    118          1           0        7.628604    1.991335   -1.246220
    119          1           0        7.744339    0.347498   -1.699541
    120          1           0        6.271698    0.522198    0.963145
    121          1           0        7.744372    1.412240    1.029353
    122          1           0        7.999845   -1.199840   -0.325663
    123          1           0        7.505276   -1.267781    1.333256
    124          1           0        9.609339    0.501207    1.518283
    125          1           0        9.240144   -1.989542    2.528133
    126          1           0       10.603997   -1.032257    2.857501
    127          1           0       10.821946   -2.268312    1.615654
    128          1           0       10.049802   -0.102428   -1.062537
    129          1           0       10.716852   -1.524194   -0.319796
    130          1           0       12.026096    0.287781    1.164273
    131          1           0       11.625745    1.305633   -0.112494
    132          1           0       12.940023    0.529864   -1.485234
    133          1           0       12.912689   -1.292561   -1.125030
    134          1           0       14.066379   -0.702043    1.000234
    135          1           0       15.797421    1.246205    0.557941
    136          1           0       14.299970    1.632469    1.114318
    137          1           0       14.610760    1.706132   -0.686243
    138          1           0       15.011510   -1.717094   -1.478213
    139          1           0       15.818548   -1.881564    0.058670
    140          1           0       16.202766   -0.534894   -1.050331
 ---------------------------------------------------------------------

 SCF Done:  E(RPBE1PBE) =  -3005.34758954     A.U. after   15 cycles

 Excitation energies and oscillator strengths:

 Excited State   1:      Singlet-A      1.7967 eV  690.07 nm  f=0.3676  <S**2>=0.000
     245 -> 248        0.15476
     246 -> 247        0.69766
     246 <- 247       -0.11921
 This state for optimization and/or second-order correction.
 Total Energy, E(TD-HF/TD-DFT) =  -3005.28156218
 Copying the excited state density for this state as the 1-particle RhoCI density.

 Excited State   2:      Singlet-A      2.1774 eV  569.42 nm  f=0.0982  <S**2>=0.000
     245 -> 247        0.65473
     246 -> 248       -0.23912

 Excited State   3:      Singlet-A      2.7793 eV  446.09 nm  f=0.0017  <S**2>=0.000
     244 -> 247        0.68426

 Excited State   4:      Singlet-A      2.9027 eV  427.14 nm  f=0.0002  <S**2>=0.000
     240 -> 247        0.39123
     240 -> 249        0.13300
     241 -> 247       -0.29967
     243 -> 247        0.45781

 Excited State   5:      Singlet-A      2.9775 eV  416.40 nm  f=0.0009  <S**2>=0.000
     240 -> 247       -0.37639
     241 -> 247        0.23236
     243 -> 247        0.52509

 The electronic state is 1-A.
 Alpha  occ. eigenvalues --  -46.94327 -19.26538 -19.25516 -19.20975 -19.19824
 Alpha  occ. eigenvalues --  -19.19796 -19.18981 -14.42403 -14.41897 -14.39797
 Alpha  occ. eigenvalues --  -14.39432 -10.37282 -10.36047 -10.32684 -10.32608
 Alpha  occ. eigenvalues --  -10.29932 -10.29840 -10.29689 -10.29020 -10.28866
 Alpha  occ. eigenvalues --  -10.28786 -10.28757 -10.28684 -10.27872 -10.27438
 Alpha  occ. eigenvalues --  -10.26952 -10.26717 -10.26290 -10.26264 -10.26182
 Alpha  occ. eigenvalues --  -10.26178 -10.25961 -10.25715 -10.25684 -10.25598
 Alpha  occ. eigenvalues --  -10.25448 -10.25254 -10.25237 -10.25122 -10.25095
 Alpha  occ. eigenvalues --  -10.24391 -10.24230 -10.24166 -10.24034 -10.23864
 Alpha  occ. eigenvalues --  -10.23531 -10.23415 -10.23400 -10.23277 -10.23183
 Alpha  occ. eigenvalues --  -10.23064 -10.23058 -10.23004 -10.22977 -10.22925
 Alpha  occ. eigenvalues --  -10.22778 -10.22368 -10.22049 -10.21909 -10.21827
 Alpha  occ. eigenvalues --  -10.21695 -10.21671 -10.21640 -10.21429 -10.21415
 Alpha  occ. eigenvalues --  -10.21383  -3.16140  -1.88945  -1.88522  -1.88349
 Alpha  occ. eigenvalues --   -1.10566  -1.10489  -1.04475  -1.04409  -1.02790
 Alpha  occ. eigenvalues --   -1.02234  -0.99837  -0.98108  -0.97904  -0.96978
 Alpha  occ. eigenvalues --   -0.88357  -0.84384  -0.84083  -0.83691  -0.83372
 Alpha  occ. eigenvalues --   -0.82742  -0.82439  -0.82255  -0.81559  -0.80599
 Alpha  occ. eigenvalues --   -0.80260  -0.79832  -0.78809  -0.78441  -0.77961
 Alpha  occ. eigenvalues --   -0.76767  -0.76194  -0.75294  -0.75095  -0.74730
 Alpha  occ. eigenvalues --   -0.74369  -0.72816  -0.72209  -0.71601  -0.70924
 Alpha  occ. eigenvalues --   -0.70158  -0.69853  -0.69390  -0.68624  -0.68324
 Alpha  occ. eigenvalues --   -0.68121  -0.67521  -0.66798  -0.65418  -0.63818
 Alpha  occ. eigenvalues --   -0.63292  -0.62604  -0.61790  -0.60701  -0.60408
 Alpha  occ. eigenvalues --   -0.60020  -0.59748  -0.59560  -0.59081  -0.58007
 Alpha  occ. eigenvalues --   -0.57975  -0.57573  -0.57401  -0.56502  -0.55142
 Alpha  occ. eigenvalues --   -0.54549  -0.54416  -0.53521  -0.53071  -0.52742
 Alpha  occ. eigenvalues --   -0.52279  -0.51624  -0.51180  -0.50642  -0.50326
 Alpha  occ. eigenvalues --   -0.49771  -0.49665  -0.49372  -0.48882  -0.48754
 Alpha  occ. eigenvalues --   -0.48501  -0.48340  -0.47968  -0.47673  -0.47310
 Alpha  occ. eigenvalues --   -0.47201  -0.46664  -0.46411  -0.46321  -0.46236
 Alpha  occ. eigenvalues --   -0.46120  -0.45865  -0.45777  -0.45667  -0.45091
 Alpha  occ. eigenvalues --   -0.44944  -0.44479  -0.44364  -0.44190  -0.44129
 Alpha  occ. eigenvalues --   -0.44016  -0.43923  -0.43496  -0.43216  -0.43076
 Alpha  occ. eigenvalues --   -0.42883  -0.42810  -0.42675  -0.42557  -0.42339
 Alpha  occ. eigenvalues --   -0.42292  -0.41681  -0.41453  -0.41358  -0.41310
 Alpha  occ. eigenvalues --   -0.41229  -0.41016  -0.40874  -0.40582  -0.40548
 Alpha  occ. eigenvalues --   -0.40452  -0.40394  -0.39896  -0.39781  -0.39726
 Alpha  occ. eigenvalues --   -0.39542  -0.39445  -0.39181  -0.39134  -0.38862
 Alpha  occ. eigenvalues --   -0.38474  -0.38346  -0.38197  -0.38152  -0.38026
 Alpha  occ. eigenvalues --   -0.37905  -0.37750  -0.37465  -0.37455  -0.37107
 Alpha  occ. eigenvalues --   -0.36887  -0.36790  -0.36763  -0.36528  -0.36203
 Alpha  occ. eigenvalues --   -0.36077  -0.35915  -0.35766  -0.35461  -0.35334
 Alpha  occ. eigenvalues --   -0.35010  -0.34473  -0.34178  -0.33644  -0.33422
 Alpha  occ. eigenvalues --   -0.33260  -0.32940  -0.32555  -0.32532  -0.32437
 Alpha  occ. eigenvalues --   -0.32127  -0.32074  -0.31793  -0.31709  -0.31625
 Alpha  occ. eigenvalues --   -0.31106  -0.30097  -0.29923  -0.29750  -0.29460
 Alpha  occ. eigenvalues --   -0.29221  -0.28902  -0.28780  -0.27527  -0.26329
 Alpha  occ. eigenvalues --   -0.26133  -0.26067  -0.25772  -0.25094  -0.21731
 Alpha  occ. eigenvalues --   -0.19313
 Alpha virt. eigenvalues --   -0.12036  -0.05838  -0.04486  -0.02913  -0.02171
 Alpha virt. eigenvalues --   -0.00415   0.00352   0.00445   0.01290   0.03002
 Alpha virt. eigenvalues --    0.03579   0.04469   0.04896   0.05108   0.06325

 Mulliken charges:
               1
     1  Mg   0.934109
     2  C   -0.053585
     3  C   -0.056529
     4  C   -0.055503
     5  C   -0.059967
     6  N   -0.339794
     7  C   -0.003934
     8  C   -0.082177
     9  C   -0.116948
    10  C    0.034992
    11  C    0.020075
    12  C    0.027370
    13  C   -0.048176
    14  C    0.243877
    15  O   -0.270756
    16  O   -0.380456
    17  N   -0.468975
    18  C    0.154561
    19  C   -0.144164
    20  C   -0.092286
    21  C    0.200875
    22  C    0.053216
    23  C    0.044272
    24  O   -0.234138
    25  C   -0.037885
    26  N   -0.429453
    27  C    0.052433
    28  C   -0.139153
    29  C   -0.101351
    30  C    0.110439
    31  C   -0.004019
    32  C   -0.002699
    33  C   -0.063962
    34  N   -0.455048
    35  C    0.103735
    36  C   -0.190417
    37  C   -0.023179
    38  C    0.210043
    39  C    0.063948
    40  C    0.117693
    41  O   -0.222273
    42  C   -0.122273
    43  C    0.310763
    44  O   -0.249156
    45  O   -0.381332
    46  C    0.114991
    47  C    0.230228
    48  C   -0.106570
    49  C   -0.187016
    50  C    0.027057
    51  C    0.007943
    52  C   -0.061138
    53  C   -0.054525
    54  C   -0.211521
    55  C    0.001822
    56  C   -0.007905
    57  C   -0.028599
    58  C   -0.018387
    59  C   -0.206243
    60  C    0.017192
    61  C   -0.017029
    62  C   -0.050978
    63  C    0.011471
    64  C   -0.256780
    65  C   -0.027174
    66  C   -0.003863
    67  H    0.013807
    68  H   -0.003418
    69  H    0.009776
    70  H    0.056803
    71  H    0.049502
    72  H    0.048206
    73  H    0.052222
    74  H    0.038728
    75  H    0.065960
    76  H    0.047067
    77  H    0.075929
    78  H    0.069219
    79  H    0.056659
    80  H    0.039962
    81  H    0.052390
    82  H    0.065741
    83  H    0.060977
    84  H    0.060195
    85  H    0.048830
    86  H    0.032364
    87  H    0.039279
    88  H    0.040681
    89  H    0.044618
    90  H    0.049718
    91  H    0.033830
    92  H    0.043258
    93  H    0.046067
    94  H    0.041837
    95  H    0.068259
    96  H    0.072227
    97  H    0.047068
    98  H    0.076134
    99  H    0.074058
   100  H    0.056150
   101  H    0.043780
   102  H    0.060984
   103  H    0.044803
   104  H    0.032000
   105  H    0.052383
   106  H    0.028921
   107  H    0.049770
   108  H    0.019613
   109  H    0.045086
   110  H    0.057087
   111  H    0.044011
   112  H    0.020630
   113  H    0.030199
   114  H    0.032540
   115  H    0.024738
   116  H    0.031826
   117  H    0.031446
   118  H    0.021053
   119  H    0.034947
   120  H    0.033670
   121  H    0.022796
   122  H    0.027129
   123  H    0.006998
   124  H    0.026700
   125  H    0.027008
   126  H    0.030452
   127  H    0.046421
   128  H    0.025948
   129  H    0.017763
   130  H    0.018019
   131  H    0.024268
   132  H    0.030492
   133  H    0.034083
   134  H    0.032402
   135  H    0.027054
   136  H    0.032944
   137  H    0.037108
   138  H    0.020502
   139  H    0.039842
   140  H    0.032691
 Sum of Mulliken charges =  -0.00000

 Dipole moment (field-independent basis, Debye):
    X=             -0.3903    Y=              5.7449    Z=             -0.8492  Tot=              5.8204
 Quadrupole moment (field-independent basis, Debye-Ang):
   XX=           -388.0860   YY=           -435.6177   ZZ=           -395.8439
   XY=            -46.1367   XZ=            -15.8232   YZ=            -30.1268

 Normal termination of Gaussian 16 at Wed May  4 09:42:10 2022.
