 Gaussian 16, Revision A.03,
 Gaussian 16:  ES64L-G16RevA.03 25-Dec-2016

 --------------------------------
 #p wB97XD/Def2SVP td=(nstates=5)
 --------------------------------

 -----------------------------------------------------
 step_1551_chromophore_26 TDDFT with wB97XD functional
 -----------------------------------------------------
 Symbolic Z-matrix:
 Charge =  0 Multiplicity = 1

                         Standard orientation:
 ---------------------------------------------------------------------
 Center     Atomic      Atomic             Coordinates (Angstroms)
 Number     Number       Type             X           Y           Z
 ---------------------------------------------------------------------
      1         12           0       -4.074067    1.501588    0.447253
      2          6           0       -5.088580   -1.904273    0.142619
      3          6           0       -2.196158    0.410610    3.183206
      4          6           0       -2.680402    4.481894    0.622523
      5          6           0       -5.328218    2.013889   -2.757721
      6          7           0       -3.715960   -0.500382    1.481421
      7          6           0       -4.221398   -1.724363    1.187636
      8          6           0       -3.804700   -2.787458    2.181322
      9          6           0       -2.965848   -1.960334    3.237358
     10          6           0       -2.901133   -0.613550    2.548937
     11          6           0       -3.469929   -1.948956    4.709453
     12          6           0       -3.126086   -4.093399    1.591057
     13          6           0       -2.208741   -3.848146    0.352079
     14          6           0       -1.002157   -4.661714    0.123580
     15          8           0       -0.760534   -5.703326    0.721001
     16          8           0       -0.162217   -4.021077   -0.753969
     17          7           0       -2.706307    2.416731    1.854414
     18          6           0       -2.030576    1.817287    2.933648
     19          6           0       -1.286566    2.825016    3.582420
     20          6           0       -1.426955    4.072836    2.891666
     21          6           0       -2.279326    3.680475    1.712554
     22          6           0       -0.568860    2.506661    4.904217
     23          6           0       -0.669898    5.354691    3.253784
     24          8           0        0.153336    5.456889    4.155151
     25          6           0       -0.920826    6.673862    2.451962
     26          7           0       -3.629574    2.861106   -1.102470
     27          6           0       -3.287466    4.145590   -0.591787
     28          6           0       -3.680072    5.214151   -1.665777
     29          6           0       -4.073239    4.272483   -2.887653
     30          6           0       -4.394592    2.957325   -2.226853
     31          6           0       -4.861676    6.100770   -1.117952
     32          6           0       -2.887911    4.068426   -3.903708
     33          6           0       -3.233983    4.175975   -5.391146
     34          7           0       -5.062647    0.325961   -1.087131
     35          6           0       -5.650998    0.709855   -2.309534
     36          6           0       -6.434811   -0.472202   -2.784724
     37          6           0       -6.159452   -1.510802   -1.882357
     38          6           0       -5.370902   -0.962078   -0.844434
     39          6           0       -7.277767   -0.583796   -4.095979
     40          6           0       -6.411396   -2.891214   -1.636612
     41          8           0       -6.855872   -3.791491   -2.356318
     42          6           0       -5.742170   -3.206577   -0.268786
     43          6           0       -6.825759   -3.641391    0.639830
     44          8           0       -6.923545   -4.788304    1.092356
     45          8           0       -7.673524   -2.560308    0.996230
     46          6           0       -8.748312   -2.954969    1.874793
     47          6           0        1.187177   -4.659598   -0.857837
     48          6           0        2.016161   -3.838394   -1.873673
     49          6           0        3.170207   -3.182744   -1.637680
     50          6           0        3.969360   -3.134342   -0.364651
     51          6           0        3.831002   -2.321911   -2.746855
     52          6           0        3.998713   -0.802940   -2.435703
     53          6           0        5.497343   -0.416986   -2.507917
     54          6           0        5.744489    0.940849   -1.636342
     55          6           0        5.455639    2.197788   -2.370605
     56          6           0        7.184060    1.016174   -1.046503
     57          6           0        7.235226    0.629605    0.465978
     58          6           0        8.065042   -0.661164    0.620470
     59          6           0        9.572729   -0.494502    1.075287
     60          6           0       10.112516   -1.557241    2.038021
     61          6           0       10.485459   -0.474866   -0.135204
     62          6           0       11.793743    0.249976    0.100256
     63          6           0       12.946966   -0.271679   -0.746111
     64          6           0       14.283744   -0.278696    0.019939
     65          6           0       14.757065    1.158375    0.245930
     66          6           0       15.404688   -1.150027   -0.634829
     67          1           0       -1.567826   -0.039264    3.954478
     68          1           0       -2.412851    5.539228    0.579673
     69          1           0       -5.745214    2.154442   -3.757477
     70          1           0       -4.755937   -3.051404    2.643341
     71          1           0       -1.957496   -2.372720    3.186994
     72          1           0       -3.552664   -0.923142    5.069243
     73          1           0       -2.858202   -2.504660    5.419453
     74          1           0       -4.478068   -2.359788    4.754435
     75          1           0       -3.933256   -4.823682    1.534857
     76          1           0       -2.519346   -4.474391    2.412431
     77          1           0       -1.847498   -2.819189    0.330499
     78          1           0       -2.829031   -3.890742   -0.542849
     79          1           0        0.407415    2.031515    4.814479
     80          1           0       -1.220112    1.937303    5.567585
     81          1           0       -0.381543    3.416443    5.474594
     82          1           0       -1.996688    6.848066    2.435016
     83          1           0       -0.568165    6.365952    1.467667
     84          1           0       -0.321662    7.511097    2.811463
     85          1           0       -2.869581    5.898331   -1.914557
     86          1           0       -4.952276    4.733815   -3.337165
     87          1           0       -4.657815    7.169706   -1.045603
     88          1           0       -5.086299    5.857093   -0.080747
     89          1           0       -5.794891    6.045935   -1.678748
     90          1           0       -2.469640    3.089992   -3.669207
     91          1           0       -2.028743    4.722398   -3.754391
     92          1           0       -3.010060    3.216895   -5.857864
     93          1           0       -2.562895    4.925808   -5.811047
     94          1           0       -4.279794    4.375615   -5.627434
     95          1           0       -8.061773   -1.292857   -3.831657
     96          1           0       -6.597733   -1.013150   -4.831513
     97          1           0       -7.686929    0.367814   -4.435720
     98          1           0       -5.010011   -4.007260   -0.378356
     99          1           0       -8.799261   -3.912435    2.393403
    100          1           0       -9.710223   -2.810636    1.383125
    101          1           0       -8.665354   -2.206861    2.662733
    102          1           0        1.083697   -5.691408   -1.193333
    103          1           0        1.609035   -4.689361    0.146922
    104          1           0        1.540230   -3.698165   -2.843975
    105          1           0        5.048964   -3.256527   -0.460745
    106          1           0        3.595102   -3.883151    0.332447
    107          1           0        3.838446   -2.198700    0.178349
    108          1           0        3.221461   -2.268743   -3.649374
    109          1           0        4.735443   -2.835602   -3.073598
    110          1           0        3.532513   -0.501942   -1.497025
    111          1           0        3.726948   -0.278034   -3.352167
    112          1           0        5.711534   -0.181396   -3.550198
    113          1           0        6.154470   -1.271297   -2.341146
    114          1           0        5.027610    0.909584   -0.815846
    115          1           0        6.331505    2.783491   -2.648888
    116          1           0        5.007566    2.896474   -1.663842
    117          1           0        4.871055    2.021947   -3.274013
    118          1           0        7.628604    1.991335   -1.246220
    119          1           0        7.744339    0.347498   -1.699541
    120          1           0        6.271698    0.522198    0.963145
    121          1           0        7.744372    1.412240    1.029353
    122          1           0        7.999845   -1.199840   -0.325663
    123          1           0        7.505276   -1.267781    1.333256
    124          1           0        9.609339    0.501207    1.518283
    125          1           0        9.240144   -1.989542    2.528133
    126          1           0       10.603997   -1.032257    2.857501
    127          1           0       10.821946   -2.268312    1.615654
    128          1           0       10.049802   -0.102428   -1.062537
    129          1           0       10.716852   -1.524194   -0.319796
    130          1           0       12.026096    0.287781    1.164273
    131          1           0       11.625745    1.305633   -0.112494
    132          1           0       12.940023    0.529864   -1.485234
    133          1           0       12.912689   -1.292561   -1.125030
    134          1           0       14.066379   -0.702043    1.000234
    135          1           0       15.797421    1.246205    0.557941
    136          1           0       14.299970    1.632469    1.114318
    137          1           0       14.610760    1.706132   -0.686243
    138          1           0       15.011510   -1.717094   -1.478213
    139          1           0       15.818548   -1.881564    0.058670
    140          1           0       16.202766   -0.534894   -1.050331
 ---------------------------------------------------------------------

 SCF Done:  E(RwB97XD) =  -3007.85687293     A.U. after   17 cycles

 Excitation energies and oscillator strengths:

 Excited State   1:      Singlet-A      1.5740 eV  787.71 nm  f=0.3825  <S**2>=0.000
     245 -> 248       -0.17087
     246 -> 247        0.68673
     245 <- 248       -0.11472
 This state for optimization and/or second-order correction.
 Total Energy, E(TD-HF/TD-DFT) =  -3007.79902989
 Copying the excited state density for this state as the 1-particle RhoCI density.

 Excited State   2:      Singlet-A      2.1300 eV  582.08 nm  f=0.1000  <S**2>=0.000
     245 -> 247        0.64123
     246 -> 248        0.27752

 Excited State   3:      Singlet-A      3.2805 eV  377.95 nm  f=0.0016  <S**2>=0.000
     242 -> 247       -0.16904
     243 -> 247       -0.37130
     244 -> 247        0.54317

 Excited State   4:      Singlet-A      3.3632 eV  368.65 nm  f=0.0513  <S**2>=0.000
     240 -> 247        0.27600
     240 -> 249       -0.18721
     242 -> 247        0.37191
     243 -> 247        0.11669
     244 -> 247        0.22717
     246 -> 248       -0.34853

 Excited State   5:      Singlet-A      3.4483 eV  359.55 nm  f=0.0212  <S**2>=0.000
     239 -> 247        0.13259
     240 -> 247        0.45714
     240 -> 249       -0.28408
     242 -> 247       -0.27568
     243 -> 247       -0.15410
     246 -> 248        0.19146

 The electronic state is 1-A.
 Alpha  occ. eigenvalues --  -46.97290 -19.31216 -19.30087 -19.25790 -19.24776
 Alpha  occ. eigenvalues --  -19.24494 -19.23676 -14.47620 -14.46852 -14.44701
 Alpha  occ. eigenvalues --  -14.44395 -10.44229 -10.42847 -10.39620 -10.39405
 Alpha  occ. eigenvalues --  -10.36209 -10.36187 -10.36182 -10.35324 -10.35290
 Alpha  occ. eigenvalues --  -10.35248 -10.35117 -10.34963 -10.34046 -10.33967
 Alpha  occ. eigenvalues --  -10.33342 -10.32911 -10.32818 -10.32562 -10.32541
 Alpha  occ. eigenvalues --  -10.32402 -10.32172 -10.32164 -10.31933 -10.31902
 Alpha  occ. eigenvalues --  -10.31802 -10.31743 -10.31606 -10.31537 -10.31420
 Alpha  occ. eigenvalues --  -10.30911 -10.30599 -10.30449 -10.30385 -10.30255
 Alpha  occ. eigenvalues --  -10.30001 -10.29911 -10.29857 -10.29635 -10.29450
 Alpha  occ. eigenvalues --  -10.29431 -10.29416 -10.29350 -10.29277 -10.29255
 Alpha  occ. eigenvalues --  -10.29119 -10.28720 -10.28392 -10.28250 -10.28184
 Alpha  occ. eigenvalues --  -10.28122 -10.28087 -10.28027 -10.27863 -10.27846
 Alpha  occ. eigenvalues --  -10.27760  -3.23006  -1.96553  -1.96131  -1.95950
 Alpha  occ. eigenvalues --   -1.18090  -1.17878  -1.12122  -1.11784  -1.10274
 Alpha  occ. eigenvalues --   -1.09580  -1.07272  -1.05507  -1.05242  -1.04345
 Alpha  occ. eigenvalues --   -0.96076  -0.92056  -0.91750  -0.91319  -0.90971
 Alpha  occ. eigenvalues --   -0.90401  -0.90049  -0.89819  -0.89215  -0.88245
 Alpha  occ. eigenvalues --   -0.87895  -0.87454  -0.86460  -0.86088  -0.85587
 Alpha  occ. eigenvalues --   -0.84422  -0.83848  -0.82925  -0.82779  -0.82420
 Alpha  occ. eigenvalues --   -0.82032  -0.80487  -0.79816  -0.79265  -0.78577
 Alpha  occ. eigenvalues --   -0.77835  -0.77437  -0.77089  -0.76293  -0.75944
 Alpha  occ. eigenvalues --   -0.75755  -0.75118  -0.74324  -0.73022  -0.71402
 Alpha  occ. eigenvalues --   -0.70854  -0.70248  -0.69286  -0.68265  -0.67974
 Alpha  occ. eigenvalues --   -0.67529  -0.67202  -0.67019  -0.66705  -0.65634
 Alpha  occ. eigenvalues --   -0.65505  -0.65255  -0.64866  -0.64142  -0.62599
 Alpha  occ. eigenvalues --   -0.62039  -0.61807  -0.60926  -0.60447  -0.60225
 Alpha  occ. eigenvalues --   -0.59718  -0.59097  -0.58742  -0.58091  -0.57796
 Alpha  occ. eigenvalues --   -0.57167  -0.57092  -0.56797  -0.56377  -0.56122
 Alpha  occ. eigenvalues --   -0.55857  -0.55738  -0.55346  -0.55090  -0.54711
 Alpha  occ. eigenvalues --   -0.54482  -0.54061  -0.53804  -0.53644  -0.53601
 Alpha  occ. eigenvalues --   -0.53455  -0.53277  -0.53252  -0.53056  -0.52452
 Alpha  occ. eigenvalues --   -0.52226  -0.51833  -0.51691  -0.51568  -0.51471
 Alpha  occ. eigenvalues --   -0.51308  -0.51249  -0.50823  -0.50506  -0.50380
 Alpha  occ. eigenvalues --   -0.50195  -0.50081  -0.49877  -0.49826  -0.49606
 Alpha  occ. eigenvalues --   -0.49491  -0.48998  -0.48723  -0.48588  -0.48559
 Alpha  occ. eigenvalues --   -0.48448  -0.48200  -0.48093  -0.47765  -0.47759
 Alpha  occ. eigenvalues --   -0.47664  -0.47612  -0.47122  -0.46983  -0.46941
 Alpha  occ. eigenvalues --   -0.46706  -0.46600  -0.46339  -0.46294  -0.45964
 Alpha  occ. eigenvalues --   -0.45563  -0.45531  -0.45405  -0.45359  -0.45243
 Alpha  occ. eigenvalues --   -0.45075  -0.44818  -0.44588  -0.44492  -0.44196
 Alpha  occ. eigenvalues --   -0.43980  -0.43896  -0.43884  -0.43576  -0.43228
 Alpha  occ. eigenvalues --   -0.43112  -0.42922  -0.42896  -0.42568  -0.42430
 Alpha  occ. eigenvalues --   -0.41977  -0.41501  -0.41149  -0.40719  -0.40402
 Alpha  occ. eigenvalues --   -0.40297  -0.39867  -0.39569  -0.39537  -0.39433
 Alpha  occ. eigenvalues --   -0.39177  -0.39000  -0.38854  -0.38816  -0.38741
 Alpha  occ. eigenvalues --   -0.38176  -0.37227  -0.36717  -0.36626  -0.36417
 Alpha  occ. eigenvalues --   -0.36068  -0.35934  -0.35634  -0.34125  -0.33506
 Alpha  occ. eigenvalues --   -0.32806  -0.32762  -0.32487  -0.31952  -0.26778
 Alpha  occ. eigenvalues --   -0.23418
 Alpha virt. eigenvalues --   -0.07966  -0.00356   0.01703   0.03364   0.04127
 Alpha virt. eigenvalues --    0.06259   0.07103   0.07155   0.08127   0.09751
 Alpha virt. eigenvalues --    0.09991   0.11188   0.11628   0.11757   0.13029

 Mulliken charges:
               1
     1  Mg   0.928904
     2  C   -0.055747
     3  C   -0.064589
     4  C   -0.071640
     5  C   -0.075029
     6  N   -0.301720
     7  C   -0.039352
     8  C   -0.060762
     9  C   -0.090299
    10  C    0.015675
    11  C    0.031316
    12  C    0.038467
    13  C   -0.027089
    14  C    0.234499
    15  O   -0.268160
    16  O   -0.380299
    17  N   -0.439670
    18  C    0.141948
    19  C   -0.135691
    20  C   -0.093095
    21  C    0.198282
    22  C    0.063798
    23  C    0.040857
    24  O   -0.230337
    25  C   -0.021620
    26  N   -0.409754
    27  C    0.047482
    28  C   -0.114857
    29  C   -0.072025
    30  C    0.106606
    31  C    0.003717
    32  C    0.005400
    33  C   -0.048838
    34  N   -0.419687
    35  C    0.093815
    36  C   -0.190274
    37  C   -0.016928
    38  C    0.190246
    39  C    0.076032
    40  C    0.100699
    41  O   -0.210812
    42  C   -0.073946
    43  C    0.286144
    44  O   -0.242736
    45  O   -0.381911
    46  C    0.129370
    47  C    0.244068
    48  C   -0.114498
    49  C   -0.173089
    50  C    0.039077
    51  C    0.022969
    52  C   -0.041432
    53  C   -0.040258
    54  C   -0.179824
    55  C    0.012250
    56  C    0.010286
    57  C   -0.013819
    58  C    0.001488
    59  C   -0.175022
    60  C    0.028287
    61  C    0.003817
    62  C   -0.036886
    63  C    0.028550
    64  C   -0.224510
    65  C   -0.016559
    66  C    0.007081
    67  H    0.007947
    68  H   -0.014388
    69  H    0.004051
    70  H    0.042886
    71  H    0.037931
    72  H    0.040735
    73  H    0.047911
    74  H    0.032675
    75  H    0.059928
    76  H    0.039839
    77  H    0.066953
    78  H    0.059713
    79  H    0.052730
    80  H    0.033973
    81  H    0.047698
    82  H    0.059906
    83  H    0.053316
    84  H    0.059146
    85  H    0.040889
    86  H    0.021284
    87  H    0.034258
    88  H    0.033016
    89  H    0.039104
    90  H    0.041139
    91  H    0.026870
    92  H    0.037291
    93  H    0.040673
    94  H    0.035785
    95  H    0.063635
    96  H    0.067551
    97  H    0.043074
    98  H    0.066177
    99  H    0.071045
   100  H    0.052145
   101  H    0.039616
   102  H    0.056921
   103  H    0.038771
   104  H    0.030396
   105  H    0.047777
   106  H    0.022035
   107  H    0.043624
   108  H    0.012928
   109  H    0.037217
   110  H    0.047879
   111  H    0.034675
   112  H    0.011703
   113  H    0.018578
   114  H    0.016585
   115  H    0.017925
   116  H    0.026562
   117  H    0.025466
   118  H    0.013253
   119  H    0.020672
   120  H    0.026844
   121  H    0.014354
   122  H    0.012520
   123  H   -0.001263
   124  H    0.012303
   125  H    0.020748
   126  H    0.024733
   127  H    0.040728
   128  H    0.015684
   129  H    0.004282
   130  H    0.005141
   131  H    0.016446
   132  H    0.020187
   133  H    0.024917
   134  H    0.020106
   135  H    0.021186
   136  H    0.027356
   137  H    0.029712
   138  H    0.014406
   139  H    0.034953
   140  H    0.026825
 Sum of Mulliken charges =  -0.00000

 Dipole moment (field-independent basis, Debye):
    X=             -0.5620    Y=              5.6303    Z=             -0.8940  Tot=              5.7284
 Quadrupole moment (field-independent basis, Debye-Ang):
   XX=           -385.6757   YY=           -435.5279   ZZ=           -395.8882
   XY=            -45.4257   XZ=            -15.7504   YZ=            -29.6776

 Normal termination of Gaussian 16 at Wed May  4 10:09:48 2022.
