 Gaussian 16, Revision A.03,
 Gaussian 16:  ES64L-G16RevA.03 25-Dec-2016

 --------------------
 #p ZINDO=(nstates=5)
 --------------------

 ------------------------------
 step_1551_chromophore_26 ZINDO
 ------------------------------
 Symbolic Z-matrix:
 Charge =  0 Multiplicity = 1

                         Standard orientation:
 ---------------------------------------------------------------------
 Center     Atomic      Atomic             Coordinates (Angstroms)
 Number     Number       Type             X           Y           Z
 ---------------------------------------------------------------------
      1         12           0       -4.074067    1.501588    0.447253
      2          6           0       -5.088580   -1.904273    0.142619
      3          6           0       -2.196158    0.410610    3.183206
      4          6           0       -2.680402    4.481894    0.622523
      5          6           0       -5.328218    2.013889   -2.757721
      6          7           0       -3.715960   -0.500382    1.481421
      7          6           0       -4.221398   -1.724363    1.187636
      8          6           0       -3.804700   -2.787458    2.181322
      9          6           0       -2.965848   -1.960334    3.237358
     10          6           0       -2.901133   -0.613550    2.548937
     11          6           0       -3.469929   -1.948956    4.709453
     12          6           0       -3.126086   -4.093399    1.591057
     13          6           0       -2.208741   -3.848146    0.352079
     14          6           0       -1.002157   -4.661714    0.123580
     15          8           0       -0.760534   -5.703326    0.721001
     16          8           0       -0.162217   -4.021077   -0.753969
     17          7           0       -2.706307    2.416731    1.854414
     18          6           0       -2.030576    1.817287    2.933648
     19          6           0       -1.286566    2.825016    3.582420
     20          6           0       -1.426955    4.072836    2.891666
     21          6           0       -2.279326    3.680475    1.712554
     22          6           0       -0.568860    2.506661    4.904217
     23          6           0       -0.669898    5.354691    3.253784
     24          8           0        0.153336    5.456889    4.155151
     25          6           0       -0.920826    6.673862    2.451962
     26          7           0       -3.629574    2.861106   -1.102470
     27          6           0       -3.287466    4.145590   -0.591787
     28          6           0       -3.680072    5.214151   -1.665777
     29          6           0       -4.073239    4.272483   -2.887653
     30          6           0       -4.394592    2.957325   -2.226853
     31          6           0       -4.861676    6.100770   -1.117952
     32          6           0       -2.887911    4.068426   -3.903708
     33          6           0       -3.233983    4.175975   -5.391146
     34          7           0       -5.062647    0.325961   -1.087131
     35          6           0       -5.650998    0.709855   -2.309534
     36          6           0       -6.434811   -0.472202   -2.784724
     37          6           0       -6.159452   -1.510802   -1.882357
     38          6           0       -5.370902   -0.962078   -0.844434
     39          6           0       -7.277767   -0.583796   -4.095979
     40          6           0       -6.411396   -2.891214   -1.636612
     41          8           0       -6.855872   -3.791491   -2.356318
     42          6           0       -5.742170   -3.206577   -0.268786
     43          6           0       -6.825759   -3.641391    0.639830
     44          8           0       -6.923545   -4.788304    1.092356
     45          8           0       -7.673524   -2.560308    0.996230
     46          6           0       -8.748312   -2.954969    1.874793
     47          6           0        1.187177   -4.659598   -0.857837
     48          6           0        2.016161   -3.838394   -1.873673
     49          6           0        3.170207   -3.182744   -1.637680
     50          6           0        3.969360   -3.134342   -0.364651
     51          6           0        3.831002   -2.321911   -2.746855
     52          6           0        3.998713   -0.802940   -2.435703
     53          6           0        5.497343   -0.416986   -2.507917
     54          6           0        5.744489    0.940849   -1.636342
     55          6           0        5.455639    2.197788   -2.370605
     56          6           0        7.184060    1.016174   -1.046503
     57          6           0        7.235226    0.629605    0.465978
     58          6           0        8.065042   -0.661164    0.620470
     59          6           0        9.572729   -0.494502    1.075287
     60          6           0       10.112516   -1.557241    2.038021
     61          6           0       10.485459   -0.474866   -0.135204
     62          6           0       11.793743    0.249976    0.100256
     63          6           0       12.946966   -0.271679   -0.746111
     64          6           0       14.283744   -0.278696    0.019939
     65          6           0       14.757065    1.158375    0.245930
     66          6           0       15.404688   -1.150027   -0.634829
     67          1           0       -1.567826   -0.039264    3.954478
     68          1           0       -2.412851    5.539228    0.579673
     69          1           0       -5.745214    2.154442   -3.757477
     70          1           0       -4.755937   -3.051404    2.643341
     71          1           0       -1.957496   -2.372720    3.186994
     72          1           0       -3.552664   -0.923142    5.069243
     73          1           0       -2.858202   -2.504660    5.419453
     74          1           0       -4.478068   -2.359788    4.754435
     75          1           0       -3.933256   -4.823682    1.534857
     76          1           0       -2.519346   -4.474391    2.412431
     77          1           0       -1.847498   -2.819189    0.330499
     78          1           0       -2.829031   -3.890742   -0.542849
     79          1           0        0.407415    2.031515    4.814479
     80          1           0       -1.220112    1.937303    5.567585
     81          1           0       -0.381543    3.416443    5.474594
     82          1           0       -1.996688    6.848066    2.435016
     83          1           0       -0.568165    6.365952    1.467667
     84          1           0       -0.321662    7.511097    2.811463
     85          1           0       -2.869581    5.898331   -1.914557
     86          1           0       -4.952276    4.733815   -3.337165
     87          1           0       -4.657815    7.169706   -1.045603
     88          1           0       -5.086299    5.857093   -0.080747
     89          1           0       -5.794891    6.045935   -1.678748
     90          1           0       -2.469640    3.089992   -3.669207
     91          1           0       -2.028743    4.722398   -3.754391
     92          1           0       -3.010060    3.216895   -5.857864
     93          1           0       -2.562895    4.925808   -5.811047
     94          1           0       -4.279794    4.375615   -5.627434
     95          1           0       -8.061773   -1.292857   -3.831657
     96          1           0       -6.597733   -1.013150   -4.831513
     97          1           0       -7.686929    0.367814   -4.435720
     98          1           0       -5.010011   -4.007260   -0.378356
     99          1           0       -8.799261   -3.912435    2.393403
    100          1           0       -9.710223   -2.810636    1.383125
    101          1           0       -8.665354   -2.206861    2.662733
    102          1           0        1.083697   -5.691408   -1.193333
    103          1           0        1.609035   -4.689361    0.146922
    104          1           0        1.540230   -3.698165   -2.843975
    105          1           0        5.048964   -3.256527   -0.460745
    106          1           0        3.595102   -3.883151    0.332447
    107          1           0        3.838446   -2.198700    0.178349
    108          1           0        3.221461   -2.268743   -3.649374
    109          1           0        4.735443   -2.835602   -3.073598
    110          1           0        3.532513   -0.501942   -1.497025
    111          1           0        3.726948   -0.278034   -3.352167
    112          1           0        5.711534   -0.181396   -3.550198
    113          1           0        6.154470   -1.271297   -2.341146
    114          1           0        5.027610    0.909584   -0.815846
    115          1           0        6.331505    2.783491   -2.648888
    116          1           0        5.007566    2.896474   -1.663842
    117          1           0        4.871055    2.021947   -3.274013
    118          1           0        7.628604    1.991335   -1.246220
    119          1           0        7.744339    0.347498   -1.699541
    120          1           0        6.271698    0.522198    0.963145
    121          1           0        7.744372    1.412240    1.029353
    122          1           0        7.999845   -1.199840   -0.325663
    123          1           0        7.505276   -1.267781    1.333256
    124          1           0        9.609339    0.501207    1.518283
    125          1           0        9.240144   -1.989542    2.528133
    126          1           0       10.603997   -1.032257    2.857501
    127          1           0       10.821946   -2.268312    1.615654
    128          1           0       10.049802   -0.102428   -1.062537
    129          1           0       10.716852   -1.524194   -0.319796
    130          1           0       12.026096    0.287781    1.164273
    131          1           0       11.625745    1.305633   -0.112494
    132          1           0       12.940023    0.529864   -1.485234
    133          1           0       12.912689   -1.292561   -1.125030
    134          1           0       14.066379   -0.702043    1.000234
    135          1           0       15.797421    1.246205    0.557941
    136          1           0       14.299970    1.632469    1.114318
    137          1           0       14.610760    1.706132   -0.686243
    138          1           0       15.011510   -1.717094   -1.478213
    139          1           0       15.818548   -1.881564    0.058670
    140          1           0       16.202766   -0.534894   -1.050331
 ---------------------------------------------------------------------

 SCF Done:  E(RZINDO/S) =  -474.073470932     A.U. after   20 cycles

 Excitation energies and oscillator strengths:

 Excited State   1:      Singlet-A      1.1616 eV 1067.34 nm  f=0.6177  <S**2>=0.000
     175 ->178        -0.18410
     176 ->177         0.66457
 This state for optimization and/or second-order correction.
 Total Energy, E(CIS/TDA) =  -474.030782061
 Copying the excited state density for this state as the 1-particle RhoCI density.

 Excited State   2:      Singlet-A      1.8870 eV  657.04 nm  f=0.0370  <S**2>=0.000
     175 ->177         0.54442
     176 ->178         0.42606

 Excited State   3:      Singlet-A      2.7905 eV  444.31 nm  f=0.1183  <S**2>=0.000
     175 ->177        -0.15290
     176 ->178         0.23455
     176 ->179         0.18450
     176 ->180         0.60059

 Excited State   4:      Singlet-A      2.8451 eV  435.78 nm  f=0.0099  <S**2>=0.000
     168 ->177         0.36544
     168 ->179        -0.44279
     168 ->181         0.11935
     168 ->184        -0.11311
     168 ->185        -0.15858
     168 ->187        -0.10667
     176 ->180         0.10762

 Excited State   5:      Singlet-A      2.9271 eV  423.57 nm  f=0.4483  <S**2>=0.000
     175 ->177         0.26825
     176 ->178        -0.35736
     176 ->179         0.48782

 The electronic state is 1-A.
 Alpha  occ. eigenvalues --   -1.84959  -1.80553  -1.79542  -1.72824  -1.72048
 Alpha  occ. eigenvalues --   -1.70404  -1.66180  -1.61449  -1.59088  -1.57502
 Alpha  occ. eigenvalues --   -1.55386  -1.51330  -1.48668  -1.48005  -1.46583
 Alpha  occ. eigenvalues --   -1.45042  -1.42671  -1.39838  -1.39100  -1.38770
 Alpha  occ. eigenvalues --   -1.35269  -1.33361  -1.32297  -1.30144  -1.28091
 Alpha  occ. eigenvalues --   -1.27945  -1.26470  -1.23099  -1.20930  -1.19209
 Alpha  occ. eigenvalues --   -1.16552  -1.15826  -1.14915  -1.13325  -1.13045
 Alpha  occ. eigenvalues --   -1.11825  -1.10366  -1.09314  -1.06674  -1.04924
 Alpha  occ. eigenvalues --   -1.03809  -1.02340  -1.00489  -0.98593  -0.97253
 Alpha  occ. eigenvalues --   -0.96688  -0.93760  -0.93207  -0.92197  -0.91891
 Alpha  occ. eigenvalues --   -0.91178  -0.90165  -0.89030  -0.88374  -0.87405
 Alpha  occ. eigenvalues --   -0.86544  -0.85082  -0.83331  -0.82983  -0.81456
 Alpha  occ. eigenvalues --   -0.80911  -0.78928  -0.78209  -0.77176  -0.76401
 Alpha  occ. eigenvalues --   -0.76126  -0.75697  -0.75014  -0.74805  -0.73824
 Alpha  occ. eigenvalues --   -0.73207  -0.72432  -0.72377  -0.71814  -0.71647
 Alpha  occ. eigenvalues --   -0.70792  -0.69111  -0.68584  -0.68392  -0.67853
 Alpha  occ. eigenvalues --   -0.67385  -0.66970  -0.66490  -0.66015  -0.65695
 Alpha  occ. eigenvalues --   -0.65098  -0.64504  -0.64160  -0.63734  -0.63561
 Alpha  occ. eigenvalues --   -0.63482  -0.63366  -0.63174  -0.62447  -0.62118
 Alpha  occ. eigenvalues --   -0.61675  -0.61470  -0.61082  -0.60439  -0.59914
 Alpha  occ. eigenvalues --   -0.59519  -0.59276  -0.58554  -0.58257  -0.57602
 Alpha  occ. eigenvalues --   -0.57474  -0.57071  -0.56962  -0.56830  -0.56323
 Alpha  occ. eigenvalues --   -0.55888  -0.55601  -0.55495  -0.55254  -0.54917
 Alpha  occ. eigenvalues --   -0.54402  -0.54264  -0.54052  -0.53382  -0.53216
 Alpha  occ. eigenvalues --   -0.53192  -0.52845  -0.52697  -0.52487  -0.52294
 Alpha  occ. eigenvalues --   -0.51804  -0.51557  -0.51297  -0.50761  -0.50616
 Alpha  occ. eigenvalues --   -0.50539  -0.50430  -0.50204  -0.49586  -0.49533
 Alpha  occ. eigenvalues --   -0.48864  -0.48743  -0.48257  -0.48144  -0.47790
 Alpha  occ. eigenvalues --   -0.47553  -0.47350  -0.47091  -0.46819  -0.46751
 Alpha  occ. eigenvalues --   -0.46357  -0.45973  -0.45944  -0.45454  -0.45246
 Alpha  occ. eigenvalues --   -0.45098  -0.45034  -0.45002  -0.44671  -0.44416
 Alpha  occ. eigenvalues --   -0.43550  -0.43163  -0.42958  -0.42588  -0.42498
 Alpha  occ. eigenvalues --   -0.42422  -0.41544  -0.41361  -0.39714  -0.38995
 Alpha  occ. eigenvalues --   -0.38864  -0.38095  -0.36022  -0.35538  -0.35024
 Alpha  occ. eigenvalues --   -0.33969  -0.33202  -0.33127  -0.32774  -0.27506
 Alpha  occ. eigenvalues --   -0.22094
 Alpha virt. eigenvalues --   -0.09414  -0.02665  -0.01417  -0.00225   0.00730
 Alpha virt. eigenvalues --    0.01693   0.01915   0.02302   0.04373   0.04547
 Alpha virt. eigenvalues --    0.05659   0.06013   0.06712   0.07373   0.07654

 Mulliken charges:
               1
     1  Mg   0.443601
     2  C   -0.044401
     3  C   -0.058544
     4  C   -0.082922
     5  C   -0.085284
     6  N   -0.276042
     7  C    0.137408
     8  C   -0.007454
     9  C    0.002685
    10  C    0.117128
    11  C   -0.046536
    12  C   -0.022908
    13  C    0.011631
    14  C    0.475527
    15  O   -0.520329
    16  O   -0.273740
    17  N   -0.325613
    18  C    0.076054
    19  C    0.041856
    20  C   -0.072699
    21  C    0.144891
    22  C   -0.044805
    23  C    0.323126
    24  O   -0.522352
    25  C   -0.032854
    26  N   -0.297889
    27  C    0.121454
    28  C   -0.001622
    29  C    0.010972
    30  C    0.174329
    31  C   -0.056584
    32  C   -0.025966
    33  C   -0.056278
    34  N   -0.343896
    35  C    0.107573
    36  C    0.031865
    37  C   -0.037546
    38  C    0.122252
    39  C   -0.039904
    40  C    0.334800
    41  O   -0.514418
    42  C    0.055246
    43  C    0.483266
    44  O   -0.514907
    45  O   -0.268583
    46  C    0.075529
    47  C    0.103151
    48  C   -0.088824
    49  C    0.004123
    50  C   -0.040194
    51  C   -0.031308
    52  C   -0.041474
    53  C   -0.046461
    54  C   -0.015108
    55  C   -0.051884
    56  C   -0.037211
    57  C   -0.035072
    58  C   -0.040812
    59  C   -0.007346
    60  C   -0.055720
    61  C   -0.031027
    62  C   -0.033532
    63  C   -0.037607
    64  C   -0.012254
    65  C   -0.057321
    66  C   -0.059833
    67  H    0.021183
    68  H    0.024157
    69  H    0.021205
    70  H    0.033858
    71  H    0.028687
    72  H    0.023509
    73  H    0.026728
    74  H    0.020295
    75  H    0.042525
    76  H    0.026485
    77  H    0.039191
    78  H    0.045301
    79  H    0.036927
    80  H    0.021061
    81  H    0.029931
    82  H    0.035202
    83  H    0.032869
    84  H    0.045616
    85  H    0.035110
    86  H    0.025246
    87  H    0.017265
    88  H    0.020784
    89  H    0.021956
    90  H    0.024080
    91  H    0.022267
    92  H    0.017350
    93  H    0.021900
    94  H    0.024659
    95  H    0.038906
    96  H    0.040548
    97  H    0.030055
    98  H    0.063117
    99  H    0.059045
   100  H    0.035379
   101  H    0.020277
   102  H    0.050881
   103  H    0.048064
   104  H    0.035134
   105  H    0.029192
   106  H    0.015388
   107  H    0.028722
   108  H    0.009216
   109  H    0.029184
   110  H    0.039439
   111  H    0.027186
   112  H    0.011510
   113  H    0.024808
   114  H    0.018930
   115  H    0.014523
   116  H    0.014456
   117  H    0.018185
   118  H    0.018680
   119  H    0.019411
   120  H    0.025587
   121  H    0.015270
   122  H    0.017692
   123  H    0.007052
   124  H    0.020655
   125  H    0.017333
   126  H    0.012231
   127  H    0.033146
   128  H    0.015141
   129  H    0.010596
   130  H    0.016747
   131  H    0.011272
   132  H    0.024168
   133  H    0.028993
   134  H    0.016379
   135  H    0.009133
   136  H    0.015656
   137  H    0.022610
   138  H    0.013291
   139  H    0.020341
   140  H    0.019726
 Sum of Mulliken charges =  -0.00000

 Dipole moment (field-independent basis, Debye):
    X=             -1.7069    Y=              7.7648    Z=             -3.1548  Tot=              8.5533
 N-N= 4.450698293970D+03 E-N= 0.000000000000D+00  KE=-9.574641103994D+03
 Leave Link  601 at Wed May  4 10:22:58 2022, MaxMem=  6710886400 cpu:               0.8 elap:               0.0
 (Enter /sw/apps/gaussian-16.0/g16/l9999.exe)
 1\1\GINC-BP1-COMPUTE050\SP\RZINDO CIS\STO-3G\C55H74Mg1N4O6\OF15641\04-
 May-2022\0\\#p ZINDO=(nstates=5)\\step_1551_chromophore_26 ZINDO\\0,1\
 Mg,0,-9.406,18.727,42.301\C,0,-5.872,18.253,42.391\C,0,-8.666,21.996,4
 1.317\C,0,-12.611,19.233,41.729\C,0,-9.731,15.265,42.428\N,0,-7.499,19
 .917,41.91\C,0,-6.204,19.525,42.006\C,0,-5.227,20.652,41.748\C,0,-6.18
 4,21.893,41.531\C,0,-7.533,21.206,41.518\C,0,-6.041,23.094,42.51\C,0,-
 4.118,20.4,40.643\C,0,-4.594,19.549,39.424\C,0,-4.069,19.796,38.07\O,0

 Normal termination of Gaussian 16 at Wed May  4 10:22:58 2022.
