 Gaussian 16, Revision A.03,
 Gaussian 16:  ES64L-G16RevA.03 25-Dec-2016

 ------------------------------
 #p blyp/Def2SVP td=(nstates=5)
 ------------------------------

 --------------------------------------------------
 step_401_chromophore_10 TDDFT with blyp functional
 --------------------------------------------------
 Symbolic Z-matrix:
 Charge =  0 Multiplicity = 1

                         Standard orientation:
 ---------------------------------------------------------------------
 Center     Atomic      Atomic             Coordinates (Angstroms)
 Number     Number       Type             X           Y           Z
 ---------------------------------------------------------------------
      1         12           0       -5.937475    0.370127   -0.004746
      2          6           0       -3.381115   -2.022804    0.128819
      3          6           0       -3.769232    2.879411    1.255042
      4          6           0       -8.383876    2.705308   -0.331535
      5          6           0       -8.247122   -2.167776   -0.662789
      6          7           0       -3.851787    0.360330    0.697450
      7          6           0       -2.988807   -0.698918    0.522505
      8          6           0       -1.621578   -0.232511    0.876817
      9          6           0       -1.784107    1.266632    1.466064
     10          6           0       -3.260894    1.541098    1.174890
     11          6           0       -1.646004    1.340463    3.078092
     12          6           0       -0.585092   -0.278364   -0.325016
     13          6           0        0.600781   -1.278665   -0.152573
     14          6           0        1.934536   -1.154588   -0.813721
     15          8           0        2.290445   -0.316474   -1.607312
     16          8           0        2.616973   -2.315012   -0.453985
     17          7           0       -6.078192    2.464112    0.382103
     18          6           0       -5.023207    3.310636    0.875334
     19          6           0       -5.528383    4.754122    0.922297
     20          6           0       -6.785819    4.687782    0.264355
     21          6           0       -7.120692    3.263117    0.021633
     22          6           0       -4.751343    5.856278    1.583432
     23          6           0       -7.615794    5.841351   -0.008021
     24          8           0       -8.678858    5.790269   -0.588940
     25          6           0       -7.065857    7.206907    0.210970
     26          7           0       -7.951736    0.307889   -0.542413
     27          6           0       -8.818426    1.412702   -0.555552
     28          6           0      -10.340542    0.999969   -0.648481
     29          6           0      -10.270960   -0.559504   -0.795152
     30          6           0       -8.741011   -0.861318   -0.635081
     31          6           0      -11.206515    1.545513    0.565478
     32          6           0      -10.903248   -1.146134   -2.110454
     33          6           0      -10.015634   -0.810791   -3.342361
     34          7           0       -5.849292   -1.650236   -0.236010
     35          6           0       -6.837197   -2.539414   -0.487959
     36          6           0       -6.281672   -3.896471   -0.507554
     37          6           0       -4.931460   -3.662101   -0.357882
     38          6           0       -4.731337   -2.318231   -0.143862
     39          6           0       -7.002507   -5.179918   -0.717926
     40          6           0       -3.620456   -4.354787   -0.296929
     41          8           0       -3.391910   -5.508372   -0.413430
     42          6           0       -2.492614   -3.268730   -0.002586
     43          6           0       -1.747366   -3.684660    1.145664
     44          8           0       -1.957887   -3.233444    2.255469
     45          8           0       -0.735289   -4.483473    0.672293
     46          6           0        0.179090   -4.807563    1.760465
     47          6           0        3.958585   -2.599054   -0.980854
     48          6           0        5.051401   -2.460664   -0.010523
     49          6           0        6.333683   -2.847861   -0.139435
     50          6           0        6.899712   -3.493859   -1.408461
     51          6           0        7.185780   -2.935548    1.141728
     52          6           0        8.621615   -2.458972    1.011329
     53          6           0        8.998851   -1.601985    2.184259
     54          6           0        9.683903   -0.278888    1.830990
     55          6           0       10.011349    0.570923    3.168573
     56          6           0        8.845892    0.533102    0.827922
     57          6           0        9.476152    0.710499   -0.560647
     58          6           0        9.488178    2.165016   -1.022281
     59          6           0       10.954608    2.858683   -1.133220
     60          6           0       10.826191    4.380024   -0.893736
     61          6           0       11.854901    2.585886   -2.298301
     62          6           0       13.339882    2.881683   -2.033660
     63          6           0       14.313115    1.608704   -1.925212
     64          6           0       14.766436    1.197125   -0.504003
     65          6           0       15.732800    2.326682   -0.120556
     66          6           0       15.235734   -0.236092   -0.412411
     67          1           0       -2.999241    3.603313    1.530830
     68          1           0       -9.165121    3.463269   -0.427873
     69          1           0       -8.976053   -2.963905   -0.826571
     70          1           0       -1.381941   -0.738052    1.812328
     71          1           0       -1.052217    1.964924    1.060588
     72          1           0       -2.665455    1.410887    3.458709
     73          1           0       -1.053852    2.220859    3.329553
     74          1           0       -0.998406    0.537804    3.427587
     75          1           0       -0.205698    0.735126   -0.448939
     76          1           0       -1.091307   -0.589213   -1.239334
     77          1           0        0.254363   -2.246259   -0.513761
     78          1           0        0.745250   -1.415168    0.919006
     79          1           0       -3.902594    5.340954    2.034621
     80          1           0       -5.432017    6.410318    2.228466
     81          1           0       -4.354864    6.573153    0.865259
     82          1           0       -6.240580    7.376898   -0.479708
     83          1           0       -6.780073    7.382896    1.247892
     84          1           0       -7.813593    7.954391   -0.054061
     85          1           0      -10.844313    1.477344   -1.489346
     86          1           0      -10.791268   -0.901345    0.100120
     87          1           0      -11.395989    0.773886    1.312218
     88          1           0      -12.193406    1.942500    0.328126
     89          1           0      -10.716955    2.412536    1.009078
     90          1           0      -11.919455   -0.779334   -2.247281
     91          1           0      -10.902079   -2.228922   -1.979203
     92          1           0       -9.730340   -1.721896   -3.868059
     93          1           0       -9.213396   -0.103342   -3.131306
     94          1           0      -10.781740   -0.378548   -3.986310
     95          1           0       -7.267582   -5.361507   -1.759622
     96          1           0       -7.874877   -5.255974   -0.067724
     97          1           0       -6.317542   -5.927762   -0.318192
     98          1           0       -1.974631   -3.056169   -0.937697
     99          1           0        0.681776   -3.887178    2.057869
    100          1           0        0.988950   -5.453127    1.422442
    101          1           0       -0.228180   -5.194375    2.695472
    102          1           0        4.130796   -2.043821   -1.903057
    103          1           0        3.885156   -3.663414   -1.205461
    104          1           0        4.781224   -1.976828    0.928357
    105          1           0        6.487683   -4.502643   -1.440407
    106          1           0        7.974577   -3.668894   -1.396912
    107          1           0        6.657569   -2.906720   -2.295131
    108          1           0        7.237818   -3.972644    1.473751
    109          1           0        6.652677   -2.441648    1.953853
    110          1           0        8.831750   -2.089665    0.007129
    111          1           0        9.220300   -3.361314    1.133626
    112          1           0        9.639135   -2.305860    2.716471
    113          1           0        8.192295   -1.537059    2.914354
    114          1           0       10.662733   -0.479708    1.396962
    115          1           0        9.704084    1.604607    3.014106
    116          1           0       11.092463    0.466806    3.260402
    117          1           0        9.606597    0.079502    4.053503
    118          1           0        8.635140    1.536757    1.199342
    119          1           0        7.888238    0.024809    0.716004
    120          1           0        8.817310    0.102376   -1.180056
    121          1           0       10.493394    0.328534   -0.643879
    122          1           0        8.693651    2.798888   -0.626655
    123          1           0        9.225243    2.093931   -2.077480
    124          1           0       11.391777    2.474971   -0.211452
    125          1           0       10.185554    4.584674   -0.035136
    126          1           0       10.325748    4.867711   -1.729956
    127          1           0       11.812653    4.800093   -0.699796
    128          1           0       11.631870    3.375155   -3.015760
    129          1           0       11.700950    1.624053   -2.786738
    130          1           0       13.378111    3.360014   -1.054878
    131          1           0       13.719805    3.661679   -2.694095
    132          1           0       15.128570    1.881578   -2.594425
    133          1           0       13.724378    0.797625   -2.355428
    134          1           0       13.924469    1.418959    0.151747
    135          1           0       16.149842    1.970657    0.821981
    136          1           0       15.140696    3.199162    0.152903
    137          1           0       16.432089    2.489770   -0.941171
    138          1           0       16.264913   -0.345602   -0.072658
    139          1           0       15.103810   -0.809902   -1.330581
    140          1           0       14.528499   -0.660391    0.300170
 ---------------------------------------------------------------------

 SCF Done:  E(RB-LYP) =  -3007.36026904     A.U. after   21 cycles

 Excitation energies and oscillator strengths:

 Excited State   1:      Singlet-A      1.7752 eV  698.41 nm  f=0.2465  <S**2>=0.000
     244 -> 247       -0.27035
     245 -> 247        0.10662
     245 -> 248       -0.17582
     246 -> 247        0.63271
     246 <- 247       -0.13889
 This state for optimization and/or second-order correction.
 Total Energy, E(TD-HF/TD-DFT) =  -3007.29503032
 Copying the excited state density for this state as the 1-particle RhoCI density.

 Excited State   2:      Singlet-A      1.8367 eV  675.05 nm  f=0.0724  <S**2>=0.000
     244 -> 247        0.60568
     245 -> 247       -0.21592
     246 -> 247        0.28329

 Excited State   3:      Singlet-A      2.0529 eV  603.93 nm  f=0.0606  <S**2>=0.000
     244 -> 247        0.23361
     245 -> 247        0.59493
     246 -> 248        0.28566

 Excited State   4:      Singlet-A      2.2153 eV  559.66 nm  f=0.0002  <S**2>=0.000
     243 -> 247        0.70502

 Excited State   5:      Singlet-A      2.3474 eV  528.18 nm  f=0.0000  <S**2>=0.000
     242 -> 247        0.70710

 The electronic state is 1-A.
 Alpha  occ. eigenvalues --  -46.26364 -18.83415 -18.81672 -18.77758 -18.77464
 Alpha  occ. eigenvalues --  -18.76662 -18.74614 -14.03425 -14.03086 -14.01473
 Alpha  occ. eigenvalues --  -14.00738 -10.04411 -10.04300 -10.00232  -9.98506
 Alpha  occ. eigenvalues --   -9.98022  -9.97630  -9.96918  -9.96527  -9.96461
 Alpha  occ. eigenvalues --   -9.96452  -9.96193  -9.96103  -9.95579  -9.94760
 Alpha  occ. eigenvalues --   -9.94081  -9.94023  -9.94002  -9.93993  -9.93814
 Alpha  occ. eigenvalues --   -9.93715  -9.93710  -9.93563  -9.93525  -9.93499
 Alpha  occ. eigenvalues --   -9.93281  -9.93074  -9.92915  -9.92840  -9.92830
 Alpha  occ. eigenvalues --   -9.92738  -9.92469  -9.92435  -9.92055  -9.91961
 Alpha  occ. eigenvalues --   -9.91887  -9.91866  -9.91838  -9.91678  -9.91622
 Alpha  occ. eigenvalues --   -9.91543  -9.91333  -9.91194  -9.91122  -9.91065
 Alpha  occ. eigenvalues --   -9.90961  -9.90927  -9.90926  -9.90918  -9.90899
 Alpha  occ. eigenvalues --   -9.90885  -9.90807  -9.90644  -9.90632  -9.90441
 Alpha  occ. eigenvalues --   -9.90432  -2.91048  -1.71495  -1.70878  -1.70798
 Alpha  occ. eigenvalues --   -0.98880  -0.97305  -0.94259  -0.91630  -0.91559
 Alpha  occ. eigenvalues --   -0.90620  -0.87800  -0.84527  -0.83879  -0.82982
 Alpha  occ. eigenvalues --   -0.75559  -0.74034  -0.72993  -0.72344  -0.71884
 Alpha  occ. eigenvalues --   -0.71625  -0.71175  -0.71103  -0.70863  -0.70126
 Alpha  occ. eigenvalues --   -0.69975  -0.69260  -0.68347  -0.67765  -0.66902
 Alpha  occ. eigenvalues --   -0.66238  -0.65711  -0.65083  -0.64807  -0.64214
 Alpha  occ. eigenvalues --   -0.63965  -0.62945  -0.62347  -0.61552  -0.60930
 Alpha  occ. eigenvalues --   -0.60905  -0.60536  -0.59614  -0.59131  -0.58808
 Alpha  occ. eigenvalues --   -0.58389  -0.57283  -0.56357  -0.55528  -0.54537
 Alpha  occ. eigenvalues --   -0.53990  -0.53621  -0.52767  -0.52222  -0.51312
 Alpha  occ. eigenvalues --   -0.51071  -0.50435  -0.50230  -0.49614  -0.49447
 Alpha  occ. eigenvalues --   -0.48920  -0.48805  -0.48709  -0.48456  -0.46775
 Alpha  occ. eigenvalues --   -0.46369  -0.46217  -0.46088  -0.45355  -0.45034
 Alpha  occ. eigenvalues --   -0.44179  -0.43824  -0.42986  -0.42790  -0.42610
 Alpha  occ. eigenvalues --   -0.42090  -0.41855  -0.41776  -0.41754  -0.41517
 Alpha  occ. eigenvalues --   -0.41070  -0.40714  -0.40362  -0.40177  -0.40058
 Alpha  occ. eigenvalues --   -0.39817  -0.39755  -0.39561  -0.39405  -0.39243
 Alpha  occ. eigenvalues --   -0.39180  -0.38941  -0.38640  -0.38587  -0.38084
 Alpha  occ. eigenvalues --   -0.37895  -0.37729  -0.37589  -0.37307  -0.37292
 Alpha  occ. eigenvalues --   -0.37092  -0.36878  -0.36661  -0.36454  -0.36320
 Alpha  occ. eigenvalues --   -0.36114  -0.36081  -0.35995  -0.35801  -0.35701
 Alpha  occ. eigenvalues --   -0.35559  -0.35490  -0.35388  -0.35251  -0.34814
 Alpha  occ. eigenvalues --   -0.34782  -0.34691  -0.34584  -0.34223  -0.33891
 Alpha  occ. eigenvalues --   -0.33722  -0.33293  -0.33136  -0.32856  -0.32720
 Alpha  occ. eigenvalues --   -0.32642  -0.32585  -0.32422  -0.32344  -0.32198
 Alpha  occ. eigenvalues --   -0.31982  -0.31672  -0.31650  -0.31590  -0.31403
 Alpha  occ. eigenvalues --   -0.31205  -0.31066  -0.31013  -0.30704  -0.30552
 Alpha  occ. eigenvalues --   -0.30420  -0.30234  -0.30207  -0.30150  -0.29840
 Alpha  occ. eigenvalues --   -0.29672  -0.29606  -0.29403  -0.29192  -0.29081
 Alpha  occ. eigenvalues --   -0.28993  -0.28474  -0.28438  -0.28327  -0.27467
 Alpha  occ. eigenvalues --   -0.27232  -0.27009  -0.26591  -0.26349  -0.26185
 Alpha  occ. eigenvalues --   -0.26030  -0.25845  -0.25769  -0.25654  -0.25609
 Alpha  occ. eigenvalues --   -0.25224  -0.24627  -0.24477  -0.23610  -0.23318
 Alpha  occ. eigenvalues --   -0.23243  -0.23035  -0.22377  -0.21913  -0.21205
 Alpha  occ. eigenvalues --   -0.20657  -0.19946  -0.19367  -0.18000  -0.17202
 Alpha  occ. eigenvalues --   -0.15494
 Alpha virt. eigenvalues --   -0.11319  -0.06737  -0.05994  -0.04794  -0.03192
 Alpha virt. eigenvalues --   -0.02659  -0.01873  -0.01641  -0.00555   0.00082
 Alpha virt. eigenvalues --    0.01067   0.01281   0.01594   0.02338   0.02732

 Mulliken charges:
               1
     1  Mg   0.700719
     2  C   -0.104887
     3  C   -0.064980
     4  C   -0.049492
     5  C   -0.065826
     6  N   -0.237414
     7  C   -0.076288
     8  C    0.080389
     9  C   -0.115368
    10  C    0.036576
    11  C    0.106209
    12  C    0.166678
    13  C    0.032631
    14  C    0.103308
    15  O   -0.158638
    16  O   -0.308221
    17  N   -0.295896
    18  C    0.163079
    19  C   -0.170228
    20  C    0.078315
    21  C    0.109207
    22  C    0.205959
    23  C   -0.136233
    24  O   -0.157707
    25  C    0.142475
    26  N   -0.280069
    27  C    0.056462
    28  C    0.007974
    29  C    0.062822
    30  C    0.041212
    31  C    0.093844
    32  C    0.065925
    33  C    0.069548
    34  N   -0.209986
    35  C    0.082800
    36  C   -0.223716
    37  C    0.095658
    38  C    0.098262
    39  C    0.178214
    40  C   -0.106314
    41  O   -0.072328
    42  C    0.106088
    43  C    0.162455
    44  O   -0.172901
    45  O   -0.256516
    46  C    0.241118
    47  C    0.341030
    48  C   -0.120692
    49  C   -0.142391
    50  C    0.129154
    51  C    0.112571
    52  C    0.073425
    53  C    0.092055
    54  C   -0.062374
    55  C    0.104189
    56  C    0.108704
    57  C    0.061543
    58  C    0.099324
    59  C   -0.083477
    60  C    0.083721
    61  C    0.173904
    62  C    0.013438
    63  C    0.089664
    64  C   -0.109380
    65  C    0.115767
    66  C    0.148485
    67  H   -0.048784
    68  H   -0.042741
    69  H   -0.063567
    70  H   -0.018748
    71  H   -0.016966
    72  H    0.018297
    73  H   -0.015446
    74  H   -0.001177
    75  H   -0.012464
    76  H   -0.015499
    77  H    0.015149
    78  H    0.009710
    79  H   -0.009749
    80  H    0.014202
    81  H    0.000633
    82  H    0.008656
    83  H   -0.014543
    84  H   -0.018087
    85  H   -0.016835
    86  H   -0.031568
    87  H   -0.012540
    88  H   -0.014026
    89  H   -0.002109
    90  H   -0.010402
    91  H   -0.017684
    92  H   -0.008964
    93  H    0.026293
    94  H   -0.019871
    95  H    0.013297
    96  H   -0.010409
    97  H    0.000741
    98  H    0.018891
    99  H   -0.008778
   100  H    0.009121
   101  H    0.015154
   102  H    0.009389
   103  H   -0.006366
   104  H   -0.036194
   105  H    0.000808
   106  H   -0.010596
   107  H    0.007824
   108  H   -0.022722
   109  H   -0.035313
   110  H   -0.011530
   111  H   -0.045676
   112  H   -0.053344
   113  H   -0.034782
   114  H   -0.037505
   115  H   -0.008278
   116  H   -0.020807
   117  H   -0.016245
   118  H   -0.036929
   119  H   -0.027031
   120  H   -0.026248
   121  H   -0.025334
   122  H   -0.031290
   123  H   -0.055386
   124  H   -0.038674
   125  H   -0.022821
   126  H   -0.017481
   127  H   -0.015555
   128  H   -0.046575
   129  H   -0.032502
   130  H   -0.032438
   131  H   -0.033928
   132  H   -0.030063
   133  H   -0.044144
   134  H   -0.035512
   135  H   -0.029781
   136  H   -0.014796
   137  H   -0.008569
   138  H   -0.014064
   139  H   -0.017274
   140  H   -0.015031
 Sum of Mulliken charges =  -0.00000

 Dipole moment (field-independent basis, Debye):
    X=              2.5408    Y=             -0.2410    Z=              1.4760  Tot=              2.9483
 Quadrupole moment (field-independent basis, Debye-Ang):
   XX=           -386.2102   YY=           -412.3624   ZZ=           -408.1366
   XY=             -0.3817   XZ=              1.4694   YZ=             10.1223

 Normal termination of Gaussian 16 at Wed May  4 20:00:00 2022.
