 Gaussian 16, Revision A.03,
 Gaussian 16:  ES64L-G16RevA.03 25-Dec-2016

 -----------------------------------
 #p cam-b3lyp/Def2SVP td=(nstates=5)
 -----------------------------------

 -------------------------------------------------------
 step_401_chromophore_10 TDDFT with cam-b3lyp functional
 -------------------------------------------------------
 Symbolic Z-matrix:
 Charge =  0 Multiplicity = 1

                         Standard orientation:
 ---------------------------------------------------------------------
 Center     Atomic      Atomic             Coordinates (Angstroms)
 Number     Number       Type             X           Y           Z
 ---------------------------------------------------------------------
      1         12           0       -5.937475    0.370127   -0.004746
      2          6           0       -3.381115   -2.022804    0.128819
      3          6           0       -3.769232    2.879411    1.255042
      4          6           0       -8.383876    2.705308   -0.331535
      5          6           0       -8.247122   -2.167776   -0.662789
      6          7           0       -3.851787    0.360330    0.697450
      7          6           0       -2.988807   -0.698918    0.522505
      8          6           0       -1.621578   -0.232511    0.876817
      9          6           0       -1.784107    1.266632    1.466064
     10          6           0       -3.260894    1.541098    1.174890
     11          6           0       -1.646004    1.340463    3.078092
     12          6           0       -0.585092   -0.278364   -0.325016
     13          6           0        0.600781   -1.278665   -0.152573
     14          6           0        1.934536   -1.154588   -0.813721
     15          8           0        2.290445   -0.316474   -1.607312
     16          8           0        2.616973   -2.315012   -0.453985
     17          7           0       -6.078192    2.464112    0.382103
     18          6           0       -5.023207    3.310636    0.875334
     19          6           0       -5.528383    4.754122    0.922297
     20          6           0       -6.785819    4.687782    0.264355
     21          6           0       -7.120692    3.263117    0.021633
     22          6           0       -4.751343    5.856278    1.583432
     23          6           0       -7.615794    5.841351   -0.008021
     24          8           0       -8.678858    5.790269   -0.588940
     25          6           0       -7.065857    7.206907    0.210970
     26          7           0       -7.951736    0.307889   -0.542413
     27          6           0       -8.818426    1.412702   -0.555552
     28          6           0      -10.340542    0.999969   -0.648481
     29          6           0      -10.270960   -0.559504   -0.795152
     30          6           0       -8.741011   -0.861318   -0.635081
     31          6           0      -11.206515    1.545513    0.565478
     32          6           0      -10.903248   -1.146134   -2.110454
     33          6           0      -10.015634   -0.810791   -3.342361
     34          7           0       -5.849292   -1.650236   -0.236010
     35          6           0       -6.837197   -2.539414   -0.487959
     36          6           0       -6.281672   -3.896471   -0.507554
     37          6           0       -4.931460   -3.662101   -0.357882
     38          6           0       -4.731337   -2.318231   -0.143862
     39          6           0       -7.002507   -5.179918   -0.717926
     40          6           0       -3.620456   -4.354787   -0.296929
     41          8           0       -3.391910   -5.508372   -0.413430
     42          6           0       -2.492614   -3.268730   -0.002586
     43          6           0       -1.747366   -3.684660    1.145664
     44          8           0       -1.957887   -3.233444    2.255469
     45          8           0       -0.735289   -4.483473    0.672293
     46          6           0        0.179090   -4.807563    1.760465
     47          6           0        3.958585   -2.599054   -0.980854
     48          6           0        5.051401   -2.460664   -0.010523
     49          6           0        6.333683   -2.847861   -0.139435
     50          6           0        6.899712   -3.493859   -1.408461
     51          6           0        7.185780   -2.935548    1.141728
     52          6           0        8.621615   -2.458972    1.011329
     53          6           0        8.998851   -1.601985    2.184259
     54          6           0        9.683903   -0.278888    1.830990
     55          6           0       10.011349    0.570923    3.168573
     56          6           0        8.845892    0.533102    0.827922
     57          6           0        9.476152    0.710499   -0.560647
     58          6           0        9.488178    2.165016   -1.022281
     59          6           0       10.954608    2.858683   -1.133220
     60          6           0       10.826191    4.380024   -0.893736
     61          6           0       11.854901    2.585886   -2.298301
     62          6           0       13.339882    2.881683   -2.033660
     63          6           0       14.313115    1.608704   -1.925212
     64          6           0       14.766436    1.197125   -0.504003
     65          6           0       15.732800    2.326682   -0.120556
     66          6           0       15.235734   -0.236092   -0.412411
     67          1           0       -2.999241    3.603313    1.530830
     68          1           0       -9.165121    3.463269   -0.427873
     69          1           0       -8.976053   -2.963905   -0.826571
     70          1           0       -1.381941   -0.738052    1.812328
     71          1           0       -1.052217    1.964924    1.060588
     72          1           0       -2.665455    1.410887    3.458709
     73          1           0       -1.053852    2.220859    3.329553
     74          1           0       -0.998406    0.537804    3.427587
     75          1           0       -0.205698    0.735126   -0.448939
     76          1           0       -1.091307   -0.589213   -1.239334
     77          1           0        0.254363   -2.246259   -0.513761
     78          1           0        0.745250   -1.415168    0.919006
     79          1           0       -3.902594    5.340954    2.034621
     80          1           0       -5.432017    6.410318    2.228466
     81          1           0       -4.354864    6.573153    0.865259
     82          1           0       -6.240580    7.376898   -0.479708
     83          1           0       -6.780073    7.382896    1.247892
     84          1           0       -7.813593    7.954391   -0.054061
     85          1           0      -10.844313    1.477344   -1.489346
     86          1           0      -10.791268   -0.901345    0.100120
     87          1           0      -11.395989    0.773886    1.312218
     88          1           0      -12.193406    1.942500    0.328126
     89          1           0      -10.716955    2.412536    1.009078
     90          1           0      -11.919455   -0.779334   -2.247281
     91          1           0      -10.902079   -2.228922   -1.979203
     92          1           0       -9.730340   -1.721896   -3.868059
     93          1           0       -9.213396   -0.103342   -3.131306
     94          1           0      -10.781740   -0.378548   -3.986310
     95          1           0       -7.267582   -5.361507   -1.759622
     96          1           0       -7.874877   -5.255974   -0.067724
     97          1           0       -6.317542   -5.927762   -0.318192
     98          1           0       -1.974631   -3.056169   -0.937697
     99          1           0        0.681776   -3.887178    2.057869
    100          1           0        0.988950   -5.453127    1.422442
    101          1           0       -0.228180   -5.194375    2.695472
    102          1           0        4.130796   -2.043821   -1.903057
    103          1           0        3.885156   -3.663414   -1.205461
    104          1           0        4.781224   -1.976828    0.928357
    105          1           0        6.487683   -4.502643   -1.440407
    106          1           0        7.974577   -3.668894   -1.396912
    107          1           0        6.657569   -2.906720   -2.295131
    108          1           0        7.237818   -3.972644    1.473751
    109          1           0        6.652677   -2.441648    1.953853
    110          1           0        8.831750   -2.089665    0.007129
    111          1           0        9.220300   -3.361314    1.133626
    112          1           0        9.639135   -2.305860    2.716471
    113          1           0        8.192295   -1.537059    2.914354
    114          1           0       10.662733   -0.479708    1.396962
    115          1           0        9.704084    1.604607    3.014106
    116          1           0       11.092463    0.466806    3.260402
    117          1           0        9.606597    0.079502    4.053503
    118          1           0        8.635140    1.536757    1.199342
    119          1           0        7.888238    0.024809    0.716004
    120          1           0        8.817310    0.102376   -1.180056
    121          1           0       10.493394    0.328534   -0.643879
    122          1           0        8.693651    2.798888   -0.626655
    123          1           0        9.225243    2.093931   -2.077480
    124          1           0       11.391777    2.474971   -0.211452
    125          1           0       10.185554    4.584674   -0.035136
    126          1           0       10.325748    4.867711   -1.729956
    127          1           0       11.812653    4.800093   -0.699796
    128          1           0       11.631870    3.375155   -3.015760
    129          1           0       11.700950    1.624053   -2.786738
    130          1           0       13.378111    3.360014   -1.054878
    131          1           0       13.719805    3.661679   -2.694095
    132          1           0       15.128570    1.881578   -2.594425
    133          1           0       13.724378    0.797625   -2.355428
    134          1           0       13.924469    1.418959    0.151747
    135          1           0       16.149842    1.970657    0.821981
    136          1           0       15.140696    3.199162    0.152903
    137          1           0       16.432089    2.489770   -0.941171
    138          1           0       16.264913   -0.345602   -0.072658
    139          1           0       15.103810   -0.809902   -1.330581
    140          1           0       14.528499   -0.660391    0.300170
 ---------------------------------------------------------------------

 SCF Done:  E(RCAM-B3LYP) =  -3007.15387303     A.U. after   17 cycles

 Excitation energies and oscillator strengths:

 Excited State   1:      Singlet-A      1.6783 eV  738.74 nm  f=0.3792  <S**2>=0.000
     245 -> 248        0.17842
     246 -> 247        0.68696
     245 <- 248        0.10884
 This state for optimization and/or second-order correction.
 Total Energy, E(TD-HF/TD-DFT) =  -3007.09219558
 Copying the excited state density for this state as the 1-particle RhoCI density.

 Excited State   2:      Singlet-A      2.2634 eV  547.77 nm  f=0.0835  <S**2>=0.000
     245 -> 247        0.62491
     246 -> 248       -0.32249

 Excited State   3:      Singlet-A      3.4661 eV  357.70 nm  f=0.5848  <S**2>=0.000
     239 -> 247        0.10020
     243 -> 247        0.27400
     245 -> 247        0.27133
     246 -> 248        0.56737
     245 <- 247       -0.10175

 Excited State   4:      Singlet-A      3.5635 eV  347.93 nm  f=0.0174  <S**2>=0.000
     241 -> 247        0.49109
     241 -> 249       -0.30856
     241 -> 250       -0.13823
     243 -> 247        0.31980

 Excited State   5:      Singlet-A      3.5980 eV  344.59 nm  f=0.2083  <S**2>=0.000
     241 -> 247       -0.25210
     241 -> 249        0.15756
     243 -> 247        0.52708
     245 -> 247       -0.15554
     246 -> 248       -0.23876

 The electronic state is 1-A.
 Alpha  occ. eigenvalues --  -46.87792 -19.26444 -19.24578 -19.20981 -19.20470
 Alpha  occ. eigenvalues --  -19.19721 -19.18016 -14.42532 -14.41640 -14.40112
 Alpha  occ. eigenvalues --  -14.38971 -10.39862 -10.39740 -10.35397 -10.33803
 Alpha  occ. eigenvalues --  -10.32041 -10.31632 -10.31556 -10.31087 -10.30982
 Alpha  occ. eigenvalues --  -10.30796 -10.30761 -10.30688 -10.29946 -10.29557
 Alpha  occ. eigenvalues --  -10.28473 -10.28297 -10.28106 -10.28023 -10.28019
 Alpha  occ. eigenvalues --  -10.27937 -10.27683 -10.27536 -10.27492 -10.27420
 Alpha  occ. eigenvalues --  -10.27253 -10.27247 -10.27073 -10.26857 -10.26552
 Alpha  occ. eigenvalues --  -10.26448 -10.26426 -10.26218 -10.25658 -10.25630
 Alpha  occ. eigenvalues --  -10.25626 -10.25601 -10.25579 -10.25487 -10.25444
 Alpha  occ. eigenvalues --  -10.25354 -10.25345 -10.24842 -10.24788 -10.24639
 Alpha  occ. eigenvalues --  -10.24625 -10.24618 -10.24613 -10.24582 -10.24549
 Alpha  occ. eigenvalues --  -10.24523 -10.24457 -10.24266 -10.24264 -10.24238
 Alpha  occ. eigenvalues --  -10.24095  -3.16385  -1.91308  -1.90797  -1.90729
 Alpha  occ. eigenvalues --   -1.17520  -1.15803  -1.12638  -1.10265  -1.09633
 Alpha  occ. eigenvalues --   -1.08512  -1.05251  -1.02221  -1.01494  -1.00370
 Alpha  occ. eigenvalues --   -0.92631  -0.90958  -0.89813  -0.89067  -0.88799
 Alpha  occ. eigenvalues --   -0.88310  -0.87771  -0.87709  -0.87624  -0.86567
 Alpha  occ. eigenvalues --   -0.86330  -0.85602  -0.84678  -0.83907  -0.83048
 Alpha  occ. eigenvalues --   -0.82281  -0.81785  -0.81112  -0.80582  -0.80117
 Alpha  occ. eigenvalues --   -0.79773  -0.78975  -0.77881  -0.76946  -0.76330
 Alpha  occ. eigenvalues --   -0.76276  -0.75866  -0.74818  -0.74420  -0.74050
 Alpha  occ. eigenvalues --   -0.73466  -0.72221  -0.71203  -0.70324  -0.69037
 Alpha  occ. eigenvalues --   -0.68542  -0.68212  -0.67438  -0.66592  -0.65334
 Alpha  occ. eigenvalues --   -0.65302  -0.64586  -0.64307  -0.63425  -0.63345
 Alpha  occ. eigenvalues --   -0.62656  -0.62607  -0.62484  -0.62336  -0.60330
 Alpha  occ. eigenvalues --   -0.60097  -0.59972  -0.59644  -0.58999  -0.58391
 Alpha  occ. eigenvalues --   -0.57603  -0.57315  -0.56109  -0.55891  -0.55675
 Alpha  occ. eigenvalues --   -0.55369  -0.55196  -0.54799  -0.54546  -0.54483
 Alpha  occ. eigenvalues --   -0.54296  -0.53475  -0.53411  -0.53180  -0.52837
 Alpha  occ. eigenvalues --   -0.52560  -0.52363  -0.52127  -0.52036  -0.51873
 Alpha  occ. eigenvalues --   -0.51723  -0.51613  -0.51284  -0.50962  -0.50412
 Alpha  occ. eigenvalues --   -0.50223  -0.50024  -0.49989  -0.49885  -0.49469
 Alpha  occ. eigenvalues --   -0.49396  -0.49238  -0.49183  -0.48805  -0.48596
 Alpha  occ. eigenvalues --   -0.48396  -0.48285  -0.48060  -0.47961  -0.47795
 Alpha  occ. eigenvalues --   -0.47736  -0.47420  -0.47347  -0.47283  -0.47186
 Alpha  occ. eigenvalues --   -0.46665  -0.46497  -0.46449  -0.46238  -0.45754
 Alpha  occ. eigenvalues --   -0.45403  -0.45111  -0.44974  -0.44556  -0.44407
 Alpha  occ. eigenvalues --   -0.44236  -0.44191  -0.44137  -0.43983  -0.43891
 Alpha  occ. eigenvalues --   -0.43703  -0.43486  -0.43385  -0.43112  -0.43032
 Alpha  occ. eigenvalues --   -0.42786  -0.42481  -0.42426  -0.42348  -0.41950
 Alpha  occ. eigenvalues --   -0.41907  -0.41670  -0.41527  -0.41476  -0.41062
 Alpha  occ. eigenvalues --   -0.40834  -0.40785  -0.40593  -0.40283  -0.40223
 Alpha  occ. eigenvalues --   -0.40015  -0.39583  -0.39285  -0.39270  -0.38306
 Alpha  occ. eigenvalues --   -0.38093  -0.37907  -0.37625  -0.37602  -0.37363
 Alpha  occ. eigenvalues --   -0.37071  -0.36654  -0.36488  -0.36405  -0.36365
 Alpha  occ. eigenvalues --   -0.36006  -0.35613  -0.35382  -0.34988  -0.34561
 Alpha  occ. eigenvalues --   -0.34123  -0.33610  -0.32916  -0.31270  -0.30895
 Alpha  occ. eigenvalues --   -0.30541  -0.30371  -0.29972  -0.29569  -0.24009
 Alpha  occ. eigenvalues --   -0.20673
 Alpha virt. eigenvalues --   -0.08328  -0.01637   0.00560   0.02298   0.03826
 Alpha virt. eigenvalues --    0.04597   0.04951   0.05494   0.05965   0.06415
 Alpha virt. eigenvalues --    0.07220   0.08097   0.08538   0.08788   0.09175

 Mulliken charges:
               1
     1  Mg   0.834891
     2  C   -0.109555
     3  C   -0.075552
     4  C   -0.081709
     5  C   -0.074043
     6  N   -0.304458
     7  C   -0.029549
     8  C    0.014139
     9  C   -0.155863
    10  C    0.048070
    11  C    0.051948
    12  C    0.114347
    13  C   -0.037125
    14  C    0.190546
    15  O   -0.200179
    16  O   -0.373820
    17  N   -0.378565
    18  C    0.166439
    19  C   -0.163693
    20  C    0.000006
    21  C    0.144907
    22  C    0.145765
    23  C   -0.052932
    24  O   -0.197379
    25  C    0.055728
    26  N   -0.356444
    27  C    0.083554
    28  C   -0.044030
    29  C    0.010846
    30  C    0.053263
    31  C    0.039136
    32  C    0.017305
    33  C    0.004942
    34  N   -0.303425
    35  C    0.087420
    36  C   -0.220101
    37  C    0.013657
    38  C    0.123944
    39  C    0.125422
    40  C    0.001264
    41  O   -0.111118
    42  C    0.024119
    43  C    0.241813
    44  O   -0.207960
    45  O   -0.316914
    46  C    0.195095
    47  C    0.306621
    48  C   -0.142773
    49  C   -0.164918
    50  C    0.066134
    51  C    0.062172
    52  C    0.008032
    53  C    0.041804
    54  C   -0.117587
    55  C    0.051327
    56  C    0.051736
    57  C    0.010795
    58  C    0.045026
    59  C   -0.136307
    60  C    0.030043
    61  C    0.108977
    62  C   -0.031997
    63  C    0.034519
    64  C   -0.165275
    65  C    0.056227
    66  C    0.081653
    67  H   -0.013082
    68  H   -0.004168
    69  H   -0.029211
    70  H    0.016394
    71  H    0.015797
    72  H    0.043034
    73  H    0.008083
    74  H    0.022883
    75  H    0.018467
    76  H    0.014802
    77  H    0.043039
    78  H    0.037823
    79  H    0.018345
    80  H    0.040755
    81  H    0.030437
    82  H    0.037482
    83  H    0.013161
    84  H    0.020228
    85  H    0.017604
    86  H    0.004014
    87  H    0.011599
    88  H    0.011198
    89  H    0.022472
    90  H    0.016099
    91  H    0.009013
    92  H    0.016270
    93  H    0.046329
    94  H    0.003528
    95  H    0.037468
    96  H    0.014026
    97  H    0.026852
    98  H    0.060536
    99  H    0.013452
   100  H    0.035180
   101  H    0.040658
   102  H    0.040330
   103  H    0.022250
   104  H   -0.002175
   105  H    0.026104
   106  H    0.015434
   107  H    0.031746
   108  H    0.007103
   109  H   -0.006023
   110  H    0.012636
   111  H   -0.012826
   112  H   -0.021598
   113  H   -0.006515
   114  H   -0.006719
   115  H    0.014000
   116  H    0.002559
   117  H    0.007291
   118  H   -0.008617
   119  H    0.000798
   120  H    0.001769
   121  H   -0.000454
   122  H   -0.001306
   123  H   -0.024284
   124  H   -0.011353
   125  H    0.001820
   126  H    0.006116
   127  H    0.008622
   128  H   -0.015353
   129  H   -0.003211
   130  H   -0.010661
   131  H   -0.003376
   132  H   -0.001090
   133  H   -0.016269
   134  H   -0.005779
   135  H   -0.003873
   136  H    0.009627
   137  H    0.014265
   138  H    0.011011
   139  H    0.008732
   140  H    0.008345
 Sum of Mulliken charges =  -0.00000

 Dipole moment (field-independent basis, Debye):
    X=              2.7784    Y=              0.7700    Z=              1.8265  Tot=              3.4130
 Quadrupole moment (field-independent basis, Debye-Ang):
   XX=           -386.7732   YY=           -406.4496   ZZ=           -408.1331
   XY=             -6.7261   XZ=              0.6861   YZ=             11.0170

 Normal termination of Gaussian 16 at Wed May  4 19:00:22 2022.
