 Gaussian 16, Revision A.03,
 Gaussian 16:  ES64L-G16RevA.03 25-Dec-2016

 ---------------------------------
 #p PBE1PBE/Def2SVP td=(nstates=5)
 ---------------------------------

 -----------------------------------------------------
 step_401_chromophore_10 TDDFT with PBE1PBE functional
 -----------------------------------------------------
 Symbolic Z-matrix:
 Charge =  0 Multiplicity = 1

                         Standard orientation:
 ---------------------------------------------------------------------
 Center     Atomic      Atomic             Coordinates (Angstroms)
 Number     Number       Type             X           Y           Z
 ---------------------------------------------------------------------
      1         12           0       -5.937475    0.370127   -0.004746
      2          6           0       -3.381115   -2.022804    0.128819
      3          6           0       -3.769232    2.879411    1.255042
      4          6           0       -8.383876    2.705308   -0.331535
      5          6           0       -8.247122   -2.167776   -0.662789
      6          7           0       -3.851787    0.360330    0.697450
      7          6           0       -2.988807   -0.698918    0.522505
      8          6           0       -1.621578   -0.232511    0.876817
      9          6           0       -1.784107    1.266632    1.466064
     10          6           0       -3.260894    1.541098    1.174890
     11          6           0       -1.646004    1.340463    3.078092
     12          6           0       -0.585092   -0.278364   -0.325016
     13          6           0        0.600781   -1.278665   -0.152573
     14          6           0        1.934536   -1.154588   -0.813721
     15          8           0        2.290445   -0.316474   -1.607312
     16          8           0        2.616973   -2.315012   -0.453985
     17          7           0       -6.078192    2.464112    0.382103
     18          6           0       -5.023207    3.310636    0.875334
     19          6           0       -5.528383    4.754122    0.922297
     20          6           0       -6.785819    4.687782    0.264355
     21          6           0       -7.120692    3.263117    0.021633
     22          6           0       -4.751343    5.856278    1.583432
     23          6           0       -7.615794    5.841351   -0.008021
     24          8           0       -8.678858    5.790269   -0.588940
     25          6           0       -7.065857    7.206907    0.210970
     26          7           0       -7.951736    0.307889   -0.542413
     27          6           0       -8.818426    1.412702   -0.555552
     28          6           0      -10.340542    0.999969   -0.648481
     29          6           0      -10.270960   -0.559504   -0.795152
     30          6           0       -8.741011   -0.861318   -0.635081
     31          6           0      -11.206515    1.545513    0.565478
     32          6           0      -10.903248   -1.146134   -2.110454
     33          6           0      -10.015634   -0.810791   -3.342361
     34          7           0       -5.849292   -1.650236   -0.236010
     35          6           0       -6.837197   -2.539414   -0.487959
     36          6           0       -6.281672   -3.896471   -0.507554
     37          6           0       -4.931460   -3.662101   -0.357882
     38          6           0       -4.731337   -2.318231   -0.143862
     39          6           0       -7.002507   -5.179918   -0.717926
     40          6           0       -3.620456   -4.354787   -0.296929
     41          8           0       -3.391910   -5.508372   -0.413430
     42          6           0       -2.492614   -3.268730   -0.002586
     43          6           0       -1.747366   -3.684660    1.145664
     44          8           0       -1.957887   -3.233444    2.255469
     45          8           0       -0.735289   -4.483473    0.672293
     46          6           0        0.179090   -4.807563    1.760465
     47          6           0        3.958585   -2.599054   -0.980854
     48          6           0        5.051401   -2.460664   -0.010523
     49          6           0        6.333683   -2.847861   -0.139435
     50          6           0        6.899712   -3.493859   -1.408461
     51          6           0        7.185780   -2.935548    1.141728
     52          6           0        8.621615   -2.458972    1.011329
     53          6           0        8.998851   -1.601985    2.184259
     54          6           0        9.683903   -0.278888    1.830990
     55          6           0       10.011349    0.570923    3.168573
     56          6           0        8.845892    0.533102    0.827922
     57          6           0        9.476152    0.710499   -0.560647
     58          6           0        9.488178    2.165016   -1.022281
     59          6           0       10.954608    2.858683   -1.133220
     60          6           0       10.826191    4.380024   -0.893736
     61          6           0       11.854901    2.585886   -2.298301
     62          6           0       13.339882    2.881683   -2.033660
     63          6           0       14.313115    1.608704   -1.925212
     64          6           0       14.766436    1.197125   -0.504003
     65          6           0       15.732800    2.326682   -0.120556
     66          6           0       15.235734   -0.236092   -0.412411
     67          1           0       -2.999241    3.603313    1.530830
     68          1           0       -9.165121    3.463269   -0.427873
     69          1           0       -8.976053   -2.963905   -0.826571
     70          1           0       -1.381941   -0.738052    1.812328
     71          1           0       -1.052217    1.964924    1.060588
     72          1           0       -2.665455    1.410887    3.458709
     73          1           0       -1.053852    2.220859    3.329553
     74          1           0       -0.998406    0.537804    3.427587
     75          1           0       -0.205698    0.735126   -0.448939
     76          1           0       -1.091307   -0.589213   -1.239334
     77          1           0        0.254363   -2.246259   -0.513761
     78          1           0        0.745250   -1.415168    0.919006
     79          1           0       -3.902594    5.340954    2.034621
     80          1           0       -5.432017    6.410318    2.228466
     81          1           0       -4.354864    6.573153    0.865259
     82          1           0       -6.240580    7.376898   -0.479708
     83          1           0       -6.780073    7.382896    1.247892
     84          1           0       -7.813593    7.954391   -0.054061
     85          1           0      -10.844313    1.477344   -1.489346
     86          1           0      -10.791268   -0.901345    0.100120
     87          1           0      -11.395989    0.773886    1.312218
     88          1           0      -12.193406    1.942500    0.328126
     89          1           0      -10.716955    2.412536    1.009078
     90          1           0      -11.919455   -0.779334   -2.247281
     91          1           0      -10.902079   -2.228922   -1.979203
     92          1           0       -9.730340   -1.721896   -3.868059
     93          1           0       -9.213396   -0.103342   -3.131306
     94          1           0      -10.781740   -0.378548   -3.986310
     95          1           0       -7.267582   -5.361507   -1.759622
     96          1           0       -7.874877   -5.255974   -0.067724
     97          1           0       -6.317542   -5.927762   -0.318192
     98          1           0       -1.974631   -3.056169   -0.937697
     99          1           0        0.681776   -3.887178    2.057869
    100          1           0        0.988950   -5.453127    1.422442
    101          1           0       -0.228180   -5.194375    2.695472
    102          1           0        4.130796   -2.043821   -1.903057
    103          1           0        3.885156   -3.663414   -1.205461
    104          1           0        4.781224   -1.976828    0.928357
    105          1           0        6.487683   -4.502643   -1.440407
    106          1           0        7.974577   -3.668894   -1.396912
    107          1           0        6.657569   -2.906720   -2.295131
    108          1           0        7.237818   -3.972644    1.473751
    109          1           0        6.652677   -2.441648    1.953853
    110          1           0        8.831750   -2.089665    0.007129
    111          1           0        9.220300   -3.361314    1.133626
    112          1           0        9.639135   -2.305860    2.716471
    113          1           0        8.192295   -1.537059    2.914354
    114          1           0       10.662733   -0.479708    1.396962
    115          1           0        9.704084    1.604607    3.014106
    116          1           0       11.092463    0.466806    3.260402
    117          1           0        9.606597    0.079502    4.053503
    118          1           0        8.635140    1.536757    1.199342
    119          1           0        7.888238    0.024809    0.716004
    120          1           0        8.817310    0.102376   -1.180056
    121          1           0       10.493394    0.328534   -0.643879
    122          1           0        8.693651    2.798888   -0.626655
    123          1           0        9.225243    2.093931   -2.077480
    124          1           0       11.391777    2.474971   -0.211452
    125          1           0       10.185554    4.584674   -0.035136
    126          1           0       10.325748    4.867711   -1.729956
    127          1           0       11.812653    4.800093   -0.699796
    128          1           0       11.631870    3.375155   -3.015760
    129          1           0       11.700950    1.624053   -2.786738
    130          1           0       13.378111    3.360014   -1.054878
    131          1           0       13.719805    3.661679   -2.694095
    132          1           0       15.128570    1.881578   -2.594425
    133          1           0       13.724378    0.797625   -2.355428
    134          1           0       13.924469    1.418959    0.151747
    135          1           0       16.149842    1.970657    0.821981
    136          1           0       15.140696    3.199162    0.152903
    137          1           0       16.432089    2.489770   -0.941171
    138          1           0       16.264913   -0.345602   -0.072658
    139          1           0       15.103810   -0.809902   -1.330581
    140          1           0       14.528499   -0.660391    0.300170
 ---------------------------------------------------------------------

 SCF Done:  E(RPBE1PBE) =  -3005.34258617     A.U. after   15 cycles

 Excitation energies and oscillator strengths:

 Excited State   1:      Singlet-A      1.8276 eV  678.39 nm  f=0.3694  <S**2>=0.000
     245 -> 248        0.17498
     246 -> 247        0.69436
     246 <- 247       -0.11068
 This state for optimization and/or second-order correction.
 Total Energy, E(TD-HF/TD-DFT) =  -3005.27542212
 Copying the excited state density for this state as the 1-particle RhoCI density.

 Excited State   2:      Singlet-A      2.2613 eV  548.30 nm  f=0.0862  <S**2>=0.000
     245 -> 247        0.63818
     246 -> 248       -0.29876

 Excited State   3:      Singlet-A      2.9994 eV  413.37 nm  f=0.0015  <S**2>=0.000
     243 -> 247        0.67107
     243 -> 249       -0.18166

 Excited State   4:      Singlet-A      3.2038 eV  386.99 nm  f=0.0007  <S**2>=0.000
     241 -> 247       -0.35597
     242 -> 247        0.58770

 Excited State   5:      Singlet-A      3.2538 eV  381.04 nm  f=0.0465  <S**2>=0.000
     240 -> 247       -0.14048
     241 -> 247        0.53147
     242 -> 247        0.32786
     246 -> 248        0.24688

 The electronic state is 1-A.
 Alpha  occ. eigenvalues --  -46.91228 -19.27071 -19.25300 -19.21178 -19.20719
 Alpha  occ. eigenvalues --  -19.20012 -19.18083 -14.41954 -14.41417 -14.39715
 Alpha  occ. eigenvalues --  -14.38694 -10.36794 -10.36742 -10.32654 -10.30739
 Alpha  occ. eigenvalues --  -10.29421 -10.29267 -10.28850 -10.28745 -10.28690
 Alpha  occ. eigenvalues --  -10.28637 -10.28436 -10.28364 -10.27510 -10.27349
 Alpha  occ. eigenvalues --  -10.26227 -10.25958 -10.25948 -10.25873 -10.25556
 Alpha  occ. eigenvalues --  -10.25465 -10.25458 -10.25390 -10.25192 -10.25096
 Alpha  occ. eigenvalues --  -10.24928 -10.24831 -10.24768 -10.24575 -10.24454
 Alpha  occ. eigenvalues --  -10.24158 -10.23812 -10.23734 -10.23355 -10.23300
 Alpha  occ. eigenvalues --  -10.23148 -10.23143 -10.23135 -10.23111 -10.23075
 Alpha  occ. eigenvalues --  -10.22984 -10.22602 -10.22413 -10.22274 -10.22225
 Alpha  occ. eigenvalues --  -10.22178 -10.22171 -10.22136 -10.22070 -10.22024
 Alpha  occ. eigenvalues --  -10.22019 -10.21992 -10.21984 -10.21651 -10.21629
 Alpha  occ. eigenvalues --  -10.21624  -3.13401  -1.86266  -1.85733  -1.85667
 Alpha  occ. eigenvalues --   -1.12254  -1.10601  -1.07509  -1.04858  -1.04426
 Alpha  occ. eigenvalues --   -1.03392  -1.00145  -0.96751  -0.96037  -0.95002
 Alpha  occ. eigenvalues --   -0.87030  -0.85078  -0.83884  -0.83201  -0.82963
 Alpha  occ. eigenvalues --   -0.82491  -0.82004  -0.81908  -0.81834  -0.80993
 Alpha  occ. eigenvalues --   -0.80752  -0.79813  -0.78903  -0.78227  -0.77273
 Alpha  occ. eigenvalues --   -0.76486  -0.75983  -0.75321  -0.74922  -0.74380
 Alpha  occ. eigenvalues --   -0.73939  -0.73110  -0.72216  -0.71299  -0.70529
 Alpha  occ. eigenvalues --   -0.70421  -0.70144  -0.69189  -0.68533  -0.68198
 Alpha  occ. eigenvalues --   -0.67794  -0.66701  -0.65655  -0.64653  -0.63435
 Alpha  occ. eigenvalues --   -0.63054  -0.62417  -0.61815  -0.60848  -0.59848
 Alpha  occ. eigenvalues --   -0.59509  -0.59031  -0.58891  -0.57889  -0.57544
 Alpha  occ. eigenvalues --   -0.57229  -0.57020  -0.56767  -0.56528  -0.54680
 Alpha  occ. eigenvalues --   -0.54562  -0.54390  -0.54195  -0.53585  -0.52974
 Alpha  occ. eigenvalues --   -0.52109  -0.51805  -0.50623  -0.50357  -0.50230
 Alpha  occ. eigenvalues --   -0.50021  -0.49623  -0.49333  -0.49057  -0.48913
 Alpha  occ. eigenvalues --   -0.48808  -0.48026  -0.47861  -0.47591  -0.47343
 Alpha  occ. eigenvalues --   -0.46916  -0.46857  -0.46748  -0.46551  -0.46491
 Alpha  occ. eigenvalues --   -0.46277  -0.46145  -0.45767  -0.45487  -0.44994
 Alpha  occ. eigenvalues --   -0.44932  -0.44711  -0.44529  -0.44467  -0.44046
 Alpha  occ. eigenvalues --   -0.43937  -0.43761  -0.43708  -0.43373  -0.43203
 Alpha  occ. eigenvalues --   -0.43091  -0.42916  -0.42655  -0.42633  -0.42419
 Alpha  occ. eigenvalues --   -0.42286  -0.42168  -0.42041  -0.41842  -0.41757
 Alpha  occ. eigenvalues --   -0.41329  -0.41262  -0.41060  -0.41011  -0.40482
 Alpha  occ. eigenvalues --   -0.40042  -0.39838  -0.39779  -0.39338  -0.39193
 Alpha  occ. eigenvalues --   -0.38963  -0.38938  -0.38843  -0.38808  -0.38756
 Alpha  occ. eigenvalues --   -0.38516  -0.38251  -0.38088  -0.37773  -0.37719
 Alpha  occ. eigenvalues --   -0.37659  -0.37338  -0.37161  -0.37087  -0.36717
 Alpha  occ. eigenvalues --   -0.36652  -0.36557  -0.36407  -0.36209  -0.35854
 Alpha  occ. eigenvalues --   -0.35738  -0.35534  -0.35527  -0.35218  -0.35010
 Alpha  occ. eigenvalues --   -0.34953  -0.34388  -0.34289  -0.34037  -0.33281
 Alpha  occ. eigenvalues --   -0.32933  -0.32878  -0.32641  -0.32553  -0.32167
 Alpha  occ. eigenvalues --   -0.31944  -0.31738  -0.31461  -0.31387  -0.31283
 Alpha  occ. eigenvalues --   -0.30896  -0.30347  -0.30246  -0.29881  -0.29546
 Alpha  occ. eigenvalues --   -0.29184  -0.28589  -0.28490  -0.26846  -0.26167
 Alpha  occ. eigenvalues --   -0.25945  -0.25574  -0.25129  -0.24842  -0.20910
 Alpha  occ. eigenvalues --   -0.18352
 Alpha virt. eigenvalues --   -0.10853  -0.05120  -0.03650  -0.02157  -0.00210
 Alpha virt. eigenvalues --    0.00474   0.00987   0.01421   0.01763   0.02786
 Alpha virt. eigenvalues --    0.03999   0.04035   0.04614   0.05345   0.05605

 Mulliken charges:
               1
     1  Mg   0.988154
     2  C   -0.101229
     3  C   -0.067333
     4  C   -0.079196
     5  C   -0.057334
     6  N   -0.414408
     7  C    0.058332
     8  C   -0.061908
     9  C   -0.225474
    10  C    0.079535
    11  C   -0.003379
    12  C    0.063323
    13  C   -0.118445
    14  C    0.261253
    15  O   -0.236652
    16  O   -0.405510
    17  N   -0.485321
    18  C    0.182404
    19  C   -0.180255
    20  C   -0.058822
    21  C    0.179986
    22  C    0.078719
    23  C    0.003082
    24  O   -0.236725
    25  C   -0.021778
    26  N   -0.452201
    27  C    0.109935
    28  C   -0.108802
    29  C   -0.060729
    30  C    0.078906
    31  C   -0.017043
    32  C   -0.046806
    33  C   -0.069088
    34  N   -0.446673
    35  C    0.109385
    36  C   -0.231331
    37  C   -0.040007
    38  C    0.168997
    39  C    0.067870
    40  C    0.110884
    41  O   -0.157345
    42  C   -0.094418
    43  C    0.324942
    44  O   -0.243222
    45  O   -0.347911
    46  C    0.135617
    47  C    0.268620
    48  C   -0.156536
    49  C   -0.209565
    50  C    0.004852
    51  C    0.007385
    52  C   -0.063416
    53  C   -0.009970
    54  C   -0.203524
    55  C   -0.007387
    56  C   -0.003500
    57  C   -0.053861
    58  C   -0.006763
    59  C   -0.226934
    60  C   -0.029205
    61  C    0.048839
    62  C   -0.087718
    63  C   -0.023314
    64  C   -0.260265
    65  C   -0.006586
    66  C    0.019905
    67  H    0.016252
    68  H    0.028454
    69  H    0.003509
    70  H    0.056608
    71  H    0.049829
    72  H    0.071302
    73  H    0.036254
    74  H    0.049254
    75  H    0.050599
    76  H    0.048103
    77  H    0.079315
    78  H    0.070341
    79  H    0.046456
    80  H    0.067966
    81  H    0.057846
    82  H    0.064800
    83  H    0.040167
    84  H    0.047944
    85  H    0.053983
    86  H    0.042532
    87  H    0.038175
    88  H    0.038472
    89  H    0.050456
    90  H    0.048666
    91  H    0.041895
    92  H    0.044361
    93  H    0.075809
    94  H    0.032391
    95  H    0.065679
    96  H    0.042301
    97  H    0.056315
    98  H    0.096875
    99  H    0.037418
   100  H    0.057320
   101  H    0.062954
   102  H    0.065054
   103  H    0.049635
   104  H    0.027667
   105  H    0.053738
   106  H    0.041469
   107  H    0.058489
   108  H    0.040643
   109  H    0.023905
   110  H    0.047944
   111  H    0.022285
   112  H    0.012281
   113  H    0.024661
   114  H    0.030758
   115  H    0.040381
   116  H    0.030278
   117  H    0.034111
   118  H    0.023543
   119  H    0.037593
   120  H    0.034026
   121  H    0.030870
   122  H    0.028257
   123  H    0.011464
   124  H    0.031668
   125  H    0.030087
   126  H    0.033908
   127  H    0.036216
   128  H    0.019558
   129  H    0.027315
   130  H    0.022679
   131  H    0.028251
   132  H    0.032033
   133  H    0.017481
   134  H    0.034521
   135  H    0.025871
   136  H    0.037492
   137  H    0.041415
   138  H    0.037773
   139  H    0.035450
   140  H    0.035591
 Sum of Mulliken charges =  -0.00000

 Dipole moment (field-independent basis, Debye):
    X=              2.5877    Y=              0.2914    Z=              1.7587  Tot=              3.1423
 Quadrupole moment (field-independent basis, Debye-Ang):
   XX=           -379.9533   YY=           -404.2877   ZZ=           -405.5251
   XY=             -3.6383   XZ=              1.9144   YZ=             11.2397

 Normal termination of Gaussian 16 at Wed May  4 19:21:33 2022.
