 Gaussian 16, Revision A.03,
 Gaussian 16:  ES64L-G16RevA.03 25-Dec-2016

 --------------------------------
 #p wB97XD/Def2SVP td=(nstates=5)
 --------------------------------

 ----------------------------------------------------
 step_401_chromophore_10 TDDFT with wB97XD functional
 ----------------------------------------------------
 Symbolic Z-matrix:
 Charge =  0 Multiplicity = 1

                         Standard orientation:
 ---------------------------------------------------------------------
 Center     Atomic      Atomic             Coordinates (Angstroms)
 Number     Number       Type             X           Y           Z
 ---------------------------------------------------------------------
      1         12           0       -5.937475    0.370127   -0.004746
      2          6           0       -3.381115   -2.022804    0.128819
      3          6           0       -3.769232    2.879411    1.255042
      4          6           0       -8.383876    2.705308   -0.331535
      5          6           0       -8.247122   -2.167776   -0.662789
      6          7           0       -3.851787    0.360330    0.697450
      7          6           0       -2.988807   -0.698918    0.522505
      8          6           0       -1.621578   -0.232511    0.876817
      9          6           0       -1.784107    1.266632    1.466064
     10          6           0       -3.260894    1.541098    1.174890
     11          6           0       -1.646004    1.340463    3.078092
     12          6           0       -0.585092   -0.278364   -0.325016
     13          6           0        0.600781   -1.278665   -0.152573
     14          6           0        1.934536   -1.154588   -0.813721
     15          8           0        2.290445   -0.316474   -1.607312
     16          8           0        2.616973   -2.315012   -0.453985
     17          7           0       -6.078192    2.464112    0.382103
     18          6           0       -5.023207    3.310636    0.875334
     19          6           0       -5.528383    4.754122    0.922297
     20          6           0       -6.785819    4.687782    0.264355
     21          6           0       -7.120692    3.263117    0.021633
     22          6           0       -4.751343    5.856278    1.583432
     23          6           0       -7.615794    5.841351   -0.008021
     24          8           0       -8.678858    5.790269   -0.588940
     25          6           0       -7.065857    7.206907    0.210970
     26          7           0       -7.951736    0.307889   -0.542413
     27          6           0       -8.818426    1.412702   -0.555552
     28          6           0      -10.340542    0.999969   -0.648481
     29          6           0      -10.270960   -0.559504   -0.795152
     30          6           0       -8.741011   -0.861318   -0.635081
     31          6           0      -11.206515    1.545513    0.565478
     32          6           0      -10.903248   -1.146134   -2.110454
     33          6           0      -10.015634   -0.810791   -3.342361
     34          7           0       -5.849292   -1.650236   -0.236010
     35          6           0       -6.837197   -2.539414   -0.487959
     36          6           0       -6.281672   -3.896471   -0.507554
     37          6           0       -4.931460   -3.662101   -0.357882
     38          6           0       -4.731337   -2.318231   -0.143862
     39          6           0       -7.002507   -5.179918   -0.717926
     40          6           0       -3.620456   -4.354787   -0.296929
     41          8           0       -3.391910   -5.508372   -0.413430
     42          6           0       -2.492614   -3.268730   -0.002586
     43          6           0       -1.747366   -3.684660    1.145664
     44          8           0       -1.957887   -3.233444    2.255469
     45          8           0       -0.735289   -4.483473    0.672293
     46          6           0        0.179090   -4.807563    1.760465
     47          6           0        3.958585   -2.599054   -0.980854
     48          6           0        5.051401   -2.460664   -0.010523
     49          6           0        6.333683   -2.847861   -0.139435
     50          6           0        6.899712   -3.493859   -1.408461
     51          6           0        7.185780   -2.935548    1.141728
     52          6           0        8.621615   -2.458972    1.011329
     53          6           0        8.998851   -1.601985    2.184259
     54          6           0        9.683903   -0.278888    1.830990
     55          6           0       10.011349    0.570923    3.168573
     56          6           0        8.845892    0.533102    0.827922
     57          6           0        9.476152    0.710499   -0.560647
     58          6           0        9.488178    2.165016   -1.022281
     59          6           0       10.954608    2.858683   -1.133220
     60          6           0       10.826191    4.380024   -0.893736
     61          6           0       11.854901    2.585886   -2.298301
     62          6           0       13.339882    2.881683   -2.033660
     63          6           0       14.313115    1.608704   -1.925212
     64          6           0       14.766436    1.197125   -0.504003
     65          6           0       15.732800    2.326682   -0.120556
     66          6           0       15.235734   -0.236092   -0.412411
     67          1           0       -2.999241    3.603313    1.530830
     68          1           0       -9.165121    3.463269   -0.427873
     69          1           0       -8.976053   -2.963905   -0.826571
     70          1           0       -1.381941   -0.738052    1.812328
     71          1           0       -1.052217    1.964924    1.060588
     72          1           0       -2.665455    1.410887    3.458709
     73          1           0       -1.053852    2.220859    3.329553
     74          1           0       -0.998406    0.537804    3.427587
     75          1           0       -0.205698    0.735126   -0.448939
     76          1           0       -1.091307   -0.589213   -1.239334
     77          1           0        0.254363   -2.246259   -0.513761
     78          1           0        0.745250   -1.415168    0.919006
     79          1           0       -3.902594    5.340954    2.034621
     80          1           0       -5.432017    6.410318    2.228466
     81          1           0       -4.354864    6.573153    0.865259
     82          1           0       -6.240580    7.376898   -0.479708
     83          1           0       -6.780073    7.382896    1.247892
     84          1           0       -7.813593    7.954391   -0.054061
     85          1           0      -10.844313    1.477344   -1.489346
     86          1           0      -10.791268   -0.901345    0.100120
     87          1           0      -11.395989    0.773886    1.312218
     88          1           0      -12.193406    1.942500    0.328126
     89          1           0      -10.716955    2.412536    1.009078
     90          1           0      -11.919455   -0.779334   -2.247281
     91          1           0      -10.902079   -2.228922   -1.979203
     92          1           0       -9.730340   -1.721896   -3.868059
     93          1           0       -9.213396   -0.103342   -3.131306
     94          1           0      -10.781740   -0.378548   -3.986310
     95          1           0       -7.267582   -5.361507   -1.759622
     96          1           0       -7.874877   -5.255974   -0.067724
     97          1           0       -6.317542   -5.927762   -0.318192
     98          1           0       -1.974631   -3.056169   -0.937697
     99          1           0        0.681776   -3.887178    2.057869
    100          1           0        0.988950   -5.453127    1.422442
    101          1           0       -0.228180   -5.194375    2.695472
    102          1           0        4.130796   -2.043821   -1.903057
    103          1           0        3.885156   -3.663414   -1.205461
    104          1           0        4.781224   -1.976828    0.928357
    105          1           0        6.487683   -4.502643   -1.440407
    106          1           0        7.974577   -3.668894   -1.396912
    107          1           0        6.657569   -2.906720   -2.295131
    108          1           0        7.237818   -3.972644    1.473751
    109          1           0        6.652677   -2.441648    1.953853
    110          1           0        8.831750   -2.089665    0.007129
    111          1           0        9.220300   -3.361314    1.133626
    112          1           0        9.639135   -2.305860    2.716471
    113          1           0        8.192295   -1.537059    2.914354
    114          1           0       10.662733   -0.479708    1.396962
    115          1           0        9.704084    1.604607    3.014106
    116          1           0       11.092463    0.466806    3.260402
    117          1           0        9.606597    0.079502    4.053503
    118          1           0        8.635140    1.536757    1.199342
    119          1           0        7.888238    0.024809    0.716004
    120          1           0        8.817310    0.102376   -1.180056
    121          1           0       10.493394    0.328534   -0.643879
    122          1           0        8.693651    2.798888   -0.626655
    123          1           0        9.225243    2.093931   -2.077480
    124          1           0       11.391777    2.474971   -0.211452
    125          1           0       10.185554    4.584674   -0.035136
    126          1           0       10.325748    4.867711   -1.729956
    127          1           0       11.812653    4.800093   -0.699796
    128          1           0       11.631870    3.375155   -3.015760
    129          1           0       11.700950    1.624053   -2.786738
    130          1           0       13.378111    3.360014   -1.054878
    131          1           0       13.719805    3.661679   -2.694095
    132          1           0       15.128570    1.881578   -2.594425
    133          1           0       13.724378    0.797625   -2.355428
    134          1           0       13.924469    1.418959    0.151747
    135          1           0       16.149842    1.970657    0.821981
    136          1           0       15.140696    3.199162    0.152903
    137          1           0       16.432089    2.489770   -0.941171
    138          1           0       16.264913   -0.345602   -0.072658
    139          1           0       15.103810   -0.809902   -1.330581
    140          1           0       14.528499   -0.660391    0.300170
 ---------------------------------------------------------------------

 SCF Done:  E(RwB97XD) =  -3007.85311517     A.U. after   18 cycles

 Excitation energies and oscillator strengths:

 Excited State   1:      Singlet-A      1.6250 eV  762.96 nm  f=0.3775  <S**2>=0.000
     245 -> 248        0.18294
     246 -> 247        0.68464
     245 <- 248        0.11748
 This state for optimization and/or second-order correction.
 Total Energy, E(TD-HF/TD-DFT) =  -3007.79339570
 Copying the excited state density for this state as the 1-particle RhoCI density.

 Excited State   2:      Singlet-A      2.2127 eV  560.32 nm  f=0.0820  <S**2>=0.000
     245 -> 247        0.62351
     246 -> 248       -0.32296

 Excited State   3:      Singlet-A      3.4754 eV  356.75 nm  f=0.5779  <S**2>=0.000
     243 -> 247        0.27642
     245 -> 247        0.26479
     246 -> 248        0.56307
     245 <- 247       -0.10540

 Excited State   4:      Singlet-A      3.5720 eV  347.10 nm  f=0.0042  <S**2>=0.000
     241 -> 247        0.27357
     241 -> 249       -0.18337
     242 -> 247        0.45498
     242 -> 249       -0.31210
     242 -> 250       -0.14537
     243 -> 247        0.18375

 Excited State   5:      Singlet-A      3.6240 eV  342.12 nm  f=0.2484  <S**2>=0.000
     241 -> 247       -0.10854
     242 -> 249        0.12599
     243 -> 247        0.58197
     245 -> 247       -0.17078
     246 -> 248       -0.25335

 The electronic state is 1-A.
 Alpha  occ. eigenvalues --  -46.94138 -19.31649 -19.29843 -19.25900 -19.25405
 Alpha  occ. eigenvalues --  -19.24717 -19.23071 -14.47179 -14.46243 -14.44766
 Alpha  occ. eigenvalues --  -14.43537 -10.43676 -10.43546 -10.39380 -10.37766
 Alpha  occ. eigenvalues --  -10.35912 -10.35639 -10.35360 -10.35180 -10.35091
 Alpha  occ. eigenvalues --  -10.34928 -10.34751 -10.34702 -10.34190 -10.33549
 Alpha  occ. eigenvalues --  -10.32643 -10.32329 -10.32195 -10.32135 -10.32071
 Alpha  occ. eigenvalues --  -10.31937 -10.31610 -10.31575 -10.31570 -10.31414
 Alpha  occ. eigenvalues --  -10.31264 -10.31212 -10.31184 -10.30904 -10.30547
 Alpha  occ. eigenvalues --  -10.30367 -10.30260 -10.30117 -10.29637 -10.29591
 Alpha  occ. eigenvalues --  -10.29521 -10.29514 -10.29506 -10.29394 -10.29343
 Alpha  occ. eigenvalues --  -10.29317 -10.29262 -10.28769 -10.28595 -10.28571
 Alpha  occ. eigenvalues --  -10.28552 -10.28542 -10.28452 -10.28411 -10.28408
 Alpha  occ. eigenvalues --  -10.28407 -10.28388 -10.28272 -10.28100 -10.28055
 Alpha  occ. eigenvalues --  -10.27995  -3.20154  -1.93771  -1.93237  -1.93171
 Alpha  occ. eigenvalues --   -1.19668  -1.17981  -1.14852  -1.12507  -1.11806
 Alpha  occ. eigenvalues --   -1.10728  -1.07262  -1.04237  -1.03531  -1.02379
 Alpha  occ. eigenvalues --   -0.94595  -0.92750  -0.91559  -0.90864  -0.90764
 Alpha  occ. eigenvalues --   -0.90142  -0.89718  -0.89513  -0.89487  -0.88486
 Alpha  occ. eigenvalues --   -0.88242  -0.87455  -0.86556  -0.85824  -0.84936
 Alpha  occ. eigenvalues --   -0.84132  -0.83696  -0.83017  -0.82518  -0.82033
 Alpha  occ. eigenvalues --   -0.81611  -0.80968  -0.79781  -0.78867  -0.78147
 Alpha  occ. eigenvalues --   -0.78107  -0.77751  -0.76748  -0.76228  -0.75871
 Alpha  occ. eigenvalues --   -0.75398  -0.74210  -0.73182  -0.72255  -0.70936
 Alpha  occ. eigenvalues --   -0.70549  -0.70065  -0.69470  -0.68472  -0.67318
 Alpha  occ. eigenvalues --   -0.67147  -0.66574  -0.66308  -0.65290  -0.65222
 Alpha  occ. eigenvalues --   -0.64588  -0.64491  -0.64424  -0.64162  -0.62215
 Alpha  occ. eigenvalues --   -0.62135  -0.61883  -0.61599  -0.60983  -0.60361
 Alpha  occ. eigenvalues --   -0.59539  -0.59292  -0.58004  -0.57792  -0.57632
 Alpha  occ. eigenvalues --   -0.57350  -0.57086  -0.56759  -0.56425  -0.56373
 Alpha  occ. eigenvalues --   -0.56244  -0.55397  -0.55380  -0.55098  -0.54731
 Alpha  occ. eigenvalues --   -0.54536  -0.54243  -0.54014  -0.53916  -0.53801
 Alpha  occ. eigenvalues --   -0.53609  -0.53513  -0.53151  -0.52844  -0.52281
 Alpha  occ. eigenvalues --   -0.52137  -0.51936  -0.51880  -0.51823  -0.51419
 Alpha  occ. eigenvalues --   -0.51328  -0.51179  -0.51051  -0.50757  -0.50506
 Alpha  occ. eigenvalues --   -0.50321  -0.50216  -0.49928  -0.49872  -0.49729
 Alpha  occ. eigenvalues --   -0.49589  -0.49335  -0.49278  -0.49177  -0.49134
 Alpha  occ. eigenvalues --   -0.48546  -0.48408  -0.48337  -0.48169  -0.47711
 Alpha  occ. eigenvalues --   -0.47266  -0.47037  -0.46868  -0.46471  -0.46328
 Alpha  occ. eigenvalues --   -0.46116  -0.46100  -0.45981  -0.45908  -0.45798
 Alpha  occ. eigenvalues --   -0.45652  -0.45423  -0.45294  -0.45031  -0.44901
 Alpha  occ. eigenvalues --   -0.44700  -0.44425  -0.44339  -0.44263  -0.43887
 Alpha  occ. eigenvalues --   -0.43777  -0.43582  -0.43437  -0.43333  -0.42926
 Alpha  occ. eigenvalues --   -0.42774  -0.42632  -0.42514  -0.42217  -0.42070
 Alpha  occ. eigenvalues --   -0.41920  -0.41468  -0.41215  -0.41088  -0.40203
 Alpha  occ. eigenvalues --   -0.39924  -0.39855  -0.39613  -0.39535  -0.39196
 Alpha  occ. eigenvalues --   -0.39004  -0.38559  -0.38497  -0.38329  -0.38257
 Alpha  occ. eigenvalues --   -0.37862  -0.37523  -0.37233  -0.36816  -0.36502
 Alpha  occ. eigenvalues --   -0.36097  -0.35442  -0.35177  -0.33491  -0.32876
 Alpha  occ. eigenvalues --   -0.32551  -0.32487  -0.32181  -0.31591  -0.25948
 Alpha  occ. eigenvalues --   -0.22485
 Alpha virt. eigenvalues --   -0.06673   0.00271   0.02601   0.04431   0.06472
 Alpha virt. eigenvalues --    0.07166   0.07270   0.08016   0.08299   0.09063
 Alpha virt. eigenvalues --    0.10648   0.10743   0.11383   0.12110   0.12276

 Mulliken charges:
               1
     1  Mg   0.976567
     2  C   -0.107049
     3  C   -0.086249
     4  C   -0.097479
     5  C   -0.079948
     6  N   -0.375957
     7  C    0.017856
     8  C   -0.032024
     9  C   -0.203220
    10  C    0.069239
    11  C    0.008030
    12  C    0.074705
    13  C   -0.093501
    14  C    0.251274
    15  O   -0.233227
    16  O   -0.404075
    17  N   -0.456405
    18  C    0.179688
    19  C   -0.173709
    20  C   -0.048845
    21  C    0.173564
    22  C    0.095496
    23  C   -0.002249
    24  O   -0.229378
    25  C   -0.007741
    26  N   -0.429150
    27  C    0.106450
    28  C   -0.094571
    29  C   -0.032713
    30  C    0.071741
    31  C   -0.004446
    32  C   -0.031382
    33  C   -0.050967
    34  N   -0.401258
    35  C    0.100113
    36  C   -0.231824
    37  C   -0.033961
    38  C    0.151216
    39  C    0.079937
    40  C    0.087329
    41  O   -0.148633
    42  C   -0.051686
    43  C    0.301928
    44  O   -0.236259
    45  O   -0.346581
    46  C    0.151938
    47  C    0.280503
    48  C   -0.163050
    49  C   -0.197310
    50  C    0.016240
    51  C    0.025204
    52  C   -0.044061
    53  C    0.006283
    54  C   -0.176597
    55  C    0.006041
    56  C    0.017034
    57  C   -0.034323
    58  C    0.005387
    59  C   -0.188556
    60  C   -0.016465
    61  C    0.061659
    62  C   -0.066955
    63  C   -0.006597
    64  C   -0.224719
    65  C    0.005650
    66  C    0.028755
    67  H    0.012191
    68  H    0.021837
    69  H   -0.003026
    70  H    0.038366
    71  H    0.041029
    72  H    0.064152
    73  H    0.030267
    74  H    0.044452
    75  H    0.043096
    76  H    0.040029
    77  H    0.064960
    78  H    0.061036
    79  H    0.041709
    80  H    0.062834
    81  H    0.053947
    82  H    0.059319
    83  H    0.033928
    84  H    0.047380
    85  H    0.045056
    86  H    0.031167
    87  H    0.032447
    88  H    0.033516
    89  H    0.042636
    90  H    0.041144
    91  H    0.033161
    92  H    0.039596
    93  H    0.065194
    94  H    0.025964
    95  H    0.060471
    96  H    0.036041
    97  H    0.050535
    98  H    0.089241
    99  H    0.031223
   100  H    0.054785
   101  H    0.059083
   102  H    0.061586
   103  H    0.044648
   104  H    0.024328
   105  H    0.048081
   106  H    0.037171
   107  H    0.053603
   108  H    0.033319
   109  H    0.013837
   110  H    0.031382
   111  H    0.014811
   112  H    0.004442
   113  H    0.014460
   114  H    0.018268
   115  H    0.034492
   116  H    0.024299
   117  H    0.028462
   118  H    0.011778
   119  H    0.023168
   120  H    0.026039
   121  H    0.018955
   122  H    0.021691
   123  H    0.001393
   124  H    0.011482
   125  H    0.023759
   126  H    0.027005
   127  H    0.030780
   128  H    0.009175
   129  H    0.020270
   130  H    0.001097
   131  H    0.022695
   132  H    0.022795
   133  H    0.006093
   134  H    0.019523
   135  H    0.019440
   136  H    0.032122
   137  H    0.034648
   138  H    0.033096
   139  H    0.030353
   140  H    0.029987
 Sum of Mulliken charges =  -0.00000

 Dipole moment (field-independent basis, Debye):
    X=              2.7841    Y=              0.9231    Z=              1.9014  Tot=              3.4955
 Quadrupole moment (field-independent basis, Debye-Ang):
   XX=           -381.9342   YY=           -401.4994   ZZ=           -405.1553
   XY=             -7.7878   XZ=              1.1605   YZ=             11.4941

 Normal termination of Gaussian 16 at Wed May  4 19:47:34 2022.
