 Gaussian 16, Revision A.03,
 Gaussian 16:  ES64L-G16RevA.03 25-Dec-2016

 --------------------
 #p ZINDO=(nstates=5)
 --------------------

 -----------------------------
 step_401_chromophore_10 ZINDO
 -----------------------------
 Symbolic Z-matrix:
 Charge =  0 Multiplicity = 1

                         Standard orientation:
 ---------------------------------------------------------------------
 Center     Atomic      Atomic             Coordinates (Angstroms)
 Number     Number       Type             X           Y           Z
 ---------------------------------------------------------------------
      1         12           0       -5.937475    0.370127   -0.004746
      2          6           0       -3.381115   -2.022804    0.128819
      3          6           0       -3.769232    2.879411    1.255042
      4          6           0       -8.383876    2.705308   -0.331535
      5          6           0       -8.247122   -2.167776   -0.662789
      6          7           0       -3.851787    0.360330    0.697450
      7          6           0       -2.988807   -0.698918    0.522505
      8          6           0       -1.621578   -0.232511    0.876817
      9          6           0       -1.784107    1.266632    1.466064
     10          6           0       -3.260894    1.541098    1.174890
     11          6           0       -1.646004    1.340463    3.078092
     12          6           0       -0.585092   -0.278364   -0.325016
     13          6           0        0.600781   -1.278665   -0.152573
     14          6           0        1.934536   -1.154588   -0.813721
     15          8           0        2.290445   -0.316474   -1.607312
     16          8           0        2.616973   -2.315012   -0.453985
     17          7           0       -6.078192    2.464112    0.382103
     18          6           0       -5.023207    3.310636    0.875334
     19          6           0       -5.528383    4.754122    0.922297
     20          6           0       -6.785819    4.687782    0.264355
     21          6           0       -7.120692    3.263117    0.021633
     22          6           0       -4.751343    5.856278    1.583432
     23          6           0       -7.615794    5.841351   -0.008021
     24          8           0       -8.678858    5.790269   -0.588940
     25          6           0       -7.065857    7.206907    0.210970
     26          7           0       -7.951736    0.307889   -0.542413
     27          6           0       -8.818426    1.412702   -0.555552
     28          6           0      -10.340542    0.999969   -0.648481
     29          6           0      -10.270960   -0.559504   -0.795152
     30          6           0       -8.741011   -0.861318   -0.635081
     31          6           0      -11.206515    1.545513    0.565478
     32          6           0      -10.903248   -1.146134   -2.110454
     33          6           0      -10.015634   -0.810791   -3.342361
     34          7           0       -5.849292   -1.650236   -0.236010
     35          6           0       -6.837197   -2.539414   -0.487959
     36          6           0       -6.281672   -3.896471   -0.507554
     37          6           0       -4.931460   -3.662101   -0.357882
     38          6           0       -4.731337   -2.318231   -0.143862
     39          6           0       -7.002507   -5.179918   -0.717926
     40          6           0       -3.620456   -4.354787   -0.296929
     41          8           0       -3.391910   -5.508372   -0.413430
     42          6           0       -2.492614   -3.268730   -0.002586
     43          6           0       -1.747366   -3.684660    1.145664
     44          8           0       -1.957887   -3.233444    2.255469
     45          8           0       -0.735289   -4.483473    0.672293
     46          6           0        0.179090   -4.807563    1.760465
     47          6           0        3.958585   -2.599054   -0.980854
     48          6           0        5.051401   -2.460664   -0.010523
     49          6           0        6.333683   -2.847861   -0.139435
     50          6           0        6.899712   -3.493859   -1.408461
     51          6           0        7.185780   -2.935548    1.141728
     52          6           0        8.621615   -2.458972    1.011329
     53          6           0        8.998851   -1.601985    2.184259
     54          6           0        9.683903   -0.278888    1.830990
     55          6           0       10.011349    0.570923    3.168573
     56          6           0        8.845892    0.533102    0.827922
     57          6           0        9.476152    0.710499   -0.560647
     58          6           0        9.488178    2.165016   -1.022281
     59          6           0       10.954608    2.858683   -1.133220
     60          6           0       10.826191    4.380024   -0.893736
     61          6           0       11.854901    2.585886   -2.298301
     62          6           0       13.339882    2.881683   -2.033660
     63          6           0       14.313115    1.608704   -1.925212
     64          6           0       14.766436    1.197125   -0.504003
     65          6           0       15.732800    2.326682   -0.120556
     66          6           0       15.235734   -0.236092   -0.412411
     67          1           0       -2.999241    3.603313    1.530830
     68          1           0       -9.165121    3.463269   -0.427873
     69          1           0       -8.976053   -2.963905   -0.826571
     70          1           0       -1.381941   -0.738052    1.812328
     71          1           0       -1.052217    1.964924    1.060588
     72          1           0       -2.665455    1.410887    3.458709
     73          1           0       -1.053852    2.220859    3.329553
     74          1           0       -0.998406    0.537804    3.427587
     75          1           0       -0.205698    0.735126   -0.448939
     76          1           0       -1.091307   -0.589213   -1.239334
     77          1           0        0.254363   -2.246259   -0.513761
     78          1           0        0.745250   -1.415168    0.919006
     79          1           0       -3.902594    5.340954    2.034621
     80          1           0       -5.432017    6.410318    2.228466
     81          1           0       -4.354864    6.573153    0.865259
     82          1           0       -6.240580    7.376898   -0.479708
     83          1           0       -6.780073    7.382896    1.247892
     84          1           0       -7.813593    7.954391   -0.054061
     85          1           0      -10.844313    1.477344   -1.489346
     86          1           0      -10.791268   -0.901345    0.100120
     87          1           0      -11.395989    0.773886    1.312218
     88          1           0      -12.193406    1.942500    0.328126
     89          1           0      -10.716955    2.412536    1.009078
     90          1           0      -11.919455   -0.779334   -2.247281
     91          1           0      -10.902079   -2.228922   -1.979203
     92          1           0       -9.730340   -1.721896   -3.868059
     93          1           0       -9.213396   -0.103342   -3.131306
     94          1           0      -10.781740   -0.378548   -3.986310
     95          1           0       -7.267582   -5.361507   -1.759622
     96          1           0       -7.874877   -5.255974   -0.067724
     97          1           0       -6.317542   -5.927762   -0.318192
     98          1           0       -1.974631   -3.056169   -0.937697
     99          1           0        0.681776   -3.887178    2.057869
    100          1           0        0.988950   -5.453127    1.422442
    101          1           0       -0.228180   -5.194375    2.695472
    102          1           0        4.130796   -2.043821   -1.903057
    103          1           0        3.885156   -3.663414   -1.205461
    104          1           0        4.781224   -1.976828    0.928357
    105          1           0        6.487683   -4.502643   -1.440407
    106          1           0        7.974577   -3.668894   -1.396912
    107          1           0        6.657569   -2.906720   -2.295131
    108          1           0        7.237818   -3.972644    1.473751
    109          1           0        6.652677   -2.441648    1.953853
    110          1           0        8.831750   -2.089665    0.007129
    111          1           0        9.220300   -3.361314    1.133626
    112          1           0        9.639135   -2.305860    2.716471
    113          1           0        8.192295   -1.537059    2.914354
    114          1           0       10.662733   -0.479708    1.396962
    115          1           0        9.704084    1.604607    3.014106
    116          1           0       11.092463    0.466806    3.260402
    117          1           0        9.606597    0.079502    4.053503
    118          1           0        8.635140    1.536757    1.199342
    119          1           0        7.888238    0.024809    0.716004
    120          1           0        8.817310    0.102376   -1.180056
    121          1           0       10.493394    0.328534   -0.643879
    122          1           0        8.693651    2.798888   -0.626655
    123          1           0        9.225243    2.093931   -2.077480
    124          1           0       11.391777    2.474971   -0.211452
    125          1           0       10.185554    4.584674   -0.035136
    126          1           0       10.325748    4.867711   -1.729956
    127          1           0       11.812653    4.800093   -0.699796
    128          1           0       11.631870    3.375155   -3.015760
    129          1           0       11.700950    1.624053   -2.786738
    130          1           0       13.378111    3.360014   -1.054878
    131          1           0       13.719805    3.661679   -2.694095
    132          1           0       15.128570    1.881578   -2.594425
    133          1           0       13.724378    0.797625   -2.355428
    134          1           0       13.924469    1.418959    0.151747
    135          1           0       16.149842    1.970657    0.821981
    136          1           0       15.140696    3.199162    0.152903
    137          1           0       16.432089    2.489770   -0.941171
    138          1           0       16.264913   -0.345602   -0.072658
    139          1           0       15.103810   -0.809902   -1.330581
    140          1           0       14.528499   -0.660391    0.300170
 ---------------------------------------------------------------------

 SCF Done:  E(RZINDO/S) =  -474.239915999     A.U. after   19 cycles

 Excitation energies and oscillator strengths:

 Excited State   1:      Singlet-A      1.2550 eV  987.92 nm  f=0.5930  <S**2>=0.000
     175 ->178         0.17189
     176 ->177         0.66726
 This state for optimization and/or second-order correction.
 Total Energy, E(CIS/TDA) =  -474.193795417
 Copying the excited state density for this state as the 1-particle RhoCI density.

 Excited State   2:      Singlet-A      1.9564 eV  633.72 nm  f=0.0119  <S**2>=0.000
     175 ->177         0.51036
     176 ->178        -0.46076

 Excited State   3:      Singlet-A      2.8504 eV  434.97 nm  f=0.0124  <S**2>=0.000
     168 ->177         0.31727
     168 ->179        -0.46990
     168 ->180        -0.17487
     168 ->186        -0.20935
     168 ->187         0.11151
     168 ->190         0.11223

 Excited State   4:      Singlet-A      2.9570 eV  419.30 nm  f=0.7348  <S**2>=0.000
     175 ->177         0.34735
     176 ->178         0.43442
     176 ->179        -0.35163
     176 ->180         0.14501

 Excited State   5:      Singlet-A      3.0442 eV  407.28 nm  f=0.4530  <S**2>=0.000
     175 ->177         0.26902
     176 ->178         0.26370
     176 ->179         0.54877

 The electronic state is 1-A.
 Alpha  occ. eigenvalues --   -1.86231  -1.77683  -1.76679  -1.74328  -1.71415
 Alpha  occ. eigenvalues --   -1.68417  -1.65951  -1.62706  -1.61166  -1.59807
 Alpha  occ. eigenvalues --   -1.55295  -1.51723  -1.51387  -1.47980  -1.45689
 Alpha  occ. eigenvalues --   -1.44205  -1.42739  -1.40528  -1.40071  -1.37903
 Alpha  occ. eigenvalues --   -1.36151  -1.33624  -1.33098  -1.31644  -1.27671
 Alpha  occ. eigenvalues --   -1.27359  -1.23655  -1.22317  -1.20800  -1.17843
 Alpha  occ. eigenvalues --   -1.17819  -1.16775  -1.15793  -1.14466  -1.12955
 Alpha  occ. eigenvalues --   -1.12106  -1.11356  -1.10178  -1.05233  -1.03771
 Alpha  occ. eigenvalues --   -1.02933  -1.00608  -0.97911  -0.97324  -0.96157
 Alpha  occ. eigenvalues --   -0.95600  -0.93898  -0.93150  -0.92894  -0.90390
 Alpha  occ. eigenvalues --   -0.89930  -0.89601  -0.88821  -0.87283  -0.86207
 Alpha  occ. eigenvalues --   -0.85401  -0.83787  -0.82276  -0.81006  -0.80765
 Alpha  occ. eigenvalues --   -0.80269  -0.78703  -0.78584  -0.77724  -0.76991
 Alpha  occ. eigenvalues --   -0.76168  -0.75557  -0.74779  -0.73963  -0.73347
 Alpha  occ. eigenvalues --   -0.73230  -0.71961  -0.71615  -0.71318  -0.70634
 Alpha  occ. eigenvalues --   -0.70014  -0.68913  -0.68664  -0.68452  -0.68071
 Alpha  occ. eigenvalues --   -0.67664  -0.67595  -0.67139  -0.66708  -0.66181
 Alpha  occ. eigenvalues --   -0.66093  -0.64912  -0.64714  -0.63463  -0.63267
 Alpha  occ. eigenvalues --   -0.63090  -0.62827  -0.62427  -0.61826  -0.61567
 Alpha  occ. eigenvalues --   -0.61471  -0.60968  -0.60669  -0.60244  -0.60176
 Alpha  occ. eigenvalues --   -0.59897  -0.59833  -0.59325  -0.58849  -0.57953
 Alpha  occ. eigenvalues --   -0.57742  -0.57436  -0.56862  -0.56384  -0.56102
 Alpha  occ. eigenvalues --   -0.55499  -0.55307  -0.54874  -0.54210  -0.53685
 Alpha  occ. eigenvalues --   -0.53516  -0.53301  -0.52836  -0.52542  -0.52404
 Alpha  occ. eigenvalues --   -0.52240  -0.51915  -0.51836  -0.51729  -0.51472
 Alpha  occ. eigenvalues --   -0.51306  -0.51044  -0.50691  -0.50313  -0.50193
 Alpha  occ. eigenvalues --   -0.50014  -0.49927  -0.49321  -0.49253  -0.48925
 Alpha  occ. eigenvalues --   -0.48768  -0.48487  -0.48246  -0.48043  -0.47545
 Alpha  occ. eigenvalues --   -0.47401  -0.47155  -0.46914  -0.46783  -0.46393
 Alpha  occ. eigenvalues --   -0.46080  -0.45928  -0.45711  -0.45683  -0.45018
 Alpha  occ. eigenvalues --   -0.44946  -0.44873  -0.44339  -0.44212  -0.43738
 Alpha  occ. eigenvalues --   -0.43583  -0.42895  -0.42866  -0.42650  -0.42214
 Alpha  occ. eigenvalues --   -0.42097  -0.41560  -0.41059  -0.39274  -0.39114
 Alpha  occ. eigenvalues --   -0.38577  -0.36605  -0.35087  -0.34628  -0.34196
 Alpha  occ. eigenvalues --   -0.33899  -0.32385  -0.31908  -0.31828  -0.26691
 Alpha  occ. eigenvalues --   -0.21276
 Alpha virt. eigenvalues --   -0.08064  -0.02027  -0.00488   0.00894   0.01969
 Alpha virt. eigenvalues --    0.02765   0.03046   0.03683   0.04697   0.05073
 Alpha virt. eigenvalues --    0.06481   0.06816   0.07043   0.07704   0.07821

 Mulliken charges:
               1
     1  Mg   0.418854
     2  C   -0.033860
     3  C   -0.055819
     4  C   -0.080329
     5  C   -0.086643
     6  N   -0.271840
     7  C    0.092932
     8  C   -0.004979
     9  C   -0.020625
    10  C    0.139302
    11  C   -0.059746
    12  C   -0.023629
    13  C   -0.000499
    14  C    0.478846
    15  O   -0.505826
    16  O   -0.292498
    17  N   -0.336455
    18  C    0.094800
    19  C    0.029071
    20  C   -0.037481
    21  C    0.177118
    22  C   -0.036475
    23  C    0.329606
    24  O   -0.524245
    25  C   -0.032570
    26  N   -0.303793
    27  C    0.161455
    28  C    0.003449
    29  C   -0.000537
    30  C    0.104162
    31  C   -0.057272
    32  C   -0.027350
    33  C   -0.062251
    34  N   -0.287654
    35  C    0.079128
    36  C    0.000777
    37  C   -0.054798
    38  C    0.097533
    39  C   -0.038378
    40  C    0.331000
    41  O   -0.501009
    42  C    0.050778
    43  C    0.507015
    44  O   -0.521202
    45  O   -0.249635
    46  C    0.072380
    47  C    0.112725
    48  C   -0.072029
    49  C   -0.025893
    50  C   -0.044895
    51  C   -0.021482
    52  C   -0.032239
    53  C   -0.029901
    54  C   -0.014562
    55  C   -0.072403
    56  C   -0.033330
    57  C   -0.031781
    58  C   -0.046836
    59  C   -0.008174
    60  C   -0.056857
    61  C   -0.019739
    62  C   -0.049323
    63  C   -0.040861
    64  C   -0.010278
    65  C   -0.059883
    66  C   -0.050389
    67  H    0.034494
    68  H    0.033832
    69  H    0.030309
    70  H    0.047328
    71  H    0.035845
    72  H    0.039916
    73  H    0.013461
    74  H    0.030464
    75  H    0.031985
    76  H    0.027207
    77  H    0.042310
    78  H    0.040755
    79  H    0.032624
    80  H    0.044291
    81  H    0.035564
    82  H    0.038343
    83  H    0.032229
    84  H    0.030844
    85  H    0.034226
    86  H    0.026051
    87  H    0.021112
    88  H    0.019249
    89  H    0.024095
    90  H    0.024301
    91  H    0.019116
    92  H    0.024816
    93  H    0.040260
    94  H    0.010098
    95  H    0.037050
    96  H    0.022949
    97  H    0.027955
    98  H    0.063727
    99  H    0.027099
   100  H    0.030883
   101  H    0.053369
   102  H    0.058220
   103  H    0.037115
   104  H    0.030897
   105  H    0.027551
   106  H    0.020817
   107  H    0.029412
   108  H    0.022677
   109  H    0.021064
   110  H    0.029630
   111  H    0.007798
   112  H    0.004643
   113  H    0.023902
   114  H    0.022232
   115  H    0.030383
   116  H    0.014298
   117  H    0.024246
   118  H    0.018188
   119  H    0.018618
   120  H    0.016030
   121  H    0.024652
   122  H    0.033410
   123  H    0.000098
   124  H    0.009121
   125  H    0.010283
   126  H    0.019287
   127  H    0.020114
   128  H    0.011716
   129  H    0.023871
   130  H    0.013663
   131  H    0.020670
   132  H    0.021619
   133  H    0.008752
   134  H    0.019767
   135  H    0.010213
   136  H    0.021728
   137  H    0.030799
   138  H    0.024530
   139  H    0.021134
   140  H    0.016017
 Sum of Mulliken charges =  -0.00000

 Dipole moment (field-independent basis, Debye):
    X=              3.9622    Y=              4.5081    Z=              3.1595  Tot=              6.7827
 N-N= 4.280983037901D+03 E-N= 0.000000000000D+00  KE=-9.236569740442D+03
 Leave Link  601 at Wed May  4 20:00:06 2022, MaxMem=  6710886400 cpu:               0.8 elap:               0.0
 (Enter /sw/apps/gaussian-16.0/g16/l9999.exe)
 1\1\GINC-BP1-COMPUTE123\SP\RZINDO CIS\STO-3G\C55H74Mg1N4O6\OF15641\04-
 May-2022\0\\#p ZINDO=(nstates=5)\\step_401_chromophore_10 ZINDO\\0,1\M
 g,0,40.925,7.661,28.749\C,0,42.591,8.942,31.553\C,0,38.457,6.15,30.801
 \C,0,39.231,6.601,26.001\C,0,43.627,8.601,26.743\N,0,40.653,7.501,30.9
 27\C,0,41.385,8.22,31.846\C,0,40.737,8.05,33.174\C,0,39.554,6.963,32.9
 74\C,0,39.558,6.797,31.453\C,0,39.921,5.5,33.564\C,0,40.19,9.398,33.81
 \C,0,40.893,9.854,35.127\C,0,40.276,10.719,36.177\O,0,39.185,11.237,36

 Normal termination of Gaussian 16 at Wed May  4 20:00:06 2022.
