 Gaussian 16, Revision A.03,
 Gaussian 16:  ES64L-G16RevA.03 25-Dec-2016

 ------------------------------
 #p blyp/Def2SVP td=(nstates=5)
 ------------------------------

 ---------------------------------------------------
 step_1351_chromophore_20 TDDFT with blyp functional
 ---------------------------------------------------
 Symbolic Z-matrix:
 Charge =  0 Multiplicity = 1

                         Standard orientation:
 ---------------------------------------------------------------------
 Center     Atomic      Atomic             Coordinates (Angstroms)
 Number     Number       Type             X           Y           Z
 ---------------------------------------------------------------------
      1         12           0       -4.212628   -1.633272   -0.562763
      2          6           0       -4.187873    1.911886   -1.042046
      3          6           0       -1.361905   -1.682762   -2.588169
      4          6           0       -3.539172   -4.840427    0.300232
      5          6           0       -6.374473   -1.197803    2.064570
      6          7           0       -2.926840   -0.001654   -1.565212
      7          6           0       -3.101162    1.309735   -1.730226
      8          6           0       -2.016126    1.985450   -2.523368
      9          6           0       -1.317250    0.674079   -3.149642
     10          6           0       -1.866783   -0.463361   -2.318346
     11          6           0       -1.713736    0.501046   -4.669511
     12          6           0       -0.968242    2.835518   -1.791480
     13          6           0       -0.621112    4.157803   -2.362040
     14          6           0        0.002279    5.205851   -1.412221
     15          8           0       -0.591643    6.102749   -0.748764
     16          8           0        1.389840    4.970123   -1.376698
     17          7           0       -2.819018   -3.109653   -1.188273
     18          6           0       -1.721483   -2.865628   -2.053889
     19          6           0       -1.069954   -4.163818   -2.295852
     20          6           0       -1.805168   -5.103509   -1.535683
     21          6           0       -2.823443   -4.364423   -0.810112
     22          6           0        0.132300   -4.169645   -3.245340
     23          6           0       -1.487970   -6.629075   -1.477612
     24          8           0       -0.455849   -6.993680   -1.953638
     25          6           0       -2.431662   -7.654218   -0.873019
     26          7           0       -4.811398   -2.817515    0.963222
     27          6           0       -4.414461   -4.123246    1.211632
     28          6           0       -5.266527   -4.744086    2.299986
     29          6           0       -6.122620   -3.596022    2.854873
     30          6           0       -5.769251   -2.431915    1.907481
     31          6           0       -6.231804   -5.978850    1.794765
     32          6           0       -5.997702   -3.263986    4.345380
     33          6           0       -7.305957   -3.039402    5.192265
     34          7           0       -5.150285   -0.049520    0.320254
     35          6           0       -6.046347    0.011468    1.371389
     36          6           0       -6.481883    1.366587    1.635351
     37          6           0       -5.831197    2.125054    0.650547
     38          6           0       -4.980602    1.219660   -0.073045
     39          6           0       -7.520885    1.846421    2.694578
     40          6           0       -5.729932    3.420679    0.100901
     41          8           0       -6.274348    4.420935    0.453384
     42          6           0       -4.791596    3.278509   -1.191538
     43          6           0       -3.861565    4.474343   -1.270401
     44          8           0       -3.278093    4.964377   -0.341257
     45          8           0       -3.899952    4.924011   -2.595598
     46          6           0       -3.472812    6.323880   -2.802471
     47          6           0        2.141512    5.868911   -0.505647
     48          6           0        3.374508    5.313169    0.044860
     49          6           0        4.224946    5.836995    0.988614
     50          6           0        4.111234    7.176985    1.700265
     51          6           0        5.465845    5.025820    1.520773
     52          6           0        5.090024    3.641527    2.140615
     53          6           0        5.948181    3.328933    3.445519
     54          6           0        6.362385    1.855529    3.676240
     55          6           0        6.614116    1.436331    5.153509
     56          6           0        7.626808    1.558071    2.736758
     57          6           0        7.737162   -0.027373    2.523080
     58          6           0        7.222752   -0.471901    1.117748
     59          6           0        8.281626   -1.155856    0.211087
     60          6           0        7.766724   -0.982520   -1.273511
     61          6           0        8.307383   -2.649225    0.587702
     62          6           0        9.808755   -3.155718    0.710856
     63          6           0       10.245061   -4.102006   -0.396140
     64          6           0       11.274645   -3.522895   -1.328342
     65          6           0       10.893941   -4.226525   -2.706370
     66          6           0       12.638758   -3.909559   -0.899153
     67          1           0       -0.391826   -1.666836   -3.089395
     68          1           0       -3.393176   -5.858563    0.667112
     69          1           0       -7.118529   -1.116838    2.860442
     70          1           0       -2.432793    2.512407   -3.381904
     71          1           0       -0.240685    0.659120   -2.977384
     72          1           0       -2.468724    1.210815   -5.008147
     73          1           0       -2.060969   -0.491749   -4.955375
     74          1           0       -0.798351    0.659481   -5.238256
     75          1           0       -0.011222    2.357867   -1.579283
     76          1           0       -1.286688    3.042040   -0.769953
     77          1           0       -1.491655    4.554515   -2.884098
     78          1           0        0.167573    4.042465   -3.105397
     79          1           0        0.598555   -5.152562   -3.312701
     80          1           0        0.824273   -3.360765   -3.013192
     81          1           0       -0.301752   -3.901410   -4.207883
     82          1           0       -2.111843   -7.724200    0.166465
     83          1           0       -2.355734   -8.556955   -1.479659
     84          1           0       -3.420266   -7.195373   -0.862304
     85          1           0       -4.567174   -5.053404    3.076769
     86          1           0       -7.190174   -3.770076    2.724337
     87          1           0       -7.257975   -5.639648    1.653525
     88          1           0       -6.378966   -6.743174    2.558853
     89          1           0       -6.014721   -6.448815    0.835250
     90          1           0       -5.357868   -2.435354    4.648361
     91          1           0       -5.311967   -3.998847    4.766643
     92          1           0       -7.393094   -1.957786    5.291960
     93          1           0       -7.221428   -3.509776    6.172228
     94          1           0       -8.150766   -3.506658    4.685933
     95          1           0       -8.322558    1.149983    2.940021
     96          1           0       -8.125616    2.716536    2.437855
     97          1           0       -6.962536    2.138026    3.583424
     98          1           0       -5.424451    3.197877   -2.075058
     99          1           0       -3.160910    6.831803   -1.888795
    100          1           0       -4.353774    6.891874   -3.101997
    101          1           0       -2.753754    6.420096   -3.615582
    102          1           0        1.512156    6.151655    0.338435
    103          1           0        2.480425    6.728684   -1.081937
    104          1           0        3.609540    4.282361   -0.216559
    105          1           0        4.112655    6.929770    2.762900
    106          1           0        3.233341    7.794773    1.511766
    107          1           0        5.006048    7.726610    1.411272
    108          1           0        6.126186    5.557194    2.206280
    109          1           0        6.137989    4.855424    0.680712
    110          1           0        5.249449    2.882245    1.374164
    111          1           0        4.041877    3.545102    2.423013
    112          1           0        5.428577    3.696183    4.330628
    113          1           0        6.888341    3.877738    3.379873
    114          1           0        5.500620    1.299104    3.308037
    115          1           0        7.674821    1.328513    5.381505
    116          1           0        6.217969    0.435794    5.327492
    117          1           0        6.024721    2.075261    5.810873
    118          1           0        8.576435    1.931337    3.120657
    119          1           0        7.508188    2.025595    1.758728
    120          1           0        7.063057   -0.501893    3.236535
    121          1           0        8.743709   -0.421999    2.665400
    122          1           0        6.915927    0.395523    0.533392
    123          1           0        6.464346   -1.253628    1.106949
    124          1           0        9.331806   -0.867494    0.164311
    125          1           0        6.730835   -1.298456   -1.397744
    126          1           0        8.361044   -1.583547   -1.961988
    127          1           0        7.848807    0.053503   -1.601431
    128          1           0        7.664456   -3.257798   -0.047775
    129          1           0        7.894164   -2.596117    1.595774
    130          1           0        9.928562   -3.673700    1.661802
    131          1           0       10.503832   -2.325675    0.836441
    132          1           0        9.329036   -4.335851   -0.939581
    133          1           0       10.607410   -5.027108    0.050246
    134          1           0       11.207399   -2.438470   -1.407171
    135          1           0       10.151246   -3.581094   -3.175046
    136          1           0       10.388049   -5.185524   -2.592872
    137          1           0       11.825744   -4.104469   -3.258532
    138          1           0       13.396321   -3.145815   -0.720126
    139          1           0       13.125922   -4.606364   -1.580335
    140          1           0       12.585482   -4.370868    0.086497
 ---------------------------------------------------------------------

 SCF Done:  E(RB-LYP) =  -3007.34801313     A.U. after   21 cycles

 Excitation energies and oscillator strengths:

 Excited State   1:      Singlet-A      1.8398 eV  673.88 nm  f=0.2767  <S**2>=0.000
     245 -> 247        0.10408
     245 -> 248        0.20109
     246 -> 247        0.67654
     246 <- 247       -0.14110
 This state for optimization and/or second-order correction.
 Total Energy, E(TD-HF/TD-DFT) =  -3007.28039997
 Copying the excited state density for this state as the 1-particle RhoCI density.

 Excited State   2:      Singlet-A      1.9410 eV  638.77 nm  f=0.0511  <S**2>=0.000
     243 -> 247        0.43153
     245 -> 247        0.52145
     246 -> 247       -0.11846
     246 -> 248       -0.14821

 Excited State   3:      Singlet-A      1.9922 eV  622.34 nm  f=0.0013  <S**2>=0.000
     244 -> 247        0.70445

 Excited State   4:      Singlet-A      2.0943 eV  592.02 nm  f=0.0006  <S**2>=0.000
     242 -> 247        0.70337

 Excited State   5:      Singlet-A      2.1408 eV  579.16 nm  f=0.0308  <S**2>=0.000
     243 -> 247        0.53745
     245 -> 247       -0.36436
     246 -> 248        0.25452

 The electronic state is 1-A.
 Alpha  occ. eigenvalues --  -46.26942 -18.82215 -18.81712 -18.76861 -18.76844
 Alpha  occ. eigenvalues --  -18.75509 -18.75344 -14.03318 -14.03235 -14.01052
 Alpha  occ. eigenvalues --  -14.00889 -10.04305 -10.03466  -9.99755  -9.98728
 Alpha  occ. eigenvalues --   -9.97223  -9.97217  -9.96806  -9.96485  -9.96277
 Alpha  occ. eigenvalues --   -9.95721  -9.95621  -9.95465  -9.95131  -9.94953
 Alpha  occ. eigenvalues --   -9.94524  -9.94176  -9.93890  -9.93805  -9.93780
 Alpha  occ. eigenvalues --   -9.93738  -9.93671  -9.93435  -9.93363  -9.93077
 Alpha  occ. eigenvalues --   -9.93018  -9.92932  -9.92667  -9.92621  -9.92606
 Alpha  occ. eigenvalues --   -9.92590  -9.92588  -9.92497  -9.92400  -9.92291
 Alpha  occ. eigenvalues --   -9.92282  -9.92231  -9.92138  -9.92116  -9.91973
 Alpha  occ. eigenvalues --   -9.91780  -9.91681  -9.91322  -9.91309  -9.91291
 Alpha  occ. eigenvalues --   -9.91222  -9.91141  -9.91105  -9.90837  -9.90646
 Alpha  occ. eigenvalues --   -9.90570  -9.90524  -9.90450  -9.90431  -9.90084
 Alpha  occ. eigenvalues --   -9.90012  -2.91734  -1.72126  -1.71619  -1.71457
 Alpha  occ. eigenvalues --   -0.96777  -0.96106  -0.93092  -0.92465  -0.90096
 Alpha  occ. eigenvalues --   -0.88127  -0.86813  -0.85861  -0.85720  -0.84547
 Alpha  occ. eigenvalues --   -0.75274  -0.73158  -0.73085  -0.72964  -0.72399
 Alpha  occ. eigenvalues --   -0.72255  -0.71741  -0.70784  -0.70703  -0.69778
 Alpha  occ. eigenvalues --   -0.69071  -0.68865  -0.67618  -0.66957  -0.66909
 Alpha  occ. eigenvalues --   -0.65995  -0.65632  -0.64999  -0.64608  -0.64401
 Alpha  occ. eigenvalues --   -0.63578  -0.62271  -0.62069  -0.61714  -0.60517
 Alpha  occ. eigenvalues --   -0.60255  -0.60162  -0.59859  -0.59128  -0.58362
 Alpha  occ. eigenvalues --   -0.58033  -0.57500  -0.57270  -0.55107  -0.55011
 Alpha  occ. eigenvalues --   -0.54190  -0.53358  -0.52530  -0.52196  -0.51815
 Alpha  occ. eigenvalues --   -0.51306  -0.51140  -0.50410  -0.50307  -0.49678
 Alpha  occ. eigenvalues --   -0.49611  -0.48967  -0.48287  -0.48255  -0.46276
 Alpha  occ. eigenvalues --   -0.46219  -0.45773  -0.45601  -0.45164  -0.44194
 Alpha  occ. eigenvalues --   -0.43993  -0.43060  -0.42691  -0.42231  -0.42036
 Alpha  occ. eigenvalues --   -0.41839  -0.41716  -0.41416  -0.40997  -0.40731
 Alpha  occ. eigenvalues --   -0.40481  -0.40403  -0.40283  -0.39991  -0.39751
 Alpha  occ. eigenvalues --   -0.39469  -0.39400  -0.39232  -0.39138  -0.39052
 Alpha  occ. eigenvalues --   -0.38689  -0.38416  -0.38197  -0.38037  -0.37846
 Alpha  occ. eigenvalues --   -0.37813  -0.37552  -0.37499  -0.37298  -0.37109
 Alpha  occ. eigenvalues --   -0.36905  -0.36755  -0.36499  -0.36302  -0.36077
 Alpha  occ. eigenvalues --   -0.35922  -0.35813  -0.35771  -0.35658  -0.35188
 Alpha  occ. eigenvalues --   -0.35116  -0.34916  -0.34812  -0.34730  -0.34562
 Alpha  occ. eigenvalues --   -0.34482  -0.34350  -0.34110  -0.34108  -0.33899
 Alpha  occ. eigenvalues --   -0.33774  -0.33345  -0.33309  -0.33098  -0.33050
 Alpha  occ. eigenvalues --   -0.32934  -0.32798  -0.32686  -0.32494  -0.32150
 Alpha  occ. eigenvalues --   -0.32104  -0.31913  -0.31728  -0.31349  -0.31309
 Alpha  occ. eigenvalues --   -0.31053  -0.31009  -0.30906  -0.30774  -0.30707
 Alpha  occ. eigenvalues --   -0.30478  -0.30312  -0.30169  -0.30119  -0.29920
 Alpha  occ. eigenvalues --   -0.29777  -0.29712  -0.29317  -0.29290  -0.29015
 Alpha  occ. eigenvalues --   -0.28946  -0.28798  -0.27647  -0.27537  -0.27512
 Alpha  occ. eigenvalues --   -0.27415  -0.27355  -0.27057  -0.26738  -0.26615
 Alpha  occ. eigenvalues --   -0.26211  -0.26200  -0.25808  -0.25358  -0.24836
 Alpha  occ. eigenvalues --   -0.24694  -0.24569  -0.24049  -0.23666  -0.23449
 Alpha  occ. eigenvalues --   -0.23337  -0.22508  -0.21739  -0.20989  -0.20700
 Alpha  occ. eigenvalues --   -0.20319  -0.18971  -0.18647  -0.18492  -0.17181
 Alpha  occ. eigenvalues --   -0.15703
 Alpha virt. eigenvalues --   -0.11275  -0.06895  -0.05683  -0.04194  -0.03868
 Alpha virt. eigenvalues --   -0.03508  -0.02535  -0.01512  -0.01284   0.00125
 Alpha virt. eigenvalues --    0.01214   0.01933   0.02449   0.02905   0.03385

 Mulliken charges:
               1
     1  Mg   0.722474
     2  C   -0.038491
     3  C   -0.097051
     4  C   -0.076211
     5  C   -0.075880
     6  N   -0.172598
     7  C   -0.103719
     8  C    0.088352
     9  C   -0.056454
    10  C    0.056690
    11  C    0.117762
    12  C    0.125933
    13  C    0.144067
    14  C    0.107826
    15  O   -0.200319
    16  O   -0.296640
    17  N   -0.273046
    18  C    0.137902
    19  C   -0.130562
    20  C   -0.015131
    21  C    0.159347
    22  C    0.193898
    23  C   -0.111681
    24  O   -0.135913
    25  C    0.147375
    26  N   -0.297568
    27  C   -0.016274
    28  C    0.098995
    29  C    0.029791
    30  C    0.071394
    31  C    0.094287
    32  C    0.064678
    33  C    0.062278
    34  N   -0.250581
    35  C    0.103027
    36  C   -0.155572
    37  C    0.097278
    38  C    0.083096
    39  C    0.146240
    40  C   -0.067760
    41  O   -0.089865
    42  C    0.060706
    43  C    0.106558
    44  O   -0.119404
    45  O   -0.307763
    46  C    0.202203
    47  C    0.339650
    48  C   -0.108488
    49  C   -0.168974
    50  C    0.133677
    51  C    0.111160
    52  C    0.064560
    53  C    0.080798
    54  C   -0.081626
    55  C    0.128014
    56  C    0.078251
    57  C    0.102761
    58  C    0.096655
    59  C   -0.112031
    60  C    0.072802
    61  C    0.115900
    62  C    0.069135
    63  C    0.116019
    64  C   -0.104754
    65  C    0.104845
    66  C    0.128991
    67  H   -0.055341
    68  H   -0.074495
    69  H   -0.074232
    70  H   -0.021332
    71  H   -0.020555
    72  H   -0.004392
    73  H   -0.005507
    74  H   -0.008435
    75  H   -0.026239
    76  H   -0.008612
    77  H   -0.020785
    78  H   -0.021216
    79  H    0.011390
    80  H    0.002512
    81  H   -0.010424
    82  H    0.023263
    83  H    0.013837
    84  H   -0.005098
    85  H   -0.020667
    86  H   -0.021598
    87  H   -0.018209
    88  H   -0.004183
    89  H    0.001558
    90  H   -0.030820
    91  H   -0.045360
    92  H    0.015610
    93  H   -0.005811
    94  H   -0.006492
    95  H   -0.009907
    96  H    0.000182
    97  H    0.007316
    98  H    0.003595
    99  H    0.043632
   100  H    0.000435
   101  H    0.018763
   102  H    0.019828
   103  H    0.003102
   104  H   -0.039829
   105  H    0.004654
   106  H   -0.011916
   107  H    0.004011
   108  H   -0.032374
   109  H   -0.019857
   110  H   -0.020147
   111  H   -0.017952
   112  H   -0.037559
   113  H   -0.033818
   114  H   -0.035939
   115  H   -0.009820
   116  H   -0.019862
   117  H   -0.016858
   118  H   -0.029567
   119  H   -0.030113
   120  H   -0.027853
   121  H   -0.026108
   122  H   -0.032805
   123  H   -0.029757
   124  H   -0.036850
   125  H   -0.021382
   126  H   -0.022687
   127  H   -0.017353
   128  H   -0.022318
   129  H   -0.040990
   130  H   -0.051911
   131  H   -0.037110
   132  H   -0.044663
   133  H   -0.035018
   134  H   -0.031772
   135  H   -0.023196
   136  H    0.004987
   137  H   -0.020477
   138  H   -0.028283
   139  H   -0.023126
   140  H   -0.030713
 Sum of Mulliken charges =  -0.00000

 Dipole moment (field-independent basis, Debye):
    X=             -0.5776    Y=             -3.0101    Z=             -0.3862  Tot=              3.0893
 Quadrupole moment (field-independent basis, Debye-Ang):
   XX=           -386.1156   YY=           -428.2769   ZZ=           -384.8432
   XY=             51.3110   XZ=              3.3797   YZ=            -26.8447

 Normal termination of Gaussian 16 at Thu Apr 28 00:31:08 2022.
