 Gaussian 16, Revision A.03,
 Gaussian 16:  ES64L-G16RevA.03 25-Dec-2016

 -----------------------------------
 #p cam-b3lyp/Def2SVP td=(nstates=5)
 -----------------------------------

 --------------------------------------------------------
 step_1351_chromophore_20 TDDFT with cam-b3lyp functional
 --------------------------------------------------------
 Symbolic Z-matrix:
 Charge =  0 Multiplicity = 1

                         Standard orientation:
 ---------------------------------------------------------------------
 Center     Atomic      Atomic             Coordinates (Angstroms)
 Number     Number       Type             X           Y           Z
 ---------------------------------------------------------------------
      1         12           0       -4.212628   -1.633272   -0.562763
      2          6           0       -4.187873    1.911886   -1.042046
      3          6           0       -1.361905   -1.682762   -2.588169
      4          6           0       -3.539172   -4.840427    0.300232
      5          6           0       -6.374473   -1.197803    2.064570
      6          7           0       -2.926840   -0.001654   -1.565212
      7          6           0       -3.101162    1.309735   -1.730226
      8          6           0       -2.016126    1.985450   -2.523368
      9          6           0       -1.317250    0.674079   -3.149642
     10          6           0       -1.866783   -0.463361   -2.318346
     11          6           0       -1.713736    0.501046   -4.669511
     12          6           0       -0.968242    2.835518   -1.791480
     13          6           0       -0.621112    4.157803   -2.362040
     14          6           0        0.002279    5.205851   -1.412221
     15          8           0       -0.591643    6.102749   -0.748764
     16          8           0        1.389840    4.970123   -1.376698
     17          7           0       -2.819018   -3.109653   -1.188273
     18          6           0       -1.721483   -2.865628   -2.053889
     19          6           0       -1.069954   -4.163818   -2.295852
     20          6           0       -1.805168   -5.103509   -1.535683
     21          6           0       -2.823443   -4.364423   -0.810112
     22          6           0        0.132300   -4.169645   -3.245340
     23          6           0       -1.487970   -6.629075   -1.477612
     24          8           0       -0.455849   -6.993680   -1.953638
     25          6           0       -2.431662   -7.654218   -0.873019
     26          7           0       -4.811398   -2.817515    0.963222
     27          6           0       -4.414461   -4.123246    1.211632
     28          6           0       -5.266527   -4.744086    2.299986
     29          6           0       -6.122620   -3.596022    2.854873
     30          6           0       -5.769251   -2.431915    1.907481
     31          6           0       -6.231804   -5.978850    1.794765
     32          6           0       -5.997702   -3.263986    4.345380
     33          6           0       -7.305957   -3.039402    5.192265
     34          7           0       -5.150285   -0.049520    0.320254
     35          6           0       -6.046347    0.011468    1.371389
     36          6           0       -6.481883    1.366587    1.635351
     37          6           0       -5.831197    2.125054    0.650547
     38          6           0       -4.980602    1.219660   -0.073045
     39          6           0       -7.520885    1.846421    2.694578
     40          6           0       -5.729932    3.420679    0.100901
     41          8           0       -6.274348    4.420935    0.453384
     42          6           0       -4.791596    3.278509   -1.191538
     43          6           0       -3.861565    4.474343   -1.270401
     44          8           0       -3.278093    4.964377   -0.341257
     45          8           0       -3.899952    4.924011   -2.595598
     46          6           0       -3.472812    6.323880   -2.802471
     47          6           0        2.141512    5.868911   -0.505647
     48          6           0        3.374508    5.313169    0.044860
     49          6           0        4.224946    5.836995    0.988614
     50          6           0        4.111234    7.176985    1.700265
     51          6           0        5.465845    5.025820    1.520773
     52          6           0        5.090024    3.641527    2.140615
     53          6           0        5.948181    3.328933    3.445519
     54          6           0        6.362385    1.855529    3.676240
     55          6           0        6.614116    1.436331    5.153509
     56          6           0        7.626808    1.558071    2.736758
     57          6           0        7.737162   -0.027373    2.523080
     58          6           0        7.222752   -0.471901    1.117748
     59          6           0        8.281626   -1.155856    0.211087
     60          6           0        7.766724   -0.982520   -1.273511
     61          6           0        8.307383   -2.649225    0.587702
     62          6           0        9.808755   -3.155718    0.710856
     63          6           0       10.245061   -4.102006   -0.396140
     64          6           0       11.274645   -3.522895   -1.328342
     65          6           0       10.893941   -4.226525   -2.706370
     66          6           0       12.638758   -3.909559   -0.899153
     67          1           0       -0.391826   -1.666836   -3.089395
     68          1           0       -3.393176   -5.858563    0.667112
     69          1           0       -7.118529   -1.116838    2.860442
     70          1           0       -2.432793    2.512407   -3.381904
     71          1           0       -0.240685    0.659120   -2.977384
     72          1           0       -2.468724    1.210815   -5.008147
     73          1           0       -2.060969   -0.491749   -4.955375
     74          1           0       -0.798351    0.659481   -5.238256
     75          1           0       -0.011222    2.357867   -1.579283
     76          1           0       -1.286688    3.042040   -0.769953
     77          1           0       -1.491655    4.554515   -2.884098
     78          1           0        0.167573    4.042465   -3.105397
     79          1           0        0.598555   -5.152562   -3.312701
     80          1           0        0.824273   -3.360765   -3.013192
     81          1           0       -0.301752   -3.901410   -4.207883
     82          1           0       -2.111843   -7.724200    0.166465
     83          1           0       -2.355734   -8.556955   -1.479659
     84          1           0       -3.420266   -7.195373   -0.862304
     85          1           0       -4.567174   -5.053404    3.076769
     86          1           0       -7.190174   -3.770076    2.724337
     87          1           0       -7.257975   -5.639648    1.653525
     88          1           0       -6.378966   -6.743174    2.558853
     89          1           0       -6.014721   -6.448815    0.835250
     90          1           0       -5.357868   -2.435354    4.648361
     91          1           0       -5.311967   -3.998847    4.766643
     92          1           0       -7.393094   -1.957786    5.291960
     93          1           0       -7.221428   -3.509776    6.172228
     94          1           0       -8.150766   -3.506658    4.685933
     95          1           0       -8.322558    1.149983    2.940021
     96          1           0       -8.125616    2.716536    2.437855
     97          1           0       -6.962536    2.138026    3.583424
     98          1           0       -5.424451    3.197877   -2.075058
     99          1           0       -3.160910    6.831803   -1.888795
    100          1           0       -4.353774    6.891874   -3.101997
    101          1           0       -2.753754    6.420096   -3.615582
    102          1           0        1.512156    6.151655    0.338435
    103          1           0        2.480425    6.728684   -1.081937
    104          1           0        3.609540    4.282361   -0.216559
    105          1           0        4.112655    6.929770    2.762900
    106          1           0        3.233341    7.794773    1.511766
    107          1           0        5.006048    7.726610    1.411272
    108          1           0        6.126186    5.557194    2.206280
    109          1           0        6.137989    4.855424    0.680712
    110          1           0        5.249449    2.882245    1.374164
    111          1           0        4.041877    3.545102    2.423013
    112          1           0        5.428577    3.696183    4.330628
    113          1           0        6.888341    3.877738    3.379873
    114          1           0        5.500620    1.299104    3.308037
    115          1           0        7.674821    1.328513    5.381505
    116          1           0        6.217969    0.435794    5.327492
    117          1           0        6.024721    2.075261    5.810873
    118          1           0        8.576435    1.931337    3.120657
    119          1           0        7.508188    2.025595    1.758728
    120          1           0        7.063057   -0.501893    3.236535
    121          1           0        8.743709   -0.421999    2.665400
    122          1           0        6.915927    0.395523    0.533392
    123          1           0        6.464346   -1.253628    1.106949
    124          1           0        9.331806   -0.867494    0.164311
    125          1           0        6.730835   -1.298456   -1.397744
    126          1           0        8.361044   -1.583547   -1.961988
    127          1           0        7.848807    0.053503   -1.601431
    128          1           0        7.664456   -3.257798   -0.047775
    129          1           0        7.894164   -2.596117    1.595774
    130          1           0        9.928562   -3.673700    1.661802
    131          1           0       10.503832   -2.325675    0.836441
    132          1           0        9.329036   -4.335851   -0.939581
    133          1           0       10.607410   -5.027108    0.050246
    134          1           0       11.207399   -2.438470   -1.407171
    135          1           0       10.151246   -3.581094   -3.175046
    136          1           0       10.388049   -5.185524   -2.592872
    137          1           0       11.825744   -4.104469   -3.258532
    138          1           0       13.396321   -3.145815   -0.720126
    139          1           0       13.125922   -4.606364   -1.580335
    140          1           0       12.585482   -4.370868    0.086497
 ---------------------------------------------------------------------

 SCF Done:  E(RCAM-B3LYP) =  -3007.14045041     A.U. after   17 cycles

 Excitation energies and oscillator strengths:

 Excited State   1:      Singlet-A      1.7512 eV  708.01 nm  f=0.3610  <S**2>=0.000
     245 -> 248       -0.18474
     246 -> 247        0.68448
     245 <- 248       -0.10721
 This state for optimization and/or second-order correction.
 Total Energy, E(TD-HF/TD-DFT) =  -3007.07609585
 Copying the excited state density for this state as the 1-particle RhoCI density.

 Excited State   2:      Singlet-A      2.2887 eV  541.73 nm  f=0.0820  <S**2>=0.000
     245 -> 247        0.62074
     246 -> 248        0.32723

 Excited State   3:      Singlet-A      3.4248 eV  362.02 nm  f=0.0153  <S**2>=0.000
     242 -> 247       -0.28788
     243 -> 247        0.59573
     246 -> 248       -0.13516

 Excited State   4:      Singlet-A      3.4554 eV  358.81 nm  f=0.3397  <S**2>=0.000
     241 -> 247        0.20369
     242 -> 247        0.27905
     243 -> 247        0.24436
     245 -> 247       -0.22675
     246 -> 248        0.46867

 Excited State   5:      Singlet-A      3.6298 eV  341.58 nm  f=0.4090  <S**2>=0.000
     240 -> 247       -0.10956
     241 -> 247        0.37486
     241 -> 249        0.13390
     241 -> 251       -0.12834
     242 -> 247        0.26604
     245 -> 247        0.22854
     246 -> 248       -0.36920

 The electronic state is 1-A.
 Alpha  occ. eigenvalues --  -46.88529 -19.25028 -19.24609 -19.19933 -19.19809
 Alpha  occ. eigenvalues --  -19.18932 -19.18203 -14.42376 -14.42003 -14.39529
 Alpha  occ. eigenvalues --  -14.39354 -10.39741 -10.38896 -10.35088 -10.33714
 Alpha  occ. eigenvalues --  -10.32115 -10.31120 -10.30806 -10.30712 -10.30509
 Alpha  occ. eigenvalues --  -10.30452 -10.30230 -10.29670 -10.29360 -10.29182
 Alpha  occ. eigenvalues --  -10.28684 -10.28539 -10.28209 -10.28192 -10.27821
 Alpha  occ. eigenvalues --  -10.27804 -10.27710 -10.27621 -10.27300 -10.27221
 Alpha  occ. eigenvalues --  -10.27143 -10.27117 -10.26905 -10.26484 -10.26482
 Alpha  occ. eigenvalues --  -10.26422 -10.26401 -10.26399 -10.26382 -10.26308
 Alpha  occ. eigenvalues --  -10.26180 -10.25995 -10.25994 -10.25878 -10.25584
 Alpha  occ. eigenvalues --  -10.25501 -10.25435 -10.25285 -10.25031 -10.24992
 Alpha  occ. eigenvalues --  -10.24955 -10.24847 -10.24698 -10.24561 -10.24285
 Alpha  occ. eigenvalues --  -10.24284 -10.24281 -10.24123 -10.24118 -10.23654
 Alpha  occ. eigenvalues --  -10.23651  -3.17225  -1.92091  -1.91680  -1.91533
 Alpha  occ. eigenvalues --   -1.15295  -1.14389  -1.11786  -1.10640  -1.07978
 Alpha  occ. eigenvalues --   -1.05886  -1.04599  -1.03600  -1.03280  -1.02066
 Alpha  occ. eigenvalues --   -0.92320  -0.89986  -0.89936  -0.89900  -0.89191
 Alpha  occ. eigenvalues --   -0.88840  -0.88462  -0.87379  -0.87294  -0.86333
 Alpha  occ. eigenvalues --   -0.85585  -0.85309  -0.83887  -0.83167  -0.82983
 Alpha  occ. eigenvalues --   -0.82057  -0.81783  -0.80993  -0.80391  -0.80192
 Alpha  occ. eigenvalues --   -0.79366  -0.77883  -0.77802  -0.77227  -0.75884
 Alpha  occ. eigenvalues --   -0.75574  -0.75562  -0.75174  -0.74445  -0.73460
 Alpha  occ. eigenvalues --   -0.73115  -0.72471  -0.72232  -0.69854  -0.69613
 Alpha  occ. eigenvalues --   -0.68752  -0.67903  -0.66975  -0.66611  -0.65862
 Alpha  occ. eigenvalues --   -0.65491  -0.65437  -0.64792  -0.64204  -0.63706
 Alpha  occ. eigenvalues --   -0.63398  -0.62896  -0.62157  -0.61943  -0.60009
 Alpha  occ. eigenvalues --   -0.59871  -0.59189  -0.59090  -0.58510  -0.57545
 Alpha  occ. eigenvalues --   -0.57437  -0.56461  -0.55842  -0.55664  -0.55122
 Alpha  occ. eigenvalues --   -0.54957  -0.54673  -0.54551  -0.53741  -0.53574
 Alpha  occ. eigenvalues --   -0.53291  -0.53146  -0.53122  -0.52840  -0.52524
 Alpha  occ. eigenvalues --   -0.52254  -0.52129  -0.51821  -0.51761  -0.51579
 Alpha  occ. eigenvalues --   -0.51161  -0.50957  -0.50661  -0.50516  -0.50429
 Alpha  occ. eigenvalues --   -0.50147  -0.49908  -0.49782  -0.49479  -0.49430
 Alpha  occ. eigenvalues --   -0.49261  -0.49101  -0.49038  -0.48744  -0.48547
 Alpha  occ. eigenvalues --   -0.48341  -0.48160  -0.47984  -0.47772  -0.47580
 Alpha  occ. eigenvalues --   -0.47198  -0.46985  -0.46745  -0.46648  -0.46587
 Alpha  occ. eigenvalues --   -0.46494  -0.46068  -0.46055  -0.45973  -0.45942
 Alpha  occ. eigenvalues --   -0.45502  -0.45198  -0.44967  -0.44914  -0.44725
 Alpha  occ. eigenvalues --   -0.44673  -0.44490  -0.44299  -0.44083  -0.43805
 Alpha  occ. eigenvalues --   -0.43688  -0.43436  -0.43257  -0.42997  -0.42885
 Alpha  occ. eigenvalues --   -0.42674  -0.42633  -0.42398  -0.42211  -0.42111
 Alpha  occ. eigenvalues --   -0.41724  -0.41625  -0.41479  -0.41437  -0.41318
 Alpha  occ. eigenvalues --   -0.41158  -0.40832  -0.40617  -0.40531  -0.40393
 Alpha  occ. eigenvalues --   -0.40057  -0.39904  -0.38738  -0.38575  -0.38425
 Alpha  occ. eigenvalues --   -0.38371  -0.38222  -0.37897  -0.37550  -0.37529
 Alpha  occ. eigenvalues --   -0.37389  -0.36932  -0.36576  -0.36331  -0.36119
 Alpha  occ. eigenvalues --   -0.35945  -0.35306  -0.34742  -0.34450  -0.34102
 Alpha  occ. eigenvalues --   -0.33794  -0.33153  -0.32791  -0.31157  -0.30983
 Alpha  occ. eigenvalues --   -0.30224  -0.30020  -0.29646  -0.28547  -0.24114
 Alpha  occ. eigenvalues --   -0.21002
 Alpha virt. eigenvalues --   -0.08259  -0.01854   0.00914   0.01282   0.02938
 Alpha virt. eigenvalues --    0.04263   0.05300   0.05703   0.06200   0.06947
 Alpha virt. eigenvalues --    0.08012   0.08454   0.09010   0.09040   0.09569

 Mulliken charges:
               1
     1  Mg   0.853823
     2  C   -0.055041
     3  C   -0.109076
     4  C   -0.109619
     5  C   -0.082313
     6  N   -0.236658
     7  C   -0.057556
     8  C    0.030238
     9  C   -0.109025
    10  C    0.074160
    11  C    0.059888
    12  C    0.068948
    13  C    0.076844
    14  C    0.189047
    15  O   -0.241056
    16  O   -0.362498
    17  N   -0.362119
    18  C    0.145348
    19  C   -0.129913
    20  C   -0.083234
    21  C    0.193812
    22  C    0.134659
    23  C   -0.028644
    24  O   -0.175496
    25  C    0.066236
    26  N   -0.374632
    27  C    0.024674
    28  C    0.030388
    29  C   -0.025528
    30  C    0.092160
    31  C    0.039245
    32  C    0.006138
    33  C    0.002243
    34  N   -0.339609
    35  C    0.102160
    36  C   -0.152269
    37  C    0.015604
    38  C    0.111908
    39  C    0.098494
    40  C    0.031721
    41  O   -0.131773
    42  C   -0.018055
    43  C    0.188973
    44  O   -0.153197
    45  O   -0.372095
    46  C    0.161612
    47  C    0.308095
    48  C   -0.131060
    49  C   -0.192084
    50  C    0.072644
    51  C    0.056373
    52  C    0.009444
    53  C    0.030806
    54  C   -0.136691
    55  C    0.068768
    56  C    0.027566
    57  C    0.047348
    58  C    0.043086
    59  C   -0.162709
    60  C    0.022404
    61  C    0.057852
    62  C    0.014517
    63  C    0.058006
    64  C   -0.164759
    65  C    0.046252
    66  C    0.064287
    67  H   -0.018561
    68  H   -0.039452
    69  H   -0.040041
    70  H    0.015562
    71  H    0.012996
    72  H    0.020887
    73  H    0.020118
    74  H    0.016203
    75  H    0.005818
    76  H    0.024936
    77  H    0.007774
    78  H    0.013467
    79  H    0.044197
    80  H    0.028347
    81  H    0.017943
    82  H    0.050201
    83  H    0.046955
    84  H    0.022236
    85  H    0.014991
    86  H    0.012416
    87  H    0.007440
    88  H    0.021163
    89  H    0.024447
    90  H    0.001820
    91  H   -0.015980
    92  H    0.035528
    93  H    0.019127
    94  H    0.015066
    95  H    0.012886
    96  H    0.026950
    97  H    0.031874
    98  H    0.047583
    99  H    0.070662
   100  H    0.024924
   101  H    0.037600
   102  H    0.049541
   103  H    0.028693
   104  H   -0.005217
   105  H    0.027550
   106  H    0.013469
   107  H    0.027283
   108  H   -0.001056
   109  H    0.009789
   110  H    0.004384
   111  H    0.012209
   112  H   -0.008564
   113  H   -0.007766
   114  H   -0.004924
   115  H    0.013894
   116  H    0.004166
   117  H    0.008069
   118  H   -0.000442
   119  H   -0.004171
   120  H   -0.000646
   121  H    0.001427
   122  H   -0.006281
   123  H   -0.001049
   124  H   -0.006500
   125  H    0.001632
   126  H   -0.002161
   127  H    0.007237
   128  H    0.005608
   129  H   -0.010198
   130  H   -0.019768
   131  H   -0.010065
   132  H   -0.015889
   133  H   -0.004205
   134  H   -0.001147
   135  H    0.000025
   136  H    0.028174
   137  H    0.004225
   138  H   -0.001720
   139  H    0.002873
   140  H   -0.005620
 Sum of Mulliken charges =  -0.00000

 Dipole moment (field-independent basis, Debye):
    X=             -0.1873    Y=             -3.8454    Z=             -0.8470  Tot=              3.9421
 Quadrupole moment (field-independent basis, Debye-Ang):
   XX=           -387.5383   YY=           -423.9529   ZZ=           -382.8909
   XY=             54.4490   XZ=              4.0652   YZ=            -27.4801

 Normal termination of Gaussian 16 at Wed Apr 27 23:09:59 2022.
