 Gaussian 16, Revision A.03,
 Gaussian 16:  ES64L-G16RevA.03 25-Dec-2016

 ---------------------------------
 #p PBE1PBE/Def2SVP td=(nstates=5)
 ---------------------------------

 ------------------------------------------------------
 step_1351_chromophore_20 TDDFT with PBE1PBE functional
 ------------------------------------------------------
 Symbolic Z-matrix:
 Charge =  0 Multiplicity = 1

                         Standard orientation:
 ---------------------------------------------------------------------
 Center     Atomic      Atomic             Coordinates (Angstroms)
 Number     Number       Type             X           Y           Z
 ---------------------------------------------------------------------
      1         12           0       -4.212628   -1.633272   -0.562763
      2          6           0       -4.187873    1.911886   -1.042046
      3          6           0       -1.361905   -1.682762   -2.588169
      4          6           0       -3.539172   -4.840427    0.300232
      5          6           0       -6.374473   -1.197803    2.064570
      6          7           0       -2.926840   -0.001654   -1.565212
      7          6           0       -3.101162    1.309735   -1.730226
      8          6           0       -2.016126    1.985450   -2.523368
      9          6           0       -1.317250    0.674079   -3.149642
     10          6           0       -1.866783   -0.463361   -2.318346
     11          6           0       -1.713736    0.501046   -4.669511
     12          6           0       -0.968242    2.835518   -1.791480
     13          6           0       -0.621112    4.157803   -2.362040
     14          6           0        0.002279    5.205851   -1.412221
     15          8           0       -0.591643    6.102749   -0.748764
     16          8           0        1.389840    4.970123   -1.376698
     17          7           0       -2.819018   -3.109653   -1.188273
     18          6           0       -1.721483   -2.865628   -2.053889
     19          6           0       -1.069954   -4.163818   -2.295852
     20          6           0       -1.805168   -5.103509   -1.535683
     21          6           0       -2.823443   -4.364423   -0.810112
     22          6           0        0.132300   -4.169645   -3.245340
     23          6           0       -1.487970   -6.629075   -1.477612
     24          8           0       -0.455849   -6.993680   -1.953638
     25          6           0       -2.431662   -7.654218   -0.873019
     26          7           0       -4.811398   -2.817515    0.963222
     27          6           0       -4.414461   -4.123246    1.211632
     28          6           0       -5.266527   -4.744086    2.299986
     29          6           0       -6.122620   -3.596022    2.854873
     30          6           0       -5.769251   -2.431915    1.907481
     31          6           0       -6.231804   -5.978850    1.794765
     32          6           0       -5.997702   -3.263986    4.345380
     33          6           0       -7.305957   -3.039402    5.192265
     34          7           0       -5.150285   -0.049520    0.320254
     35          6           0       -6.046347    0.011468    1.371389
     36          6           0       -6.481883    1.366587    1.635351
     37          6           0       -5.831197    2.125054    0.650547
     38          6           0       -4.980602    1.219660   -0.073045
     39          6           0       -7.520885    1.846421    2.694578
     40          6           0       -5.729932    3.420679    0.100901
     41          8           0       -6.274348    4.420935    0.453384
     42          6           0       -4.791596    3.278509   -1.191538
     43          6           0       -3.861565    4.474343   -1.270401
     44          8           0       -3.278093    4.964377   -0.341257
     45          8           0       -3.899952    4.924011   -2.595598
     46          6           0       -3.472812    6.323880   -2.802471
     47          6           0        2.141512    5.868911   -0.505647
     48          6           0        3.374508    5.313169    0.044860
     49          6           0        4.224946    5.836995    0.988614
     50          6           0        4.111234    7.176985    1.700265
     51          6           0        5.465845    5.025820    1.520773
     52          6           0        5.090024    3.641527    2.140615
     53          6           0        5.948181    3.328933    3.445519
     54          6           0        6.362385    1.855529    3.676240
     55          6           0        6.614116    1.436331    5.153509
     56          6           0        7.626808    1.558071    2.736758
     57          6           0        7.737162   -0.027373    2.523080
     58          6           0        7.222752   -0.471901    1.117748
     59          6           0        8.281626   -1.155856    0.211087
     60          6           0        7.766724   -0.982520   -1.273511
     61          6           0        8.307383   -2.649225    0.587702
     62          6           0        9.808755   -3.155718    0.710856
     63          6           0       10.245061   -4.102006   -0.396140
     64          6           0       11.274645   -3.522895   -1.328342
     65          6           0       10.893941   -4.226525   -2.706370
     66          6           0       12.638758   -3.909559   -0.899153
     67          1           0       -0.391826   -1.666836   -3.089395
     68          1           0       -3.393176   -5.858563    0.667112
     69          1           0       -7.118529   -1.116838    2.860442
     70          1           0       -2.432793    2.512407   -3.381904
     71          1           0       -0.240685    0.659120   -2.977384
     72          1           0       -2.468724    1.210815   -5.008147
     73          1           0       -2.060969   -0.491749   -4.955375
     74          1           0       -0.798351    0.659481   -5.238256
     75          1           0       -0.011222    2.357867   -1.579283
     76          1           0       -1.286688    3.042040   -0.769953
     77          1           0       -1.491655    4.554515   -2.884098
     78          1           0        0.167573    4.042465   -3.105397
     79          1           0        0.598555   -5.152562   -3.312701
     80          1           0        0.824273   -3.360765   -3.013192
     81          1           0       -0.301752   -3.901410   -4.207883
     82          1           0       -2.111843   -7.724200    0.166465
     83          1           0       -2.355734   -8.556955   -1.479659
     84          1           0       -3.420266   -7.195373   -0.862304
     85          1           0       -4.567174   -5.053404    3.076769
     86          1           0       -7.190174   -3.770076    2.724337
     87          1           0       -7.257975   -5.639648    1.653525
     88          1           0       -6.378966   -6.743174    2.558853
     89          1           0       -6.014721   -6.448815    0.835250
     90          1           0       -5.357868   -2.435354    4.648361
     91          1           0       -5.311967   -3.998847    4.766643
     92          1           0       -7.393094   -1.957786    5.291960
     93          1           0       -7.221428   -3.509776    6.172228
     94          1           0       -8.150766   -3.506658    4.685933
     95          1           0       -8.322558    1.149983    2.940021
     96          1           0       -8.125616    2.716536    2.437855
     97          1           0       -6.962536    2.138026    3.583424
     98          1           0       -5.424451    3.197877   -2.075058
     99          1           0       -3.160910    6.831803   -1.888795
    100          1           0       -4.353774    6.891874   -3.101997
    101          1           0       -2.753754    6.420096   -3.615582
    102          1           0        1.512156    6.151655    0.338435
    103          1           0        2.480425    6.728684   -1.081937
    104          1           0        3.609540    4.282361   -0.216559
    105          1           0        4.112655    6.929770    2.762900
    106          1           0        3.233341    7.794773    1.511766
    107          1           0        5.006048    7.726610    1.411272
    108          1           0        6.126186    5.557194    2.206280
    109          1           0        6.137989    4.855424    0.680712
    110          1           0        5.249449    2.882245    1.374164
    111          1           0        4.041877    3.545102    2.423013
    112          1           0        5.428577    3.696183    4.330628
    113          1           0        6.888341    3.877738    3.379873
    114          1           0        5.500620    1.299104    3.308037
    115          1           0        7.674821    1.328513    5.381505
    116          1           0        6.217969    0.435794    5.327492
    117          1           0        6.024721    2.075261    5.810873
    118          1           0        8.576435    1.931337    3.120657
    119          1           0        7.508188    2.025595    1.758728
    120          1           0        7.063057   -0.501893    3.236535
    121          1           0        8.743709   -0.421999    2.665400
    122          1           0        6.915927    0.395523    0.533392
    123          1           0        6.464346   -1.253628    1.106949
    124          1           0        9.331806   -0.867494    0.164311
    125          1           0        6.730835   -1.298456   -1.397744
    126          1           0        8.361044   -1.583547   -1.961988
    127          1           0        7.848807    0.053503   -1.601431
    128          1           0        7.664456   -3.257798   -0.047775
    129          1           0        7.894164   -2.596117    1.595774
    130          1           0        9.928562   -3.673700    1.661802
    131          1           0       10.503832   -2.325675    0.836441
    132          1           0        9.329036   -4.335851   -0.939581
    133          1           0       10.607410   -5.027108    0.050246
    134          1           0       11.207399   -2.438470   -1.407171
    135          1           0       10.151246   -3.581094   -3.175046
    136          1           0       10.388049   -5.185524   -2.592872
    137          1           0       11.825744   -4.104469   -3.258532
    138          1           0       13.396321   -3.145815   -0.720126
    139          1           0       13.125922   -4.606364   -1.580335
    140          1           0       12.585482   -4.370868    0.086497
 ---------------------------------------------------------------------

 SCF Done:  E(RPBE1PBE) =  -3005.32715157     A.U. after   15 cycles

 Excitation energies and oscillator strengths:

 Excited State   1:      Singlet-A      1.8912 eV  655.57 nm  f=0.3498  <S**2>=0.000
     245 -> 248       -0.18222
     246 -> 247        0.68982
     246 <- 247       -0.10172
 This state for optimization and/or second-order correction.
 Total Energy, E(TD-HF/TD-DFT) =  -3005.25764969
 Copying the excited state density for this state as the 1-particle RhoCI density.

 Excited State   2:      Singlet-A      2.2801 eV  543.75 nm  f=0.0861  <S**2>=0.000
     245 -> 247        0.63520
     246 -> 248        0.29817

 Excited State   3:      Singlet-A      2.9854 eV  415.31 nm  f=0.0098  <S**2>=0.000
     242 -> 247       -0.32265
     242 -> 249        0.11534
     243 -> 247        0.59267
     246 -> 248       -0.10679

 Excited State   4:      Singlet-A      3.0555 eV  405.77 nm  f=0.0015  <S**2>=0.000
     242 -> 247        0.57472
     243 -> 247        0.35263
     246 -> 248        0.14469

 Excited State   5:      Singlet-A      3.2079 eV  386.50 nm  f=0.0003  <S**2>=0.000
     244 -> 247        0.70440

 The electronic state is 1-A.
 Alpha  occ. eigenvalues --  -46.91924 -19.25764 -19.25318 -19.20149 -19.20124
 Alpha  occ. eigenvalues --  -19.18961 -19.18599 -14.41759 -14.41645 -14.39105
 Alpha  occ. eigenvalues --  -14.39037 -10.36838 -10.35936 -10.32093 -10.30993
 Alpha  occ. eigenvalues --  -10.29652 -10.28575 -10.28517 -10.28371 -10.28068
 Alpha  occ. eigenvalues --  -10.27839 -10.27778 -10.27346 -10.27098 -10.26979
 Alpha  occ. eigenvalues --  -10.26468 -10.26094 -10.26049 -10.25949 -10.25811
 Alpha  occ. eigenvalues --  -10.25618 -10.25606 -10.25299 -10.24912 -10.24867
 Alpha  occ. eigenvalues --  -10.24792 -10.24608 -10.24391 -10.24197 -10.24037
 Alpha  occ. eigenvalues --  -10.24023 -10.23873 -10.23851 -10.23697 -10.23689
 Alpha  occ. eigenvalues --  -10.23687 -10.23664 -10.23610 -10.23457 -10.23067
 Alpha  occ. eigenvalues --  -10.23028 -10.22960 -10.22813 -10.22686 -10.22583
 Alpha  occ. eigenvalues --  -10.22576 -10.22427 -10.22222 -10.22125 -10.22085
 Alpha  occ. eigenvalues --  -10.21851 -10.21703 -10.21661 -10.21517 -10.21186
 Alpha  occ. eigenvalues --  -10.20997  -3.14192  -1.86997  -1.86567  -1.86423
 Alpha  occ. eigenvalues --   -1.10064  -1.09219  -1.06392  -1.05577  -1.02846
 Alpha  occ. eigenvalues --   -1.00750  -0.99184  -0.98148  -0.98007  -0.96700
 Alpha  occ. eigenvalues --   -0.86726  -0.84174  -0.84151  -0.84021  -0.83309
 Alpha  occ. eigenvalues --   -0.83176  -0.82562  -0.81676  -0.81425  -0.80627
 Alpha  occ. eigenvalues --   -0.79886  -0.79589  -0.78083  -0.77331  -0.77304
 Alpha  occ. eigenvalues --   -0.76200  -0.75968  -0.75222  -0.74676  -0.74490
 Alpha  occ. eigenvalues --   -0.73490  -0.72163  -0.72018  -0.71515  -0.70218
 Alpha  occ. eigenvalues --   -0.69891  -0.69629  -0.69311  -0.68547  -0.67785
 Alpha  occ. eigenvalues --   -0.67436  -0.66849  -0.66632  -0.64155  -0.64006
 Alpha  occ. eigenvalues --   -0.63275  -0.62121  -0.61334  -0.60816  -0.60376
 Alpha  occ. eigenvalues --   -0.60018  -0.59599  -0.59170  -0.58804  -0.57899
 Alpha  occ. eigenvalues --   -0.57768  -0.57077  -0.56565  -0.56329  -0.54494
 Alpha  occ. eigenvalues --   -0.54379  -0.53797  -0.53668  -0.53061  -0.52178
 Alpha  occ. eigenvalues --   -0.51946  -0.50915  -0.50283  -0.50127  -0.49671
 Alpha  occ. eigenvalues --   -0.49524  -0.49090  -0.48978  -0.48271  -0.48155
 Alpha  occ. eigenvalues --   -0.47824  -0.47696  -0.47525  -0.47449  -0.47059
 Alpha  occ. eigenvalues --   -0.46742  -0.46619  -0.46286  -0.46243  -0.46184
 Alpha  occ. eigenvalues --   -0.45765  -0.45512  -0.45221  -0.45046  -0.44925
 Alpha  occ. eigenvalues --   -0.44701  -0.44486  -0.44470  -0.44043  -0.43959
 Alpha  occ. eigenvalues --   -0.43804  -0.43686  -0.43663  -0.43356  -0.43132
 Alpha  occ. eigenvalues --   -0.42904  -0.42750  -0.42666  -0.42427  -0.42211
 Alpha  occ. eigenvalues --   -0.41790  -0.41614  -0.41397  -0.41335  -0.41224
 Alpha  occ. eigenvalues --   -0.41139  -0.40825  -0.40709  -0.40662  -0.40478
 Alpha  occ. eigenvalues --   -0.40107  -0.39844  -0.39683  -0.39586  -0.39492
 Alpha  occ. eigenvalues --   -0.39372  -0.39246  -0.39084  -0.38909  -0.38642
 Alpha  occ. eigenvalues --   -0.38482  -0.38173  -0.38114  -0.37774  -0.37684
 Alpha  occ. eigenvalues --   -0.37463  -0.37433  -0.37237  -0.37060  -0.36851
 Alpha  occ. eigenvalues --   -0.36554  -0.36448  -0.36360  -0.36280  -0.36081
 Alpha  occ. eigenvalues --   -0.35857  -0.35809  -0.35520  -0.35452  -0.35165
 Alpha  occ. eigenvalues --   -0.34796  -0.34630  -0.33637  -0.33355  -0.33268
 Alpha  occ. eigenvalues --   -0.33187  -0.33066  -0.32663  -0.32535  -0.32455
 Alpha  occ. eigenvalues --   -0.32359  -0.31744  -0.31444  -0.31310  -0.31061
 Alpha  occ. eigenvalues --   -0.30936  -0.30233  -0.29784  -0.29601  -0.29019
 Alpha  occ. eigenvalues --   -0.28694  -0.28562  -0.27778  -0.26601  -0.25953
 Alpha  occ. eigenvalues --   -0.25787  -0.25226  -0.24964  -0.23839  -0.20974
 Alpha  occ. eigenvalues --   -0.18622
 Alpha virt. eigenvalues --   -0.10801  -0.05307  -0.03289  -0.01543  -0.01496
 Alpha virt. eigenvalues --   -0.00382   0.00610   0.01322   0.01753   0.03102
 Alpha virt. eigenvalues --    0.04217   0.04744   0.05245   0.05828   0.06367

 Mulliken charges:
               1
     1  Mg   0.997359
     2  C   -0.055154
     3  C   -0.097527
     4  C   -0.108799
     5  C   -0.072785
     6  N   -0.342814
     7  C    0.029891
     8  C   -0.047505
     9  C   -0.186778
    10  C    0.110684
    11  C    0.006390
    12  C    0.025827
    13  C   -0.009353
    14  C    0.250362
    15  O   -0.272128
    16  O   -0.392094
    17  N   -0.477435
    18  C    0.163226
    19  C   -0.147810
    20  C   -0.134323
    21  C    0.219130
    22  C    0.070522
    23  C    0.031714
    24  O   -0.211664
    25  C   -0.015164
    26  N   -0.476876
    27  C    0.070708
    28  C   -0.054977
    29  C   -0.100589
    30  C    0.126198
    31  C   -0.018741
    32  C   -0.045915
    33  C   -0.073281
    34  N   -0.468415
    35  C    0.119071
    36  C   -0.156973
    37  C   -0.043467
    38  C    0.159355
    39  C    0.048474
    40  C    0.133808
    41  O   -0.178022
    42  C   -0.135737
    43  C    0.280170
    44  O   -0.189917
    45  O   -0.402227
    46  C    0.103956
    47  C    0.272711
    48  C   -0.145735
    49  C   -0.236555
    50  C    0.007664
    51  C   -0.001319
    52  C   -0.053810
    53  C   -0.024645
    54  C   -0.223519
    55  C    0.010452
    56  C   -0.026850
    57  C   -0.013757
    58  C   -0.018985
    59  C   -0.243450
    60  C   -0.040570
    61  C    0.002428
    62  C   -0.042632
    63  C   -0.000293
    64  C   -0.260113
    65  C   -0.021421
    66  C    0.010539
    67  H    0.008731
    68  H   -0.003045
    69  H   -0.003706
    70  H    0.053472
    71  H    0.048181
    72  H    0.046823
    73  H    0.048078
    74  H    0.043874
    75  H    0.037820
    76  H    0.057974
    77  H    0.047068
    78  H    0.047176
    79  H    0.071770
    80  H    0.055001
    81  H    0.046900
    82  H    0.076747
    83  H    0.073549
    84  H    0.050312
    85  H    0.051580
    86  H    0.050062
    87  H    0.033748
    88  H    0.048471
    89  H    0.051326
    90  H    0.034211
    91  H    0.017642
    92  H    0.061029
    93  H    0.047769
    94  H    0.042400
    95  H    0.039062
    96  H    0.054344
    97  H    0.060651
    98  H    0.085291
    99  H    0.091461
   100  H    0.048393
   101  H    0.057935
   102  H    0.074484
   103  H    0.056249
   104  H    0.025936
   105  H    0.055965
   106  H    0.040115
   107  H    0.055710
   108  H    0.028891
   109  H    0.042939
   110  H    0.036486
   111  H    0.044779
   112  H    0.024161
   113  H    0.025625
   114  H    0.034741
   115  H    0.041031
   116  H    0.031291
   117  H    0.035312
   118  H    0.031278
   119  H    0.028997
   120  H    0.032629
   121  H    0.033775
   122  H    0.026689
   123  H    0.032169
   124  H    0.029853
   125  H    0.029335
   126  H    0.029554
   127  H    0.035628
   128  H    0.035764
   129  H    0.026113
   130  H    0.013638
   131  H    0.020636
   132  H    0.018263
   133  H    0.028177
   134  H    0.035564
   135  H    0.030946
   136  H    0.054818
   137  H    0.032746
   138  H    0.026022
   139  H    0.029366
   140  H    0.021712
 Sum of Mulliken charges =  -0.00000

 Dipole moment (field-independent basis, Debye):
    X=             -0.5057    Y=             -3.5584    Z=             -0.5615  Tot=              3.6378
 Quadrupole moment (field-independent basis, Debye-Ang):
   XX=           -381.4400   YY=           -421.9833   ZZ=           -379.1695
   XY=             54.0946   XZ=              2.2119   YZ=            -28.3219

 Normal termination of Gaussian 16 at Wed Apr 27 23:34:36 2022.
