 Gaussian 16, Revision A.03,
 Gaussian 16:  ES64L-G16RevA.03 25-Dec-2016

 --------------------------------
 #p wB97XD/Def2SVP td=(nstates=5)
 --------------------------------

 -----------------------------------------------------
 step_1351_chromophore_20 TDDFT with wB97XD functional
 -----------------------------------------------------
 Symbolic Z-matrix:
 Charge =  0 Multiplicity = 1

                         Standard orientation:
 ---------------------------------------------------------------------
 Center     Atomic      Atomic             Coordinates (Angstroms)
 Number     Number       Type             X           Y           Z
 ---------------------------------------------------------------------
      1         12           0       -4.212628   -1.633272   -0.562763
      2          6           0       -4.187873    1.911886   -1.042046
      3          6           0       -1.361905   -1.682762   -2.588169
      4          6           0       -3.539172   -4.840427    0.300232
      5          6           0       -6.374473   -1.197803    2.064570
      6          7           0       -2.926840   -0.001654   -1.565212
      7          6           0       -3.101162    1.309735   -1.730226
      8          6           0       -2.016126    1.985450   -2.523368
      9          6           0       -1.317250    0.674079   -3.149642
     10          6           0       -1.866783   -0.463361   -2.318346
     11          6           0       -1.713736    0.501046   -4.669511
     12          6           0       -0.968242    2.835518   -1.791480
     13          6           0       -0.621112    4.157803   -2.362040
     14          6           0        0.002279    5.205851   -1.412221
     15          8           0       -0.591643    6.102749   -0.748764
     16          8           0        1.389840    4.970123   -1.376698
     17          7           0       -2.819018   -3.109653   -1.188273
     18          6           0       -1.721483   -2.865628   -2.053889
     19          6           0       -1.069954   -4.163818   -2.295852
     20          6           0       -1.805168   -5.103509   -1.535683
     21          6           0       -2.823443   -4.364423   -0.810112
     22          6           0        0.132300   -4.169645   -3.245340
     23          6           0       -1.487970   -6.629075   -1.477612
     24          8           0       -0.455849   -6.993680   -1.953638
     25          6           0       -2.431662   -7.654218   -0.873019
     26          7           0       -4.811398   -2.817515    0.963222
     27          6           0       -4.414461   -4.123246    1.211632
     28          6           0       -5.266527   -4.744086    2.299986
     29          6           0       -6.122620   -3.596022    2.854873
     30          6           0       -5.769251   -2.431915    1.907481
     31          6           0       -6.231804   -5.978850    1.794765
     32          6           0       -5.997702   -3.263986    4.345380
     33          6           0       -7.305957   -3.039402    5.192265
     34          7           0       -5.150285   -0.049520    0.320254
     35          6           0       -6.046347    0.011468    1.371389
     36          6           0       -6.481883    1.366587    1.635351
     37          6           0       -5.831197    2.125054    0.650547
     38          6           0       -4.980602    1.219660   -0.073045
     39          6           0       -7.520885    1.846421    2.694578
     40          6           0       -5.729932    3.420679    0.100901
     41          8           0       -6.274348    4.420935    0.453384
     42          6           0       -4.791596    3.278509   -1.191538
     43          6           0       -3.861565    4.474343   -1.270401
     44          8           0       -3.278093    4.964377   -0.341257
     45          8           0       -3.899952    4.924011   -2.595598
     46          6           0       -3.472812    6.323880   -2.802471
     47          6           0        2.141512    5.868911   -0.505647
     48          6           0        3.374508    5.313169    0.044860
     49          6           0        4.224946    5.836995    0.988614
     50          6           0        4.111234    7.176985    1.700265
     51          6           0        5.465845    5.025820    1.520773
     52          6           0        5.090024    3.641527    2.140615
     53          6           0        5.948181    3.328933    3.445519
     54          6           0        6.362385    1.855529    3.676240
     55          6           0        6.614116    1.436331    5.153509
     56          6           0        7.626808    1.558071    2.736758
     57          6           0        7.737162   -0.027373    2.523080
     58          6           0        7.222752   -0.471901    1.117748
     59          6           0        8.281626   -1.155856    0.211087
     60          6           0        7.766724   -0.982520   -1.273511
     61          6           0        8.307383   -2.649225    0.587702
     62          6           0        9.808755   -3.155718    0.710856
     63          6           0       10.245061   -4.102006   -0.396140
     64          6           0       11.274645   -3.522895   -1.328342
     65          6           0       10.893941   -4.226525   -2.706370
     66          6           0       12.638758   -3.909559   -0.899153
     67          1           0       -0.391826   -1.666836   -3.089395
     68          1           0       -3.393176   -5.858563    0.667112
     69          1           0       -7.118529   -1.116838    2.860442
     70          1           0       -2.432793    2.512407   -3.381904
     71          1           0       -0.240685    0.659120   -2.977384
     72          1           0       -2.468724    1.210815   -5.008147
     73          1           0       -2.060969   -0.491749   -4.955375
     74          1           0       -0.798351    0.659481   -5.238256
     75          1           0       -0.011222    2.357867   -1.579283
     76          1           0       -1.286688    3.042040   -0.769953
     77          1           0       -1.491655    4.554515   -2.884098
     78          1           0        0.167573    4.042465   -3.105397
     79          1           0        0.598555   -5.152562   -3.312701
     80          1           0        0.824273   -3.360765   -3.013192
     81          1           0       -0.301752   -3.901410   -4.207883
     82          1           0       -2.111843   -7.724200    0.166465
     83          1           0       -2.355734   -8.556955   -1.479659
     84          1           0       -3.420266   -7.195373   -0.862304
     85          1           0       -4.567174   -5.053404    3.076769
     86          1           0       -7.190174   -3.770076    2.724337
     87          1           0       -7.257975   -5.639648    1.653525
     88          1           0       -6.378966   -6.743174    2.558853
     89          1           0       -6.014721   -6.448815    0.835250
     90          1           0       -5.357868   -2.435354    4.648361
     91          1           0       -5.311967   -3.998847    4.766643
     92          1           0       -7.393094   -1.957786    5.291960
     93          1           0       -7.221428   -3.509776    6.172228
     94          1           0       -8.150766   -3.506658    4.685933
     95          1           0       -8.322558    1.149983    2.940021
     96          1           0       -8.125616    2.716536    2.437855
     97          1           0       -6.962536    2.138026    3.583424
     98          1           0       -5.424451    3.197877   -2.075058
     99          1           0       -3.160910    6.831803   -1.888795
    100          1           0       -4.353774    6.891874   -3.101997
    101          1           0       -2.753754    6.420096   -3.615582
    102          1           0        1.512156    6.151655    0.338435
    103          1           0        2.480425    6.728684   -1.081937
    104          1           0        3.609540    4.282361   -0.216559
    105          1           0        4.112655    6.929770    2.762900
    106          1           0        3.233341    7.794773    1.511766
    107          1           0        5.006048    7.726610    1.411272
    108          1           0        6.126186    5.557194    2.206280
    109          1           0        6.137989    4.855424    0.680712
    110          1           0        5.249449    2.882245    1.374164
    111          1           0        4.041877    3.545102    2.423013
    112          1           0        5.428577    3.696183    4.330628
    113          1           0        6.888341    3.877738    3.379873
    114          1           0        5.500620    1.299104    3.308037
    115          1           0        7.674821    1.328513    5.381505
    116          1           0        6.217969    0.435794    5.327492
    117          1           0        6.024721    2.075261    5.810873
    118          1           0        8.576435    1.931337    3.120657
    119          1           0        7.508188    2.025595    1.758728
    120          1           0        7.063057   -0.501893    3.236535
    121          1           0        8.743709   -0.421999    2.665400
    122          1           0        6.915927    0.395523    0.533392
    123          1           0        6.464346   -1.253628    1.106949
    124          1           0        9.331806   -0.867494    0.164311
    125          1           0        6.730835   -1.298456   -1.397744
    126          1           0        8.361044   -1.583547   -1.961988
    127          1           0        7.848807    0.053503   -1.601431
    128          1           0        7.664456   -3.257798   -0.047775
    129          1           0        7.894164   -2.596117    1.595774
    130          1           0        9.928562   -3.673700    1.661802
    131          1           0       10.503832   -2.325675    0.836441
    132          1           0        9.329036   -4.335851   -0.939581
    133          1           0       10.607410   -5.027108    0.050246
    134          1           0       11.207399   -2.438470   -1.407171
    135          1           0       10.151246   -3.581094   -3.175046
    136          1           0       10.388049   -5.185524   -2.592872
    137          1           0       11.825744   -4.104469   -3.258532
    138          1           0       13.396321   -3.145815   -0.720126
    139          1           0       13.125922   -4.606364   -1.580335
    140          1           0       12.585482   -4.370868    0.086497
 ---------------------------------------------------------------------

 SCF Done:  E(RwB97XD) =  -3007.83786398     A.U. after   18 cycles

 Excitation energies and oscillator strengths:

 Excited State   1:      Singlet-A      1.7048 eV  727.27 nm  f=0.3608  <S**2>=0.000
     245 -> 248       -0.18875
     246 -> 247        0.68266
     245 <- 248       -0.11533
 This state for optimization and/or second-order correction.
 Total Energy, E(TD-HF/TD-DFT) =  -3007.77521402
 Copying the excited state density for this state as the 1-particle RhoCI density.

 Excited State   2:      Singlet-A      2.2393 eV  553.66 nm  f=0.0800  <S**2>=0.000
     245 -> 247        0.61939
     246 -> 248        0.32778

 Excited State   3:      Singlet-A      3.4345 eV  361.00 nm  f=0.0615  <S**2>=0.000
     242 -> 247       -0.42812
     242 -> 249       -0.11560
     243 -> 247        0.45215
     246 -> 248       -0.24515

 Excited State   4:      Singlet-A      3.4857 eV  355.70 nm  f=0.3430  <S**2>=0.000
     242 -> 247        0.16311
     243 -> 247        0.40635
     243 -> 249       -0.12408
     245 -> 247       -0.22979
     246 -> 248        0.44406

 Excited State   5:      Singlet-A      3.6656 eV  338.24 nm  f=0.3742  <S**2>=0.000
     241 -> 247        0.28970
     241 -> 249       -0.14575
     241 -> 251       -0.12023
     242 -> 247        0.35213
     243 -> 247        0.14253
     243 -> 249       -0.13845
     245 -> 247        0.21327
     246 -> 248       -0.34151

 The electronic state is 1-A.
 Alpha  occ. eigenvalues --  -46.94891 -19.30280 -19.29832 -19.24826 -19.24744
 Alpha  occ. eigenvalues --  -19.23972 -19.23200 -14.46983 -14.46604 -14.44149
 Alpha  occ. eigenvalues --  -14.43932 -10.43582 -10.42735 -10.39080 -10.37670
 Alpha  occ. eigenvalues --  -10.36211 -10.34984 -10.34678 -10.34588 -10.34563
 Alpha  occ. eigenvalues --  -10.34445 -10.34271 -10.33777 -10.33333 -10.33244
 Alpha  occ. eigenvalues --  -10.32902 -10.32505 -10.32336 -10.32286 -10.31901
 Alpha  occ. eigenvalues --  -10.31884 -10.31746 -10.31636 -10.31268 -10.31246
 Alpha  occ. eigenvalues --  -10.31212 -10.31207 -10.30824 -10.30538 -10.30384
 Alpha  occ. eigenvalues --  -10.30384 -10.30375 -10.30361 -10.30299 -10.30236
 Alpha  occ. eigenvalues --  -10.30002 -10.29980 -10.29841 -10.29828 -10.29444
 Alpha  occ. eigenvalues --  -10.29394 -10.29391 -10.29210 -10.28967 -10.28961
 Alpha  occ. eigenvalues --  -10.28880 -10.28787 -10.28526 -10.28500 -10.28278
 Alpha  occ. eigenvalues --  -10.28215 -10.28128 -10.28034 -10.27965 -10.27566
 Alpha  occ. eigenvalues --  -10.27445  -3.21018  -1.94571  -1.94140  -1.93997
 Alpha  occ. eigenvalues --   -1.17425  -1.16571  -1.14035  -1.12841  -1.10162
 Alpha  occ. eigenvalues --   -1.08071  -1.06601  -1.05666  -1.05279  -1.04081
 Alpha  occ. eigenvalues --   -0.94276  -0.91895  -0.91800  -0.91694  -0.90986
 Alpha  occ. eigenvalues --   -0.90704  -0.90238  -0.89290  -0.89096  -0.88292
 Alpha  occ. eigenvalues --   -0.87537  -0.87205  -0.85784  -0.85035  -0.84860
 Alpha  occ. eigenvalues --   -0.83891  -0.83713  -0.82888  -0.82287  -0.82116
 Alpha  occ. eigenvalues --   -0.81178  -0.79864  -0.79695  -0.79126  -0.77812
 Alpha  occ. eigenvalues --   -0.77508  -0.77342  -0.77001  -0.76255  -0.75356
 Alpha  occ. eigenvalues --   -0.75027  -0.74424  -0.74194  -0.71776  -0.71522
 Alpha  occ. eigenvalues --   -0.70732  -0.69770  -0.68955  -0.68468  -0.67798
 Alpha  occ. eigenvalues --   -0.67492  -0.67277  -0.66819  -0.66207  -0.65496
 Alpha  occ. eigenvalues --   -0.65349  -0.64734  -0.63984  -0.63931  -0.62041
 Alpha  occ. eigenvalues --   -0.61803  -0.61156  -0.61063  -0.60471  -0.59489
 Alpha  occ. eigenvalues --   -0.59420  -0.58465  -0.57712  -0.57612  -0.57092
 Alpha  occ. eigenvalues --   -0.56895  -0.56527  -0.56453  -0.55653  -0.55497
 Alpha  occ. eigenvalues --   -0.55236  -0.55117  -0.54970  -0.54784  -0.54430
 Alpha  occ. eigenvalues --   -0.54207  -0.54070  -0.53669  -0.53641  -0.53454
 Alpha  occ. eigenvalues --   -0.53116  -0.52876  -0.52572  -0.52422  -0.52367
 Alpha  occ. eigenvalues --   -0.52035  -0.51796  -0.51706  -0.51401  -0.51316
 Alpha  occ. eigenvalues --   -0.51137  -0.51018  -0.50935  -0.50653  -0.50480
 Alpha  occ. eigenvalues --   -0.50231  -0.50052  -0.49885  -0.49714  -0.49504
 Alpha  occ. eigenvalues --   -0.49110  -0.48935  -0.48652  -0.48578  -0.48520
 Alpha  occ. eigenvalues --   -0.48409  -0.47973  -0.47941  -0.47871  -0.47794
 Alpha  occ. eigenvalues --   -0.47356  -0.47156  -0.46851  -0.46824  -0.46649
 Alpha  occ. eigenvalues --   -0.46557  -0.46362  -0.46218  -0.45996  -0.45712
 Alpha  occ. eigenvalues --   -0.45601  -0.45309  -0.45228  -0.44989  -0.44826
 Alpha  occ. eigenvalues --   -0.44641  -0.44523  -0.44312  -0.44106  -0.43984
 Alpha  occ. eigenvalues --   -0.43583  -0.43553  -0.43410  -0.43332  -0.43179
 Alpha  occ. eigenvalues --   -0.42999  -0.42702  -0.42510  -0.42454  -0.42265
 Alpha  occ. eigenvalues --   -0.41907  -0.41747  -0.40638  -0.40395  -0.40363
 Alpha  occ. eigenvalues --   -0.40245  -0.40079  -0.39730  -0.39570  -0.39468
 Alpha  occ. eigenvalues --   -0.39361  -0.38789  -0.38462  -0.38238  -0.38080
 Alpha  occ. eigenvalues --   -0.37895  -0.37150  -0.36737  -0.36443  -0.35939
 Alpha  occ. eigenvalues --   -0.35625  -0.35292  -0.34754  -0.33290  -0.33057
 Alpha  occ. eigenvalues --   -0.32269  -0.32150  -0.31774  -0.30581  -0.26046
 Alpha  occ. eigenvalues --   -0.22830
 Alpha virt. eigenvalues --   -0.06588   0.00055   0.03036   0.04425   0.05053
 Alpha virt. eigenvalues --    0.06487   0.07459   0.08062   0.08470   0.09629
 Alpha virt. eigenvalues --    0.10759   0.11478   0.11885   0.12507   0.13083

 Mulliken charges:
               1
     1  Mg   0.987481
     2  C   -0.059470
     3  C   -0.115773
     4  C   -0.125661
     5  C   -0.087408
     6  N   -0.302978
     7  C   -0.013567
     8  C   -0.017373
     9  C   -0.157988
    10  C    0.097170
    11  C    0.014569
    12  C    0.032443
    13  C    0.020586
    14  C    0.239083
    15  O   -0.268264
    16  O   -0.392323
    17  N   -0.444416
    18  C    0.160294
    19  C   -0.142481
    20  C   -0.127110
    21  C    0.219065
    22  C    0.086890
    23  C    0.023261
    24  O   -0.206863
    25  C    0.002123
    26  N   -0.448909
    27  C    0.059102
    28  C   -0.029715
    29  C   -0.070117
    30  C    0.115538
    31  C   -0.005843
    32  C   -0.037050
    33  C   -0.054575
    34  N   -0.430014
    35  C    0.110862
    36  C   -0.161379
    37  C   -0.033790
    38  C    0.141164
    39  C    0.058179
    40  C    0.112652
    41  O   -0.170301
    42  C   -0.090364
    43  C    0.250573
    44  O   -0.180784
    45  O   -0.400129
    46  C    0.119020
    47  C    0.284907
    48  C   -0.154289
    49  C   -0.222355
    50  C    0.022613
    51  C    0.014660
    52  C   -0.039041
    53  C   -0.005261
    54  C   -0.192203
    55  C    0.019919
    56  C   -0.011806
    57  C    0.000654
    58  C    0.007039
    59  C   -0.216880
    60  C   -0.024269
    61  C    0.015743
    62  C   -0.027837
    63  C    0.019490
    64  C   -0.230673
    65  C   -0.004177
    66  C    0.017195
    67  H    0.003617
    68  H   -0.015244
    69  H   -0.014571
    70  H    0.039514
    71  H    0.037584
    72  H    0.042441
    73  H    0.041066
    74  H    0.038713
    75  H    0.031027
    76  H    0.049302
    77  H    0.028406
    78  H    0.040833
    79  H    0.069579
    80  H    0.050103
    81  H    0.040926
    82  H    0.073104
    83  H    0.073057
    84  H    0.041863
    85  H    0.042127
    86  H    0.034647
    87  H    0.028001
    88  H    0.043576
    89  H    0.044809
    90  H    0.026764
    91  H    0.007965
    92  H    0.055113
    93  H    0.042589
    94  H    0.035534
    95  H    0.033221
    96  H    0.049902
    97  H    0.054689
    98  H    0.078569
    99  H    0.088048
   100  H    0.044979
   101  H    0.054698
   102  H    0.069234
   103  H    0.051004
   104  H    0.022518
   105  H    0.048983
   106  H    0.036182
   107  H    0.049407
   108  H    0.020813
   109  H    0.035356
   110  H    0.026006
   111  H    0.036849
   112  H    0.016245
   113  H    0.013099
   114  H    0.020845
   115  H    0.035312
   116  H    0.025363
   117  H    0.029985
   118  H    0.024417
   119  H    0.016219
   120  H    0.021528
   121  H    0.025778
   122  H    0.013494
   123  H    0.021359
   124  H    0.016938
   125  H    0.021978
   126  H    0.020077
   127  H    0.029663
   128  H    0.028066
   129  H    0.014147
   130  H    0.007214
   131  H    0.009959
   132  H    0.004242
   133  H    0.019682
   134  H    0.024970
   135  H    0.023119
   136  H    0.048823
   137  H    0.026141
   138  H    0.021389
   139  H    0.023730
   140  H    0.014476
 Sum of Mulliken charges =  -0.00000

 Dipole moment (field-independent basis, Debye):
    X=             -0.1496    Y=             -4.0127    Z=             -0.9339  Tot=              4.1227
 Quadrupole moment (field-independent basis, Debye-Ang):
   XX=           -383.8429   YY=           -419.5910   ZZ=           -378.7238
   XY=             55.0086   XZ=              3.7016   YZ=            -27.4785

 Normal termination of Gaussian 16 at Thu Apr 28 00:10:39 2022.
