 Gaussian 16, Revision A.03,
 Gaussian 16:  ES64L-G16RevA.03 25-Dec-2016

 --------------------
 #p ZINDO=(nstates=5)
 --------------------

 ------------------------------
 step_1351_chromophore_20 ZINDO
 ------------------------------
 Symbolic Z-matrix:
 Charge =  0 Multiplicity = 1

                         Standard orientation:
 ---------------------------------------------------------------------
 Center     Atomic      Atomic             Coordinates (Angstroms)
 Number     Number       Type             X           Y           Z
 ---------------------------------------------------------------------
      1         12           0       -4.212628   -1.633272   -0.562763
      2          6           0       -4.187873    1.911886   -1.042046
      3          6           0       -1.361905   -1.682762   -2.588169
      4          6           0       -3.539172   -4.840427    0.300232
      5          6           0       -6.374473   -1.197803    2.064570
      6          7           0       -2.926840   -0.001654   -1.565212
      7          6           0       -3.101162    1.309735   -1.730226
      8          6           0       -2.016126    1.985450   -2.523368
      9          6           0       -1.317250    0.674079   -3.149642
     10          6           0       -1.866783   -0.463361   -2.318346
     11          6           0       -1.713736    0.501046   -4.669511
     12          6           0       -0.968242    2.835518   -1.791480
     13          6           0       -0.621112    4.157803   -2.362040
     14          6           0        0.002279    5.205851   -1.412221
     15          8           0       -0.591643    6.102749   -0.748764
     16          8           0        1.389840    4.970123   -1.376698
     17          7           0       -2.819018   -3.109653   -1.188273
     18          6           0       -1.721483   -2.865628   -2.053889
     19          6           0       -1.069954   -4.163818   -2.295852
     20          6           0       -1.805168   -5.103509   -1.535683
     21          6           0       -2.823443   -4.364423   -0.810112
     22          6           0        0.132300   -4.169645   -3.245340
     23          6           0       -1.487970   -6.629075   -1.477612
     24          8           0       -0.455849   -6.993680   -1.953638
     25          6           0       -2.431662   -7.654218   -0.873019
     26          7           0       -4.811398   -2.817515    0.963222
     27          6           0       -4.414461   -4.123246    1.211632
     28          6           0       -5.266527   -4.744086    2.299986
     29          6           0       -6.122620   -3.596022    2.854873
     30          6           0       -5.769251   -2.431915    1.907481
     31          6           0       -6.231804   -5.978850    1.794765
     32          6           0       -5.997702   -3.263986    4.345380
     33          6           0       -7.305957   -3.039402    5.192265
     34          7           0       -5.150285   -0.049520    0.320254
     35          6           0       -6.046347    0.011468    1.371389
     36          6           0       -6.481883    1.366587    1.635351
     37          6           0       -5.831197    2.125054    0.650547
     38          6           0       -4.980602    1.219660   -0.073045
     39          6           0       -7.520885    1.846421    2.694578
     40          6           0       -5.729932    3.420679    0.100901
     41          8           0       -6.274348    4.420935    0.453384
     42          6           0       -4.791596    3.278509   -1.191538
     43          6           0       -3.861565    4.474343   -1.270401
     44          8           0       -3.278093    4.964377   -0.341257
     45          8           0       -3.899952    4.924011   -2.595598
     46          6           0       -3.472812    6.323880   -2.802471
     47          6           0        2.141512    5.868911   -0.505647
     48          6           0        3.374508    5.313169    0.044860
     49          6           0        4.224946    5.836995    0.988614
     50          6           0        4.111234    7.176985    1.700265
     51          6           0        5.465845    5.025820    1.520773
     52          6           0        5.090024    3.641527    2.140615
     53          6           0        5.948181    3.328933    3.445519
     54          6           0        6.362385    1.855529    3.676240
     55          6           0        6.614116    1.436331    5.153509
     56          6           0        7.626808    1.558071    2.736758
     57          6           0        7.737162   -0.027373    2.523080
     58          6           0        7.222752   -0.471901    1.117748
     59          6           0        8.281626   -1.155856    0.211087
     60          6           0        7.766724   -0.982520   -1.273511
     61          6           0        8.307383   -2.649225    0.587702
     62          6           0        9.808755   -3.155718    0.710856
     63          6           0       10.245061   -4.102006   -0.396140
     64          6           0       11.274645   -3.522895   -1.328342
     65          6           0       10.893941   -4.226525   -2.706370
     66          6           0       12.638758   -3.909559   -0.899153
     67          1           0       -0.391826   -1.666836   -3.089395
     68          1           0       -3.393176   -5.858563    0.667112
     69          1           0       -7.118529   -1.116838    2.860442
     70          1           0       -2.432793    2.512407   -3.381904
     71          1           0       -0.240685    0.659120   -2.977384
     72          1           0       -2.468724    1.210815   -5.008147
     73          1           0       -2.060969   -0.491749   -4.955375
     74          1           0       -0.798351    0.659481   -5.238256
     75          1           0       -0.011222    2.357867   -1.579283
     76          1           0       -1.286688    3.042040   -0.769953
     77          1           0       -1.491655    4.554515   -2.884098
     78          1           0        0.167573    4.042465   -3.105397
     79          1           0        0.598555   -5.152562   -3.312701
     80          1           0        0.824273   -3.360765   -3.013192
     81          1           0       -0.301752   -3.901410   -4.207883
     82          1           0       -2.111843   -7.724200    0.166465
     83          1           0       -2.355734   -8.556955   -1.479659
     84          1           0       -3.420266   -7.195373   -0.862304
     85          1           0       -4.567174   -5.053404    3.076769
     86          1           0       -7.190174   -3.770076    2.724337
     87          1           0       -7.257975   -5.639648    1.653525
     88          1           0       -6.378966   -6.743174    2.558853
     89          1           0       -6.014721   -6.448815    0.835250
     90          1           0       -5.357868   -2.435354    4.648361
     91          1           0       -5.311967   -3.998847    4.766643
     92          1           0       -7.393094   -1.957786    5.291960
     93          1           0       -7.221428   -3.509776    6.172228
     94          1           0       -8.150766   -3.506658    4.685933
     95          1           0       -8.322558    1.149983    2.940021
     96          1           0       -8.125616    2.716536    2.437855
     97          1           0       -6.962536    2.138026    3.583424
     98          1           0       -5.424451    3.197877   -2.075058
     99          1           0       -3.160910    6.831803   -1.888795
    100          1           0       -4.353774    6.891874   -3.101997
    101          1           0       -2.753754    6.420096   -3.615582
    102          1           0        1.512156    6.151655    0.338435
    103          1           0        2.480425    6.728684   -1.081937
    104          1           0        3.609540    4.282361   -0.216559
    105          1           0        4.112655    6.929770    2.762900
    106          1           0        3.233341    7.794773    1.511766
    107          1           0        5.006048    7.726610    1.411272
    108          1           0        6.126186    5.557194    2.206280
    109          1           0        6.137989    4.855424    0.680712
    110          1           0        5.249449    2.882245    1.374164
    111          1           0        4.041877    3.545102    2.423013
    112          1           0        5.428577    3.696183    4.330628
    113          1           0        6.888341    3.877738    3.379873
    114          1           0        5.500620    1.299104    3.308037
    115          1           0        7.674821    1.328513    5.381505
    116          1           0        6.217969    0.435794    5.327492
    117          1           0        6.024721    2.075261    5.810873
    118          1           0        8.576435    1.931337    3.120657
    119          1           0        7.508188    2.025595    1.758728
    120          1           0        7.063057   -0.501893    3.236535
    121          1           0        8.743709   -0.421999    2.665400
    122          1           0        6.915927    0.395523    0.533392
    123          1           0        6.464346   -1.253628    1.106949
    124          1           0        9.331806   -0.867494    0.164311
    125          1           0        6.730835   -1.298456   -1.397744
    126          1           0        8.361044   -1.583547   -1.961988
    127          1           0        7.848807    0.053503   -1.601431
    128          1           0        7.664456   -3.257798   -0.047775
    129          1           0        7.894164   -2.596117    1.595774
    130          1           0        9.928562   -3.673700    1.661802
    131          1           0       10.503832   -2.325675    0.836441
    132          1           0        9.329036   -4.335851   -0.939581
    133          1           0       10.607410   -5.027108    0.050246
    134          1           0       11.207399   -2.438470   -1.407171
    135          1           0       10.151246   -3.581094   -3.175046
    136          1           0       10.388049   -5.185524   -2.592872
    137          1           0       11.825744   -4.104469   -3.258532
    138          1           0       13.396321   -3.145815   -0.720126
    139          1           0       13.125922   -4.606364   -1.580335
    140          1           0       12.585482   -4.370868    0.086497
 ---------------------------------------------------------------------

 SCF Done:  E(RZINDO/S) =  -474.146878699     A.U. after   19 cycles

 Excitation energies and oscillator strengths:

 Excited State   1:      Singlet-A      1.3010 eV  953.00 nm  f=0.5596  <S**2>=0.000
     175 ->178         0.18096
     176 ->177         0.66666
 This state for optimization and/or second-order correction.
 Total Energy, E(CIS/TDA) =  -474.099068124
 Copying the excited state density for this state as the 1-particle RhoCI density.

 Excited State   2:      Singlet-A      1.9345 eV  640.89 nm  f=0.0127  <S**2>=0.000
     175 ->177         0.51244
     176 ->178        -0.46131

 Excited State   3:      Singlet-A      2.9483 eV  420.52 nm  f=0.0698  <S**2>=0.000
     175 ->177         0.12191
     176 ->178         0.16811
     176 ->180         0.65888

 Excited State   4:      Singlet-A      2.9879 eV  414.95 nm  f=0.5344  <S**2>=0.000
     170 ->179         0.12620
     170 ->182        -0.11616
     171 ->177        -0.22457
     171 ->179        -0.14648
     171 ->182         0.19837
     172 ->177        -0.10313
     175 ->177         0.29508
     176 ->178         0.33522
     176 ->180        -0.19473

 Excited State   5:      Singlet-A      3.0399 eV  407.85 nm  f=0.4403  <S**2>=0.000
     168 ->179         0.10753
     170 ->177        -0.21493
     170 ->182         0.16181
     171 ->177         0.12632
     171 ->179         0.20424
     171 ->182        -0.19292
     171 ->185         0.11045
     171 ->187         0.10823
     175 ->177         0.25894
     176 ->178         0.28758
     176 ->179        -0.13001
     176 ->182         0.10322

 The electronic state is 1-A.
 Alpha  occ. eigenvalues --   -1.84096  -1.81912  -1.79872  -1.71721  -1.71106
 Alpha  occ. eigenvalues --   -1.69105  -1.65957  -1.61507  -1.60220  -1.58890
 Alpha  occ. eigenvalues --   -1.55551  -1.50318  -1.47927  -1.47565  -1.46489
 Alpha  occ. eigenvalues --   -1.45680  -1.42840  -1.41639  -1.38287  -1.36068
 Alpha  occ. eigenvalues --   -1.35541  -1.32402  -1.31334  -1.30422  -1.28873
 Alpha  occ. eigenvalues --   -1.26783  -1.26403  -1.22424  -1.21816  -1.17972
 Alpha  occ. eigenvalues --   -1.17165  -1.16636  -1.14530  -1.14149  -1.13027
 Alpha  occ. eigenvalues --   -1.12660  -1.11015  -1.07822  -1.06300  -1.04575
 Alpha  occ. eigenvalues --   -1.02107  -1.00791  -0.99229  -0.97374  -0.97083
 Alpha  occ. eigenvalues --   -0.95195  -0.94903  -0.93900  -0.92997  -0.92517
 Alpha  occ. eigenvalues --   -0.91619  -0.90519  -0.89016  -0.88008  -0.86370
 Alpha  occ. eigenvalues --   -0.85636  -0.84577  -0.83384  -0.81950  -0.79926
 Alpha  occ. eigenvalues --   -0.79361  -0.78714  -0.77828  -0.76943  -0.75711
 Alpha  occ. eigenvalues --   -0.74839  -0.74531  -0.74307  -0.72976  -0.72603
 Alpha  occ. eigenvalues --   -0.72180  -0.72034  -0.71391  -0.70659  -0.70286
 Alpha  occ. eigenvalues --   -0.70084  -0.69704  -0.68862  -0.68038  -0.67621
 Alpha  occ. eigenvalues --   -0.67113  -0.66964  -0.66049  -0.65684  -0.65190
 Alpha  occ. eigenvalues --   -0.64884  -0.64773  -0.64159  -0.63877  -0.63552
 Alpha  occ. eigenvalues --   -0.62805  -0.62439  -0.62302  -0.61989  -0.61325
 Alpha  occ. eigenvalues --   -0.60918  -0.60599  -0.60148  -0.59711  -0.59550
 Alpha  occ. eigenvalues --   -0.59277  -0.59022  -0.58841  -0.58590  -0.58210
 Alpha  occ. eigenvalues --   -0.57638  -0.57281  -0.57114  -0.56881  -0.56478
 Alpha  occ. eigenvalues --   -0.55945  -0.55650  -0.55594  -0.55144  -0.54934
 Alpha  occ. eigenvalues --   -0.54462  -0.53777  -0.53550  -0.53135  -0.52812
 Alpha  occ. eigenvalues --   -0.52462  -0.52267  -0.51767  -0.51560  -0.51210
 Alpha  occ. eigenvalues --   -0.50994  -0.50921  -0.50761  -0.50445  -0.50336
 Alpha  occ. eigenvalues --   -0.49994  -0.49739  -0.49438  -0.49297  -0.48989
 Alpha  occ. eigenvalues --   -0.48561  -0.48514  -0.48241  -0.48085  -0.47818
 Alpha  occ. eigenvalues --   -0.47438  -0.47150  -0.47113  -0.47004  -0.46685
 Alpha  occ. eigenvalues --   -0.46548  -0.46270  -0.45813  -0.45693  -0.45451
 Alpha  occ. eigenvalues --   -0.45311  -0.44781  -0.44478  -0.44258  -0.44106
 Alpha  occ. eigenvalues --   -0.43667  -0.43257  -0.41957  -0.41852  -0.41644
 Alpha  occ. eigenvalues --   -0.41339  -0.41237  -0.41159  -0.39779  -0.38400
 Alpha  occ. eigenvalues --   -0.37780  -0.37513  -0.35826  -0.34832  -0.33888
 Alpha  occ. eigenvalues --   -0.33751  -0.32300  -0.32223  -0.30783  -0.26862
 Alpha  occ. eigenvalues --   -0.21773
 Alpha virt. eigenvalues --   -0.08150  -0.02391  -0.00044   0.00717   0.01628
 Alpha virt. eigenvalues --    0.01975   0.02791   0.03266   0.04556   0.05046
 Alpha virt. eigenvalues --    0.06209   0.06578   0.07323   0.08009   0.08215

 Mulliken charges:
               1
     1  Mg   0.430005
     2  C   -0.026860
     3  C   -0.050142
     4  C   -0.114560
     5  C   -0.067366
     6  N   -0.274741
     7  C    0.103065
     8  C    0.008666
     9  C   -0.014387
    10  C    0.142140
    11  C   -0.051169
    12  C   -0.010138
    13  C    0.014534
    14  C    0.459424
    15  O   -0.502757
    16  O   -0.275940
    17  N   -0.330830
    18  C    0.103991
    19  C    0.042183
    20  C   -0.046826
    21  C    0.176288
    22  C   -0.033041
    23  C    0.322505
    24  O   -0.509949
    25  C   -0.029694
    26  N   -0.284317
    27  C    0.150346
    28  C    0.017495
    29  C    0.007436
    30  C    0.091830
    31  C   -0.059582
    32  C   -0.041226
    33  C   -0.057271
    34  N   -0.305057
    35  C    0.075586
    36  C    0.007706
    37  C   -0.054693
    38  C    0.093302
    39  C   -0.042475
    40  C    0.336567
    41  O   -0.505674
    42  C    0.049376
    43  C    0.481044
    44  O   -0.475997
    45  O   -0.291060
    46  C    0.069388
    47  C    0.114222
    48  C   -0.082099
    49  C   -0.025460
    50  C   -0.042867
    51  C   -0.025608
    52  C   -0.032684
    53  C   -0.041207
    54  C   -0.012051
    55  C   -0.056508
    56  C   -0.039301
    57  C   -0.044771
    58  C   -0.035374
    59  C   -0.026727
    60  C   -0.065413
    61  C   -0.043726
    62  C   -0.045382
    63  C   -0.026126
    64  C   -0.006442
    65  C   -0.069533
    66  C   -0.053952
    67  H    0.031150
    68  H    0.022513
    69  H    0.026052
    70  H    0.034060
    71  H    0.033262
    72  H    0.026593
    73  H    0.023915
    74  H    0.014864
    75  H    0.023432
    76  H    0.030883
    77  H    0.042487
    78  H    0.023066
    79  H    0.044262
    80  H    0.035292
    81  H    0.028535
    82  H    0.049380
    83  H    0.051644
    84  H    0.027626
    85  H    0.036389
    86  H    0.030037
    87  H    0.018288
    88  H    0.021811
    89  H    0.027576
    90  H    0.020478
    91  H    0.009268
    92  H    0.028543
    93  H    0.021228
    94  H    0.021508
    95  H    0.020433
    96  H    0.030177
    97  H    0.031992
    98  H    0.055599
    99  H    0.064265
   100  H    0.028184
   101  H    0.036124
   102  H    0.062632
   103  H    0.047765
   104  H    0.026649
   105  H    0.028459
   106  H    0.024057
   107  H    0.028094
   108  H    0.023496
   109  H    0.018363
   110  H    0.019888
   111  H    0.024397
   112  H    0.016503
   113  H    0.013387
   114  H    0.019720
   115  H    0.026888
   116  H    0.011742
   117  H    0.023944
   118  H    0.022953
   119  H    0.020506
   120  H    0.018823
   121  H    0.024146
   122  H    0.016220
   123  H    0.029113
   124  H    0.034663
   125  H    0.017212
   126  H    0.009634
   127  H    0.012401
   128  H    0.031981
   129  H    0.013796
   130  H    0.005174
   131  H    0.020263
   132  H    0.012687
   133  H    0.020035
   134  H    0.028840
   135  H    0.007929
   136  H    0.038501
   137  H    0.022021
   138  H    0.012444
   139  H    0.016473
   140  H    0.011175
 Sum of Mulliken charges =  -0.00000

 Dipole moment (field-independent basis, Debye):
    X=              1.0536    Y=             -7.1303    Z=             -3.4790  Tot=              8.0034
 N-N= 4.426346933173D+03 E-N= 0.000000000000D+00  KE=-9.527306499035D+03
 Leave Link  601 at Thu Apr 28 00:31:17 2022, MaxMem=  6710886400 cpu:               0.7 elap:               0.0
 (Enter /sw/apps/gaussian-16.0/g16/l9999.exe)
 1\1\GINC-BP1-COMPUTE167\SP\RZINDO CIS\STO-3G\C55H74Mg1N4O6\OF15641\28-
 Apr-2022\0\\#p ZINDO=(nstates=5)\\step_1351_chromophore_20 ZINDO\\0,1\
 Mg,0,6.771,57.363,41.821\C,0,5.603,53.987,41.629\C,0,9.62,56.216,40.14
 8\C,0,7.79,60.532,41.186\C,0,3.576,58.357,42.576\N,0,7.4,55.331,40.929
 \C,0,6.879,54.107,41.017\C,0,7.676,53.041,40.316\C,0,9.047,53.862,40.1
 \C,0,8.654,55.3,40.354\C,0,10.149,53.391,41.13\C,0,7.179,52.493,38.971
 \C,0,7.198,51.026,38.766\C,0,6.259,50.442,37.686\O,0,5.086,49.996,37.8

 Normal termination of Gaussian 16 at Thu Apr 28 00:31:18 2022.
