 Gaussian 16, Revision A.03,
 Gaussian 16:  ES64L-G16RevA.03 25-Dec-2016

 ------------------------------
 #p blyp/Def2SVP td=(nstates=5)
 ------------------------------

 ---------------------------------------------------
 step_1651_chromophore_26 TDDFT with blyp functional
 ---------------------------------------------------
 Symbolic Z-matrix:
 Charge =  0 Multiplicity = 1

                         Standard orientation:
 ---------------------------------------------------------------------
 Center     Atomic      Atomic             Coordinates (Angstroms)
 Number     Number       Type             X           Y           Z
 ---------------------------------------------------------------------
      1         12           0       -4.121121    1.150311    0.450408
      2          6           0       -4.913964   -2.214689   -0.303871
      3          6           0       -2.401992   -0.093735    3.246341
      4          6           0       -2.757732    4.269590    0.902007
      5          6           0       -5.342076    2.089917   -2.559625
      6          7           0       -3.479343   -1.006582    1.172360
      7          6           0       -4.022545   -2.179834    0.715961
      8          6           0       -3.487632   -3.282545    1.608511
      9          6           0       -2.805884   -2.601045    2.867706
     10          6           0       -2.912596   -1.133617    2.402002
     11          6           0       -3.461718   -2.872336    4.306866
     12          6           0       -2.563181   -4.365635    0.844419
     13          6           0       -1.600976   -3.695955   -0.170038
     14          6           0       -0.158339   -4.319090   -0.092100
     15          8           0        0.121711   -5.538469   -0.033487
     16          8           0        0.817977   -3.316477   -0.246505
     17          7           0       -2.761607    2.031782    1.921903
     18          6           0       -2.281691    1.326528    2.999850
     19          6           0       -1.619448    2.303747    3.806785
     20          6           0       -1.716703    3.612091    3.225445
     21          6           0       -2.437604    3.357641    1.970277
     22          6           0       -1.039426    2.004556    5.179211
     23          6           0       -1.186364    4.904613    3.772414
     24          8           0       -0.454135    4.889309    4.799831
     25          6           0       -1.525010    6.245176    3.101798
     26          7           0       -3.859247    2.884985   -0.723204
     27          6           0       -3.436587    4.039977   -0.257571
     28          6           0       -3.853000    5.251354   -1.179959
     29          6           0       -4.514389    4.484337   -2.422742
     30          6           0       -4.635001    3.048032   -1.867991
     31          6           0       -4.714473    6.383038   -0.600750
     32          6           0       -3.746398    4.450543   -3.815678
     33          6           0       -4.671254    4.643079   -5.018686
     34          7           0       -5.108553    0.280681   -1.016916
     35          6           0       -5.663932    0.767160   -2.158329
     36          6           0       -6.565012   -0.204091   -2.749960
     37          6           0       -6.300749   -1.386526   -2.063201
     38          6           0       -5.370874   -1.053510   -1.025406
     39          6           0       -7.502615   -0.063839   -3.849677
     40          6           0       -6.668713   -2.777667   -1.928901
     41          8           0       -7.439539   -3.533482   -2.527385
     42          6           0       -5.715877   -3.390638   -0.851215
     43          6           0       -6.407088   -4.093878    0.221423
     44          8           0       -6.360916   -5.308868    0.416385
     45          8           0       -7.235601   -3.260034    0.901202
     46          6           0       -7.946122   -3.856737    2.113718
     47          6           0        2.111276   -3.808199   -0.685631
     48          6           0        2.711538   -2.767080   -1.520111
     49          6           0        4.063635   -2.544003   -1.705338
     50          6           0        5.112515   -3.308953   -0.888179
     51          6           0        4.539894   -1.508586   -2.728632
     52          6           0        3.923852   -0.104969   -2.474824
     53          6           0        4.960652    0.980790   -2.678274
     54          6           0        5.428224    1.681787   -1.356280
     55          6           0        5.271694    3.136432   -1.605568
     56          6           0        6.932310    1.377547   -1.057426
     57          6           0        7.133577    0.490165    0.158761
     58          6           0        8.187208   -0.599086   -0.084881
     59          6           0        9.387386   -0.493286    0.889990
     60          6           0        9.207576   -1.330456    2.147013
     61          6           0       10.694353   -0.992932    0.206425
     62          6           0       11.965974   -0.391278    0.927681
     63          6           0       12.790998    0.500076   -0.025197
     64          6           0       14.197419   -0.099431   -0.359314
     65          6           0       15.348625    0.974261   -0.109958
     66          6           0       14.176694   -0.630551   -1.801875
     67          1           0       -2.018353   -0.628537    4.118090
     68          1           0       -2.507631    5.327253    1.014313
     69          1           0       -5.870848    2.282033   -3.495815
     70          1           0       -4.424932   -3.726922    1.940961
     71          1           0       -1.757264   -2.900242    2.874656
     72          1           0       -4.192889   -3.675580    4.396905
     73          1           0       -3.909810   -1.982102    4.746373
     74          1           0       -2.744255   -3.341012    4.981554
     75          1           0       -3.303437   -4.808240    0.178268
     76          1           0       -2.132085   -5.121699    1.501041
     77          1           0       -1.419563   -2.622362   -0.114356
     78          1           0       -1.855598   -3.837403   -1.220815
     79          1           0       -1.775685    2.007829    5.982060
     80          1           0       -0.246508    2.743189    5.300382
     81          1           0       -0.558155    1.026869    5.144674
     82          1           0       -2.573962    6.306534    2.813521
     83          1           0       -0.977019    6.433702    2.178980
     84          1           0       -1.276499    7.054780    3.787500
     85          1           0       -2.888661    5.684949   -1.447612
     86          1           0       -5.552840    4.805449   -2.496402
     87          1           0       -5.378971    6.008250    0.177508
     88          1           0       -5.240280    6.910670   -1.395958
     89          1           0       -4.119650    7.108043   -0.047026
     90          1           0       -3.222842    3.499041   -3.913550
     91          1           0       -2.929746    5.169001   -3.743402
     92          1           0       -4.231994    5.469810   -5.577896
     93          1           0       -5.710354    4.803630   -4.733698
     94          1           0       -4.628200    3.694223   -5.553853
     95          1           0       -8.534107   -0.208927   -3.527959
     96          1           0       -7.223035   -0.593979   -4.759980
     97          1           0       -7.435509    0.995102   -4.099291
     98          1           0       -5.061637   -4.093277   -1.365560
     99          1           0       -8.459591   -4.726062    1.703293
    100          1           0       -8.658774   -3.227717    2.647410
    101          1           0       -7.227421   -4.199147    2.858330
    102          1           0        2.193719   -4.712869   -1.287955
    103          1           0        2.707596   -4.128154    0.169002
    104          1           0        2.108686   -2.057700   -2.088061
    105          1           0        4.838856   -4.340366   -0.664082
    106          1           0        4.969421   -2.736770    0.027524
    107          1           0        6.161544   -3.190000   -1.162070
    108          1           0        4.504907   -1.913889   -3.740509
    109          1           0        5.609625   -1.482236   -2.522089
    110          1           0        3.588866   -0.143440   -1.438088
    111          1           0        3.099888    0.079029   -3.165203
    112          1           0        4.439678    1.672960   -3.339845
    113          1           0        5.756362    0.670572   -3.355328
    114          1           0        4.900497    1.465457   -0.426960
    115          1           0        5.606039    3.603472   -0.678563
    116          1           0        4.230334    3.320202   -1.869130
    117          1           0        5.827622    3.396809   -2.505791
    118          1           0        7.531452    2.259695   -0.830730
    119          1           0        7.484671    1.109080   -1.957918
    120          1           0        6.199253   -0.023968    0.384654
    121          1           0        7.372150    1.127773    1.010292
    122          1           0        8.531308   -0.367825   -1.092600
    123          1           0        7.674411   -1.556891    0.004281
    124          1           0        9.481509    0.563965    1.137084
    125          1           0        9.873142   -2.191247    2.212069
    126          1           0        8.179799   -1.595933    2.393427
    127          1           0        9.475805   -0.701938    2.996586
    128          1           0       10.774812   -0.612831   -0.811910
    129          1           0       10.739914   -2.077899    0.112321
    130          1           0       12.458854   -1.229236    1.419735
    131          1           0       11.735369    0.182862    1.824437
    132          1           0       12.966678    1.444154    0.489758
    133          1           0       12.250748    0.771276   -0.932405
    134          1           0       14.387385   -0.983382    0.250498
    135          1           0       15.992955    0.548799    0.659862
    136          1           0       15.008742    1.933678    0.281678
    137          1           0       15.941540    1.263873   -0.976906
    138          1           0       14.279329   -1.709732   -1.693220
    139          1           0       15.045936   -0.398969   -2.418304
    140          1           0       13.246791   -0.440721   -2.336918
 ---------------------------------------------------------------------

 SCF Done:  E(RB-LYP) =  -3007.33734656     A.U. after   21 cycles

 Excitation energies and oscillator strengths:

 Excited State   1:      Singlet-A      1.5914 eV  779.08 nm  f=0.0006  <S**2>=0.000
     244 -> 247        0.70559
 This state for optimization and/or second-order correction.
 Total Energy, E(TD-HF/TD-DFT) =  -3007.27886282
 Copying the excited state density for this state as the 1-particle RhoCI density.

 Excited State   2:      Singlet-A      1.7387 eV  713.09 nm  f=0.0325  <S**2>=0.000
     243 -> 247        0.65847
     245 -> 247        0.12480
     246 -> 247        0.21913

 Excited State   3:      Singlet-A      1.7925 eV  691.67 nm  f=0.2681  <S**2>=0.000
     243 -> 247       -0.22802
     245 -> 248       -0.14714
     246 -> 247        0.65358
     246 <- 247       -0.14947

 Excited State   4:      Singlet-A      1.8366 eV  675.07 nm  f=0.0121  <S**2>=0.000
     242 -> 247        0.67900
     245 -> 247       -0.16631

 Excited State   5:      Singlet-A      1.9947 eV  621.58 nm  f=0.0897  <S**2>=0.000
     241 -> 247        0.11387
     242 -> 247        0.17658
     243 -> 247       -0.10428
     245 -> 247        0.62306
     246 -> 248        0.17635
     246 -> 249       -0.10535

 The electronic state is 1-A.
 Alpha  occ. eigenvalues --  -46.28180 -18.82488 -18.82183 -18.77145 -18.76278
 Alpha  occ. eigenvalues --  -18.76029 -18.75596 -14.03523 -14.03493 -14.01822
 Alpha  occ. eigenvalues --  -14.01460 -10.04378 -10.03781 -10.00446 -10.00150
 Alpha  occ. eigenvalues --   -9.98673  -9.97313  -9.97292  -9.97002  -9.96730
 Alpha  occ. eigenvalues --   -9.96667  -9.96568  -9.96277  -9.96165  -9.95748
 Alpha  occ. eigenvalues --   -9.95014  -9.94615  -9.94342  -9.94324  -9.94225
 Alpha  occ. eigenvalues --   -9.94181  -9.94046  -9.93914  -9.93826  -9.93806
 Alpha  occ. eigenvalues --   -9.93575  -9.93333  -9.93330  -9.93314  -9.93242
 Alpha  occ. eigenvalues --   -9.92960  -9.92748  -9.92645  -9.92561  -9.92529
 Alpha  occ. eigenvalues --   -9.92403  -9.92098  -9.92055  -9.91668  -9.91593
 Alpha  occ. eigenvalues --   -9.91540  -9.91498  -9.91163  -9.90850  -9.90841
 Alpha  occ. eigenvalues --   -9.90838  -9.90815  -9.90717  -9.90674  -9.90627
 Alpha  occ. eigenvalues --   -9.90515  -9.90485  -9.90378  -9.90346  -9.90306
 Alpha  occ. eigenvalues --   -9.90270  -2.92812  -1.73188  -1.72726  -1.72531
 Alpha  occ. eigenvalues --   -0.97443  -0.96548  -0.91034  -0.89677  -0.88863
 Alpha  occ. eigenvalues --   -0.88811  -0.87513  -0.86592  -0.86041  -0.85193
 Alpha  occ. eigenvalues --   -0.76250  -0.73635  -0.72824  -0.72635  -0.72005
 Alpha  occ. eigenvalues --   -0.71850  -0.71717  -0.71641  -0.70842  -0.70575
 Alpha  occ. eigenvalues --   -0.69155  -0.68937  -0.68384  -0.68301  -0.67496
 Alpha  occ. eigenvalues --   -0.66628  -0.66350  -0.65364  -0.65157  -0.64823
 Alpha  occ. eigenvalues --   -0.64219  -0.62928  -0.62580  -0.61993  -0.61326
 Alpha  occ. eigenvalues --   -0.60232  -0.60072  -0.59917  -0.59213  -0.58595
 Alpha  occ. eigenvalues --   -0.58385  -0.57925  -0.57081  -0.55378  -0.55012
 Alpha  occ. eigenvalues --   -0.54688  -0.53664  -0.52940  -0.52488  -0.52233
 Alpha  occ. eigenvalues --   -0.51567  -0.51398  -0.51036  -0.50563  -0.50211
 Alpha  occ. eigenvalues --   -0.49983  -0.49661  -0.49307  -0.49106  -0.47102
 Alpha  occ. eigenvalues --   -0.46393  -0.45594  -0.45496  -0.44864  -0.44611
 Alpha  occ. eigenvalues --   -0.43902  -0.43369  -0.43135  -0.42639  -0.42406
 Alpha  occ. eigenvalues --   -0.42230  -0.41846  -0.41484  -0.41272  -0.41166
 Alpha  occ. eigenvalues --   -0.40799  -0.40432  -0.40269  -0.40177  -0.40110
 Alpha  occ. eigenvalues --   -0.39884  -0.39773  -0.39698  -0.39136  -0.39004
 Alpha  occ. eigenvalues --   -0.38991  -0.38925  -0.38746  -0.38628  -0.38402
 Alpha  occ. eigenvalues --   -0.38038  -0.37853  -0.37693  -0.37538  -0.37055
 Alpha  occ. eigenvalues --   -0.37025  -0.36824  -0.36647  -0.36446  -0.36327
 Alpha  occ. eigenvalues --   -0.36291  -0.36130  -0.35936  -0.35867  -0.35770
 Alpha  occ. eigenvalues --   -0.35615  -0.35523  -0.35100  -0.34942  -0.34883
 Alpha  occ. eigenvalues --   -0.34761  -0.34390  -0.34203  -0.34163  -0.33971
 Alpha  occ. eigenvalues --   -0.33952  -0.33606  -0.33362  -0.33295  -0.33268
 Alpha  occ. eigenvalues --   -0.33109  -0.33047  -0.32909  -0.32677  -0.32585
 Alpha  occ. eigenvalues --   -0.32418  -0.32094  -0.32040  -0.31983  -0.31578
 Alpha  occ. eigenvalues --   -0.31457  -0.31245  -0.31053  -0.30888  -0.30698
 Alpha  occ. eigenvalues --   -0.30680  -0.30580  -0.30007  -0.29985  -0.29906
 Alpha  occ. eigenvalues --   -0.29719  -0.29525  -0.29193  -0.29118  -0.28834
 Alpha  occ. eigenvalues --   -0.28657  -0.28438  -0.28217  -0.28126  -0.27974
 Alpha  occ. eigenvalues --   -0.27287  -0.27151  -0.26848  -0.26769  -0.26309
 Alpha  occ. eigenvalues --   -0.26304  -0.25461  -0.25452  -0.25391  -0.25202
 Alpha  occ. eigenvalues --   -0.25086  -0.25009  -0.24290  -0.24272  -0.23486
 Alpha  occ. eigenvalues --   -0.22901  -0.22803  -0.21826  -0.21573  -0.21381
 Alpha  occ. eigenvalues --   -0.20281  -0.19069  -0.18726  -0.18241  -0.17906
 Alpha  occ. eigenvalues --   -0.16526
 Alpha virt. eigenvalues --   -0.12391  -0.07137  -0.06810  -0.05405  -0.03961
 Alpha virt. eigenvalues --   -0.03678  -0.02848  -0.02089  -0.01363   0.00085
 Alpha virt. eigenvalues --    0.00938   0.01612   0.01777   0.02043   0.02594

 Mulliken charges:
               1
     1  Mg   0.699364
     2  C   -0.001527
     3  C   -0.019450
     4  C   -0.024699
     5  C   -0.066500
     6  N   -0.184076
     7  C   -0.146083
     8  C    0.045558
     9  C    0.027093
    10  C   -0.083011
    11  C    0.098689
    12  C    0.152100
    13  C    0.083745
    14  C    0.086767
    15  O   -0.213708
    16  O   -0.271159
    17  N   -0.263870
    18  C    0.191649
    19  C   -0.169848
    20  C    0.060829
    21  C    0.099907
    22  C    0.172025
    23  C   -0.063758
    24  O   -0.191942
    25  C    0.125323
    26  N   -0.222468
    27  C   -0.011962
    28  C    0.010361
    29  C    0.011773
    30  C    0.064500
    31  C    0.131781
    32  C    0.090855
    33  C    0.082277
    34  N   -0.295624
    35  C    0.064054
    36  C   -0.178321
    37  C    0.083717
    38  C    0.082000
    39  C    0.197483
    40  C   -0.033588
    41  O   -0.134241
    42  C    0.138205
    43  C    0.081249
    44  O   -0.185001
    45  O   -0.291526
    46  C    0.218992
    47  C    0.337180
    48  C   -0.081814
    49  C   -0.245972
    50  C    0.117687
    51  C    0.143030
    52  C    0.078887
    53  C    0.122645
    54  C   -0.036387
    55  C    0.114154
    56  C    0.078621
    57  C    0.066239
    58  C    0.112730
    59  C   -0.073566
    60  C    0.130333
    61  C    0.083699
    62  C    0.060215
    63  C    0.116339
    64  C   -0.084273
    65  C    0.086928
    66  C    0.102769
    67  H   -0.054013
    68  H   -0.097213
    69  H   -0.076968
    70  H   -0.021746
    71  H   -0.007656
    72  H   -0.009960
    73  H    0.006535
    74  H   -0.010097
    75  H   -0.010610
    76  H    0.014650
    77  H    0.009879
    78  H    0.014189
    79  H    0.009225
    80  H    0.011694
    81  H   -0.024486
    82  H    0.005440
    83  H    0.020275
    84  H   -0.006240
    85  H   -0.026359
    86  H   -0.026628
    87  H   -0.011235
    88  H    0.004316
    89  H   -0.011628
    90  H   -0.012523
    91  H   -0.025019
    92  H    0.002787
    93  H    0.000245
    94  H    0.000340
    95  H    0.014079
    96  H    0.017360
    97  H   -0.046834
    98  H    0.000539
    99  H    0.027653
   100  H    0.023448
   101  H    0.014348
   102  H    0.006625
   103  H   -0.017764
   104  H   -0.041853
   105  H    0.002584
   106  H    0.012343
   107  H    0.008395
   108  H   -0.008410
   109  H   -0.047851
   110  H   -0.013963
   111  H   -0.024903
   112  H   -0.056996
   113  H   -0.035237
   114  H   -0.032015
   115  H   -0.015978
   116  H   -0.024145
   117  H   -0.020470
   118  H   -0.054615
   119  H   -0.044149
   120  H   -0.033211
   121  H   -0.027645
   122  H   -0.037647
   123  H   -0.032227
   124  H   -0.039723
   125  H   -0.013465
   126  H   -0.022651
   127  H   -0.028108
   128  H   -0.044049
   129  H   -0.030369
   130  H   -0.036778
   131  H   -0.037463
   132  H   -0.043201
   133  H   -0.025230
   134  H   -0.024308
   135  H   -0.013547
   136  H   -0.019553
   137  H   -0.015289
   138  H   -0.029587
   139  H   -0.021642
   140  H   -0.011074
 Sum of Mulliken charges =  -0.00000

 Dipole moment (field-independent basis, Debye):
    X=             -0.7255    Y=              5.6115    Z=             -0.5969  Tot=              5.6896
 Quadrupole moment (field-independent basis, Debye-Ang):
   XX=           -393.9702   YY=           -431.6992   ZZ=           -405.5601
   XY=            -44.3359   XZ=            -22.3339   YZ=            -38.6492

 Normal termination of Gaussian 16 at Thu Apr 28 18:21:22 2022.
