 Gaussian 16, Revision A.03,
 Gaussian 16:  ES64L-G16RevA.03 25-Dec-2016

 -----------------------------------
 #p cam-b3lyp/Def2SVP td=(nstates=5)
 -----------------------------------

 --------------------------------------------------------
 step_1651_chromophore_26 TDDFT with cam-b3lyp functional
 --------------------------------------------------------
 Symbolic Z-matrix:
 Charge =  0 Multiplicity = 1

                         Standard orientation:
 ---------------------------------------------------------------------
 Center     Atomic      Atomic             Coordinates (Angstroms)
 Number     Number       Type             X           Y           Z
 ---------------------------------------------------------------------
      1         12           0       -4.121121    1.150311    0.450408
      2          6           0       -4.913964   -2.214689   -0.303871
      3          6           0       -2.401992   -0.093735    3.246341
      4          6           0       -2.757732    4.269590    0.902007
      5          6           0       -5.342076    2.089917   -2.559625
      6          7           0       -3.479343   -1.006582    1.172360
      7          6           0       -4.022545   -2.179834    0.715961
      8          6           0       -3.487632   -3.282545    1.608511
      9          6           0       -2.805884   -2.601045    2.867706
     10          6           0       -2.912596   -1.133617    2.402002
     11          6           0       -3.461718   -2.872336    4.306866
     12          6           0       -2.563181   -4.365635    0.844419
     13          6           0       -1.600976   -3.695955   -0.170038
     14          6           0       -0.158339   -4.319090   -0.092100
     15          8           0        0.121711   -5.538469   -0.033487
     16          8           0        0.817977   -3.316477   -0.246505
     17          7           0       -2.761607    2.031782    1.921903
     18          6           0       -2.281691    1.326528    2.999850
     19          6           0       -1.619448    2.303747    3.806785
     20          6           0       -1.716703    3.612091    3.225445
     21          6           0       -2.437604    3.357641    1.970277
     22          6           0       -1.039426    2.004556    5.179211
     23          6           0       -1.186364    4.904613    3.772414
     24          8           0       -0.454135    4.889309    4.799831
     25          6           0       -1.525010    6.245176    3.101798
     26          7           0       -3.859247    2.884985   -0.723204
     27          6           0       -3.436587    4.039977   -0.257571
     28          6           0       -3.853000    5.251354   -1.179959
     29          6           0       -4.514389    4.484337   -2.422742
     30          6           0       -4.635001    3.048032   -1.867991
     31          6           0       -4.714473    6.383038   -0.600750
     32          6           0       -3.746398    4.450543   -3.815678
     33          6           0       -4.671254    4.643079   -5.018686
     34          7           0       -5.108553    0.280681   -1.016916
     35          6           0       -5.663932    0.767160   -2.158329
     36          6           0       -6.565012   -0.204091   -2.749960
     37          6           0       -6.300749   -1.386526   -2.063201
     38          6           0       -5.370874   -1.053510   -1.025406
     39          6           0       -7.502615   -0.063839   -3.849677
     40          6           0       -6.668713   -2.777667   -1.928901
     41          8           0       -7.439539   -3.533482   -2.527385
     42          6           0       -5.715877   -3.390638   -0.851215
     43          6           0       -6.407088   -4.093878    0.221423
     44          8           0       -6.360916   -5.308868    0.416385
     45          8           0       -7.235601   -3.260034    0.901202
     46          6           0       -7.946122   -3.856737    2.113718
     47          6           0        2.111276   -3.808199   -0.685631
     48          6           0        2.711538   -2.767080   -1.520111
     49          6           0        4.063635   -2.544003   -1.705338
     50          6           0        5.112515   -3.308953   -0.888179
     51          6           0        4.539894   -1.508586   -2.728632
     52          6           0        3.923852   -0.104969   -2.474824
     53          6           0        4.960652    0.980790   -2.678274
     54          6           0        5.428224    1.681787   -1.356280
     55          6           0        5.271694    3.136432   -1.605568
     56          6           0        6.932310    1.377547   -1.057426
     57          6           0        7.133577    0.490165    0.158761
     58          6           0        8.187208   -0.599086   -0.084881
     59          6           0        9.387386   -0.493286    0.889990
     60          6           0        9.207576   -1.330456    2.147013
     61          6           0       10.694353   -0.992932    0.206425
     62          6           0       11.965974   -0.391278    0.927681
     63          6           0       12.790998    0.500076   -0.025197
     64          6           0       14.197419   -0.099431   -0.359314
     65          6           0       15.348625    0.974261   -0.109958
     66          6           0       14.176694   -0.630551   -1.801875
     67          1           0       -2.018353   -0.628537    4.118090
     68          1           0       -2.507631    5.327253    1.014313
     69          1           0       -5.870848    2.282033   -3.495815
     70          1           0       -4.424932   -3.726922    1.940961
     71          1           0       -1.757264   -2.900242    2.874656
     72          1           0       -4.192889   -3.675580    4.396905
     73          1           0       -3.909810   -1.982102    4.746373
     74          1           0       -2.744255   -3.341012    4.981554
     75          1           0       -3.303437   -4.808240    0.178268
     76          1           0       -2.132085   -5.121699    1.501041
     77          1           0       -1.419563   -2.622362   -0.114356
     78          1           0       -1.855598   -3.837403   -1.220815
     79          1           0       -1.775685    2.007829    5.982060
     80          1           0       -0.246508    2.743189    5.300382
     81          1           0       -0.558155    1.026869    5.144674
     82          1           0       -2.573962    6.306534    2.813521
     83          1           0       -0.977019    6.433702    2.178980
     84          1           0       -1.276499    7.054780    3.787500
     85          1           0       -2.888661    5.684949   -1.447612
     86          1           0       -5.552840    4.805449   -2.496402
     87          1           0       -5.378971    6.008250    0.177508
     88          1           0       -5.240280    6.910670   -1.395958
     89          1           0       -4.119650    7.108043   -0.047026
     90          1           0       -3.222842    3.499041   -3.913550
     91          1           0       -2.929746    5.169001   -3.743402
     92          1           0       -4.231994    5.469810   -5.577896
     93          1           0       -5.710354    4.803630   -4.733698
     94          1           0       -4.628200    3.694223   -5.553853
     95          1           0       -8.534107   -0.208927   -3.527959
     96          1           0       -7.223035   -0.593979   -4.759980
     97          1           0       -7.435509    0.995102   -4.099291
     98          1           0       -5.061637   -4.093277   -1.365560
     99          1           0       -8.459591   -4.726062    1.703293
    100          1           0       -8.658774   -3.227717    2.647410
    101          1           0       -7.227421   -4.199147    2.858330
    102          1           0        2.193719   -4.712869   -1.287955
    103          1           0        2.707596   -4.128154    0.169002
    104          1           0        2.108686   -2.057700   -2.088061
    105          1           0        4.838856   -4.340366   -0.664082
    106          1           0        4.969421   -2.736770    0.027524
    107          1           0        6.161544   -3.190000   -1.162070
    108          1           0        4.504907   -1.913889   -3.740509
    109          1           0        5.609625   -1.482236   -2.522089
    110          1           0        3.588866   -0.143440   -1.438088
    111          1           0        3.099888    0.079029   -3.165203
    112          1           0        4.439678    1.672960   -3.339845
    113          1           0        5.756362    0.670572   -3.355328
    114          1           0        4.900497    1.465457   -0.426960
    115          1           0        5.606039    3.603472   -0.678563
    116          1           0        4.230334    3.320202   -1.869130
    117          1           0        5.827622    3.396809   -2.505791
    118          1           0        7.531452    2.259695   -0.830730
    119          1           0        7.484671    1.109080   -1.957918
    120          1           0        6.199253   -0.023968    0.384654
    121          1           0        7.372150    1.127773    1.010292
    122          1           0        8.531308   -0.367825   -1.092600
    123          1           0        7.674411   -1.556891    0.004281
    124          1           0        9.481509    0.563965    1.137084
    125          1           0        9.873142   -2.191247    2.212069
    126          1           0        8.179799   -1.595933    2.393427
    127          1           0        9.475805   -0.701938    2.996586
    128          1           0       10.774812   -0.612831   -0.811910
    129          1           0       10.739914   -2.077899    0.112321
    130          1           0       12.458854   -1.229236    1.419735
    131          1           0       11.735369    0.182862    1.824437
    132          1           0       12.966678    1.444154    0.489758
    133          1           0       12.250748    0.771276   -0.932405
    134          1           0       14.387385   -0.983382    0.250498
    135          1           0       15.992955    0.548799    0.659862
    136          1           0       15.008742    1.933678    0.281678
    137          1           0       15.941540    1.263873   -0.976906
    138          1           0       14.279329   -1.709732   -1.693220
    139          1           0       15.045936   -0.398969   -2.418304
    140          1           0       13.246791   -0.440721   -2.336918
 ---------------------------------------------------------------------

 SCF Done:  E(RCAM-B3LYP) =  -3007.12376952     A.U. after   18 cycles

 Excitation energies and oscillator strengths:

 Excited State   1:      Singlet-A      1.6915 eV  732.99 nm  f=0.3810  <S**2>=0.000
     245 -> 248        0.16636
     246 -> 247        0.68951
     245 <- 248        0.10519
 This state for optimization and/or second-order correction.
 Total Energy, E(TD-HF/TD-DFT) =  -3007.06160825
 Copying the excited state density for this state as the 1-particle RhoCI density.

 Excited State   2:      Singlet-A      2.2146 eV  559.84 nm  f=0.1400  <S**2>=0.000
     245 -> 247        0.65240
     246 -> 248       -0.25092

 Excited State   3:      Singlet-A      3.1050 eV  399.30 nm  f=0.0069  <S**2>=0.000
     243 -> 247        0.68504
     246 -> 248        0.11396

 Excited State   4:      Singlet-A      3.3908 eV  365.65 nm  f=0.0005  <S**2>=0.000
     240 -> 247        0.53881
     240 -> 248        0.13303
     240 -> 249        0.31844
     240 -> 251       -0.24243

 Excited State   5:      Singlet-A      3.4890 eV  355.36 nm  f=0.0002  <S**2>=0.000
     241 -> 247        0.52456
     241 -> 249       -0.28194
     241 -> 250        0.13490
     241 -> 251       -0.20985
     242 -> 247       -0.22484

 The electronic state is 1-A.
 Alpha  occ. eigenvalues --  -46.89833 -19.25387 -19.25006 -19.20094 -19.19368
 Alpha  occ. eigenvalues --  -19.19098 -19.18980 -14.42546 -14.42227 -14.40126
 Alpha  occ. eigenvalues --  -14.40091 -10.39799 -10.39153 -10.36019 -10.35305
 Alpha  occ. eigenvalues --  -10.32774 -10.32132 -10.31684 -10.31329 -10.31224
 Alpha  occ. eigenvalues --  -10.31158 -10.31074 -10.30849 -10.30003 -10.29822
 Alpha  occ. eigenvalues --  -10.29213 -10.28671 -10.28670 -10.28557 -10.28466
 Alpha  occ. eigenvalues --  -10.28433 -10.28241 -10.28208 -10.28133 -10.27786
 Alpha  occ. eigenvalues --  -10.27757 -10.27419 -10.27240 -10.27078 -10.27074
 Alpha  occ. eigenvalues --  -10.27053 -10.26936 -10.26877 -10.26587 -10.26049
 Alpha  occ. eigenvalues --  -10.26027 -10.25795 -10.25741 -10.25465 -10.25259
 Alpha  occ. eigenvalues --  -10.25224 -10.25205 -10.24923 -10.24782 -10.24544
 Alpha  occ. eigenvalues --  -10.24522 -10.24517 -10.24461 -10.24424 -10.24295
 Alpha  occ. eigenvalues --  -10.24139 -10.24057 -10.24023 -10.24013 -10.23882
 Alpha  occ. eigenvalues --  -10.23803  -3.18364  -1.93216  -1.92831  -1.92677
 Alpha  occ. eigenvalues --   -1.15931  -1.14874  -1.09191  -1.08267  -1.06742
 Alpha  occ. eigenvalues --   -1.06609  -1.05056  -1.04206  -1.03792  -1.02953
 Alpha  occ. eigenvalues --   -0.93307  -0.90488  -0.89485  -0.89428  -0.88722
 Alpha  occ. eigenvalues --   -0.88457  -0.88354  -0.88224  -0.87355  -0.87146
 Alpha  occ. eigenvalues --   -0.85961  -0.85479  -0.84618  -0.84459  -0.83714
 Alpha  occ. eigenvalues --   -0.82696  -0.82479  -0.81395  -0.81115  -0.80622
 Alpha  occ. eigenvalues --   -0.80026  -0.78540  -0.78064  -0.77620  -0.76860
 Alpha  occ. eigenvalues --   -0.75569  -0.75460  -0.75281  -0.74494  -0.73684
 Alpha  occ. eigenvalues --   -0.73604  -0.72981  -0.71958  -0.70138  -0.69516
 Alpha  occ. eigenvalues --   -0.69259  -0.68273  -0.67693  -0.66618  -0.66519
 Alpha  occ. eigenvalues --   -0.65787  -0.65420  -0.65039  -0.64739  -0.64238
 Alpha  occ. eigenvalues --   -0.63697  -0.63297  -0.63274  -0.63071  -0.60674
 Alpha  occ. eigenvalues --   -0.59951  -0.59129  -0.58935  -0.58322  -0.58121
 Alpha  occ. eigenvalues --   -0.57304  -0.56639  -0.56368  -0.55968  -0.55511
 Alpha  occ. eigenvalues --   -0.55439  -0.54848  -0.54285  -0.54028  -0.53953
 Alpha  occ. eigenvalues --   -0.53673  -0.53130  -0.53090  -0.52859  -0.52724
 Alpha  occ. eigenvalues --   -0.52497  -0.52471  -0.52341  -0.52055  -0.51654
 Alpha  occ. eigenvalues --   -0.51435  -0.51387  -0.51331  -0.51134  -0.50796
 Alpha  occ. eigenvalues --   -0.50229  -0.50079  -0.50011  -0.49872  -0.49652
 Alpha  occ. eigenvalues --   -0.49414  -0.49151  -0.49059  -0.48889  -0.48762
 Alpha  occ. eigenvalues --   -0.48446  -0.48331  -0.48159  -0.47919  -0.47820
 Alpha  occ. eigenvalues --   -0.47692  -0.47421  -0.47123  -0.47048  -0.46788
 Alpha  occ. eigenvalues --   -0.46696  -0.46511  -0.46047  -0.45934  -0.45920
 Alpha  occ. eigenvalues --   -0.45756  -0.45432  -0.45259  -0.45146  -0.44962
 Alpha  occ. eigenvalues --   -0.44682  -0.44620  -0.44591  -0.44409  -0.44303
 Alpha  occ. eigenvalues --   -0.44091  -0.43755  -0.43602  -0.43566  -0.43105
 Alpha  occ. eigenvalues --   -0.42809  -0.42638  -0.42576  -0.42472  -0.42394
 Alpha  occ. eigenvalues --   -0.42033  -0.41935  -0.41845  -0.41651  -0.41238
 Alpha  occ. eigenvalues --   -0.41151  -0.40906  -0.40462  -0.40241  -0.39918
 Alpha  occ. eigenvalues --   -0.39614  -0.39442  -0.39102  -0.39070  -0.38933
 Alpha  occ. eigenvalues --   -0.38206  -0.38085  -0.37803  -0.37614  -0.37256
 Alpha  occ. eigenvalues --   -0.37025  -0.36792  -0.36521  -0.36373  -0.36170
 Alpha  occ. eigenvalues --   -0.36036  -0.35604  -0.34832  -0.34624  -0.34171
 Alpha  occ. eigenvalues --   -0.33853  -0.33446  -0.33228  -0.31893  -0.31349
 Alpha  occ. eigenvalues --   -0.31010  -0.30674  -0.29918  -0.27724  -0.24779
 Alpha  occ. eigenvalues --   -0.21904
 Alpha virt. eigenvalues --   -0.09659  -0.01829  -0.00420   0.00952   0.01568
 Alpha virt. eigenvalues --    0.04163   0.04947   0.05096   0.06076   0.06618
 Alpha virt. eigenvalues --    0.07595   0.08022   0.08135   0.08400   0.08807

 Mulliken charges:
               1
     1  Mg   0.831415
     2  C   -0.028519
     3  C   -0.035695
     4  C   -0.053704
     5  C   -0.072855
     6  N   -0.248253
     7  C   -0.110251
     8  C    0.002454
     9  C   -0.027963
    10  C   -0.053794
    11  C    0.037903
    12  C    0.094550
    13  C    0.019226
    14  C    0.171979
    15  O   -0.255713
    16  O   -0.336848
    17  N   -0.353599
    18  C    0.198424
    19  C   -0.168813
    20  C   -0.014496
    21  C    0.139738
    22  C    0.116725
    23  C    0.015552
    24  O   -0.233523
    25  C    0.043131
    26  N   -0.298055
    27  C    0.019215
    28  C   -0.043735
    29  C   -0.042870
    30  C    0.081391
    31  C    0.073927
    32  C    0.037793
    33  C    0.016156
    34  N   -0.387049
    35  C    0.064879
    36  C   -0.179841
    37  C    0.006306
    38  C    0.118094
    39  C    0.144914
    40  C    0.069524
    41  O   -0.174740
    42  C    0.058840
    43  C    0.167729
    44  O   -0.223471
    45  O   -0.353211
    46  C    0.181835
    47  C    0.298773
    48  C   -0.102008
    49  C   -0.265935
    50  C    0.053506
    51  C    0.095658
    52  C    0.017562
    53  C    0.063161
    54  C   -0.097487
    55  C    0.055752
    56  C    0.024468
    57  C    0.017139
    58  C    0.062345
    59  C   -0.126966
    60  C    0.067414
    61  C    0.031830
    62  C    0.006380
    63  C    0.059527
    64  C   -0.144701
    65  C    0.029755
    66  C    0.044852
    67  H   -0.016488
    68  H   -0.061407
    69  H   -0.042815
    70  H    0.010063
    71  H    0.026856
    72  H    0.016160
    73  H    0.031435
    74  H    0.015630
    75  H    0.018053
    76  H    0.046185
    77  H    0.042699
    78  H    0.045044
    79  H    0.037143
    80  H    0.045098
    81  H    0.002532
    82  H    0.032588
    83  H    0.048807
    84  H    0.030667
    85  H    0.008089
    86  H    0.007868
    87  H    0.013983
    88  H    0.029498
    89  H    0.010445
    90  H    0.018101
    91  H    0.002328
    92  H    0.026434
    93  H    0.021608
    94  H    0.022783
    95  H    0.039863
    96  H    0.042185
    97  H   -0.022736
    98  H    0.041602
    99  H    0.052947
   100  H    0.047446
   101  H    0.033866
   102  H    0.036888
   103  H    0.010614
   104  H   -0.005737
   105  H    0.026588
   106  H    0.034405
   107  H    0.032090
   108  H    0.020805
   109  H   -0.020395
   110  H    0.016441
   111  H    0.004084
   112  H   -0.024006
   113  H   -0.005664
   114  H    0.000424
   115  H    0.008276
   116  H    0.001443
   117  H    0.002878
   118  H   -0.022580
   119  H   -0.015373
   120  H   -0.008105
   121  H    0.000050
   122  H   -0.009672
   123  H   -0.007727
   124  H   -0.008469
   125  H    0.011076
   126  H    0.002556
   127  H   -0.003441
   128  H   -0.017270
   129  H   -0.001231
   130  H   -0.008159
   131  H   -0.008545
   132  H   -0.012493
   133  H    0.002027
   134  H    0.007369
   135  H    0.009705
   136  H    0.003690
   137  H    0.008243
   138  H   -0.005260
   139  H    0.003450
   140  H    0.010737
 Sum of Mulliken charges =  -0.00000

 Dipole moment (field-independent basis, Debye):
    X=             -0.3771    Y=              6.2597    Z=              0.2764  Tot=              6.2771
 Quadrupole moment (field-independent basis, Debye-Ang):
   XX=           -396.4245   YY=           -428.8987   ZZ=           -403.0587
   XY=            -45.7570   XZ=            -26.0646   YZ=            -38.6359

 Normal termination of Gaussian 16 at Thu Apr 28 17:16:06 2022.
