 Gaussian 16, Revision A.03,
 Gaussian 16:  ES64L-G16RevA.03 25-Dec-2016

 ---------------------------------
 #p PBE1PBE/Def2SVP td=(nstates=5)
 ---------------------------------

 ------------------------------------------------------
 step_1651_chromophore_26 TDDFT with PBE1PBE functional
 ------------------------------------------------------
 Symbolic Z-matrix:
 Charge =  0 Multiplicity = 1

                         Standard orientation:
 ---------------------------------------------------------------------
 Center     Atomic      Atomic             Coordinates (Angstroms)
 Number     Number       Type             X           Y           Z
 ---------------------------------------------------------------------
      1         12           0       -4.121121    1.150311    0.450408
      2          6           0       -4.913964   -2.214689   -0.303871
      3          6           0       -2.401992   -0.093735    3.246341
      4          6           0       -2.757732    4.269590    0.902007
      5          6           0       -5.342076    2.089917   -2.559625
      6          7           0       -3.479343   -1.006582    1.172360
      7          6           0       -4.022545   -2.179834    0.715961
      8          6           0       -3.487632   -3.282545    1.608511
      9          6           0       -2.805884   -2.601045    2.867706
     10          6           0       -2.912596   -1.133617    2.402002
     11          6           0       -3.461718   -2.872336    4.306866
     12          6           0       -2.563181   -4.365635    0.844419
     13          6           0       -1.600976   -3.695955   -0.170038
     14          6           0       -0.158339   -4.319090   -0.092100
     15          8           0        0.121711   -5.538469   -0.033487
     16          8           0        0.817977   -3.316477   -0.246505
     17          7           0       -2.761607    2.031782    1.921903
     18          6           0       -2.281691    1.326528    2.999850
     19          6           0       -1.619448    2.303747    3.806785
     20          6           0       -1.716703    3.612091    3.225445
     21          6           0       -2.437604    3.357641    1.970277
     22          6           0       -1.039426    2.004556    5.179211
     23          6           0       -1.186364    4.904613    3.772414
     24          8           0       -0.454135    4.889309    4.799831
     25          6           0       -1.525010    6.245176    3.101798
     26          7           0       -3.859247    2.884985   -0.723204
     27          6           0       -3.436587    4.039977   -0.257571
     28          6           0       -3.853000    5.251354   -1.179959
     29          6           0       -4.514389    4.484337   -2.422742
     30          6           0       -4.635001    3.048032   -1.867991
     31          6           0       -4.714473    6.383038   -0.600750
     32          6           0       -3.746398    4.450543   -3.815678
     33          6           0       -4.671254    4.643079   -5.018686
     34          7           0       -5.108553    0.280681   -1.016916
     35          6           0       -5.663932    0.767160   -2.158329
     36          6           0       -6.565012   -0.204091   -2.749960
     37          6           0       -6.300749   -1.386526   -2.063201
     38          6           0       -5.370874   -1.053510   -1.025406
     39          6           0       -7.502615   -0.063839   -3.849677
     40          6           0       -6.668713   -2.777667   -1.928901
     41          8           0       -7.439539   -3.533482   -2.527385
     42          6           0       -5.715877   -3.390638   -0.851215
     43          6           0       -6.407088   -4.093878    0.221423
     44          8           0       -6.360916   -5.308868    0.416385
     45          8           0       -7.235601   -3.260034    0.901202
     46          6           0       -7.946122   -3.856737    2.113718
     47          6           0        2.111276   -3.808199   -0.685631
     48          6           0        2.711538   -2.767080   -1.520111
     49          6           0        4.063635   -2.544003   -1.705338
     50          6           0        5.112515   -3.308953   -0.888179
     51          6           0        4.539894   -1.508586   -2.728632
     52          6           0        3.923852   -0.104969   -2.474824
     53          6           0        4.960652    0.980790   -2.678274
     54          6           0        5.428224    1.681787   -1.356280
     55          6           0        5.271694    3.136432   -1.605568
     56          6           0        6.932310    1.377547   -1.057426
     57          6           0        7.133577    0.490165    0.158761
     58          6           0        8.187208   -0.599086   -0.084881
     59          6           0        9.387386   -0.493286    0.889990
     60          6           0        9.207576   -1.330456    2.147013
     61          6           0       10.694353   -0.992932    0.206425
     62          6           0       11.965974   -0.391278    0.927681
     63          6           0       12.790998    0.500076   -0.025197
     64          6           0       14.197419   -0.099431   -0.359314
     65          6           0       15.348625    0.974261   -0.109958
     66          6           0       14.176694   -0.630551   -1.801875
     67          1           0       -2.018353   -0.628537    4.118090
     68          1           0       -2.507631    5.327253    1.014313
     69          1           0       -5.870848    2.282033   -3.495815
     70          1           0       -4.424932   -3.726922    1.940961
     71          1           0       -1.757264   -2.900242    2.874656
     72          1           0       -4.192889   -3.675580    4.396905
     73          1           0       -3.909810   -1.982102    4.746373
     74          1           0       -2.744255   -3.341012    4.981554
     75          1           0       -3.303437   -4.808240    0.178268
     76          1           0       -2.132085   -5.121699    1.501041
     77          1           0       -1.419563   -2.622362   -0.114356
     78          1           0       -1.855598   -3.837403   -1.220815
     79          1           0       -1.775685    2.007829    5.982060
     80          1           0       -0.246508    2.743189    5.300382
     81          1           0       -0.558155    1.026869    5.144674
     82          1           0       -2.573962    6.306534    2.813521
     83          1           0       -0.977019    6.433702    2.178980
     84          1           0       -1.276499    7.054780    3.787500
     85          1           0       -2.888661    5.684949   -1.447612
     86          1           0       -5.552840    4.805449   -2.496402
     87          1           0       -5.378971    6.008250    0.177508
     88          1           0       -5.240280    6.910670   -1.395958
     89          1           0       -4.119650    7.108043   -0.047026
     90          1           0       -3.222842    3.499041   -3.913550
     91          1           0       -2.929746    5.169001   -3.743402
     92          1           0       -4.231994    5.469810   -5.577896
     93          1           0       -5.710354    4.803630   -4.733698
     94          1           0       -4.628200    3.694223   -5.553853
     95          1           0       -8.534107   -0.208927   -3.527959
     96          1           0       -7.223035   -0.593979   -4.759980
     97          1           0       -7.435509    0.995102   -4.099291
     98          1           0       -5.061637   -4.093277   -1.365560
     99          1           0       -8.459591   -4.726062    1.703293
    100          1           0       -8.658774   -3.227717    2.647410
    101          1           0       -7.227421   -4.199147    2.858330
    102          1           0        2.193719   -4.712869   -1.287955
    103          1           0        2.707596   -4.128154    0.169002
    104          1           0        2.108686   -2.057700   -2.088061
    105          1           0        4.838856   -4.340366   -0.664082
    106          1           0        4.969421   -2.736770    0.027524
    107          1           0        6.161544   -3.190000   -1.162070
    108          1           0        4.504907   -1.913889   -3.740509
    109          1           0        5.609625   -1.482236   -2.522089
    110          1           0        3.588866   -0.143440   -1.438088
    111          1           0        3.099888    0.079029   -3.165203
    112          1           0        4.439678    1.672960   -3.339845
    113          1           0        5.756362    0.670572   -3.355328
    114          1           0        4.900497    1.465457   -0.426960
    115          1           0        5.606039    3.603472   -0.678563
    116          1           0        4.230334    3.320202   -1.869130
    117          1           0        5.827622    3.396809   -2.505791
    118          1           0        7.531452    2.259695   -0.830730
    119          1           0        7.484671    1.109080   -1.957918
    120          1           0        6.199253   -0.023968    0.384654
    121          1           0        7.372150    1.127773    1.010292
    122          1           0        8.531308   -0.367825   -1.092600
    123          1           0        7.674411   -1.556891    0.004281
    124          1           0        9.481509    0.563965    1.137084
    125          1           0        9.873142   -2.191247    2.212069
    126          1           0        8.179799   -1.595933    2.393427
    127          1           0        9.475805   -0.701938    2.996586
    128          1           0       10.774812   -0.612831   -0.811910
    129          1           0       10.739914   -2.077899    0.112321
    130          1           0       12.458854   -1.229236    1.419735
    131          1           0       11.735369    0.182862    1.824437
    132          1           0       12.966678    1.444154    0.489758
    133          1           0       12.250748    0.771276   -0.932405
    134          1           0       14.387385   -0.983382    0.250498
    135          1           0       15.992955    0.548799    0.659862
    136          1           0       15.008742    1.933678    0.281678
    137          1           0       15.941540    1.263873   -0.976906
    138          1           0       14.279329   -1.709732   -1.693220
    139          1           0       15.045936   -0.398969   -2.418304
    140          1           0       13.246791   -0.440721   -2.336918
 ---------------------------------------------------------------------

 SCF Done:  E(RPBE1PBE) =  -3005.31330250     A.U. after   16 cycles

 Excitation energies and oscillator strengths:

 Excited State   1:      Singlet-A      1.8326 eV  676.56 nm  f=0.3663  <S**2>=0.000
     245 -> 248        0.16011
     246 -> 247        0.69701
     246 <- 247       -0.11439
 This state for optimization and/or second-order correction.
 Total Energy, E(TD-HF/TD-DFT) =  -3005.24595662
 Copying the excited state density for this state as the 1-particle RhoCI density.

 Excited State   2:      Singlet-A      2.2137 eV  560.08 nm  f=0.1283  <S**2>=0.000
     245 -> 247        0.66098
     246 -> 248       -0.22534

 Excited State   3:      Singlet-A      2.5766 eV  481.19 nm  f=0.0001  <S**2>=0.000
     244 -> 247        0.70702

 Excited State   4:      Singlet-A      2.8065 eV  441.78 nm  f=0.0139  <S**2>=0.000
     243 -> 247        0.68941

 Excited State   5:      Singlet-A      2.8869 eV  429.47 nm  f=0.0001  <S**2>=0.000
     242 -> 247        0.66856
     242 -> 249        0.15362
     242 -> 250        0.11076

 The electronic state is 1-A.
 Alpha  occ. eigenvalues --  -46.93212 -19.26055 -19.25718 -19.20411 -19.19671
 Alpha  occ. eigenvalues --  -19.19432 -19.19156 -14.41943 -14.41822 -14.39908
 Alpha  occ. eigenvalues --  -14.39630 -10.36904 -10.36220 -10.32988 -10.32633
 Alpha  occ. eigenvalues --  -10.30014 -10.29642 -10.29126 -10.29050 -10.28846
 Alpha  occ. eigenvalues --  -10.28712 -10.28613 -10.28450 -10.28039 -10.27809
 Alpha  occ. eigenvalues --  -10.26943 -10.26477 -10.26296 -10.26279 -10.26165
 Alpha  occ. eigenvalues --  -10.26032 -10.25990 -10.25848 -10.25759 -10.25747
 Alpha  occ. eigenvalues --  -10.25447 -10.24904 -10.24891 -10.24704 -10.24672
 Alpha  occ. eigenvalues --  -10.24662 -10.24518 -10.24268 -10.24056 -10.23676
 Alpha  occ. eigenvalues --  -10.23537 -10.23478 -10.23455 -10.23131 -10.22938
 Alpha  occ. eigenvalues --  -10.22872 -10.22753 -10.22313 -10.22146 -10.22093
 Alpha  occ. eigenvalues --  -10.22091 -10.22074 -10.22045 -10.21998 -10.21697
 Alpha  occ. eigenvalues --  -10.21642 -10.21583 -10.21555 -10.21412 -10.21259
 Alpha  occ. eigenvalues --  -10.21152  -3.15324  -1.88114  -1.87708  -1.87559
 Alpha  occ. eigenvalues --   -1.10721  -1.09692  -1.04122  -1.02787  -1.01615
 Alpha  occ. eigenvalues --   -1.01478  -0.99849  -0.98872  -0.98361  -0.97479
 Alpha  occ. eigenvalues --   -0.87767  -0.84569  -0.83837  -0.83533  -0.82889
 Alpha  occ. eigenvalues --   -0.82781  -0.82622  -0.82500  -0.81711  -0.81242
 Alpha  occ. eigenvalues --   -0.80053  -0.79689  -0.78837  -0.78753  -0.77914
 Alpha  occ. eigenvalues --   -0.76926  -0.76662  -0.75570  -0.75437  -0.74840
 Alpha  occ. eigenvalues --   -0.74177  -0.72886  -0.72393  -0.71836  -0.71149
 Alpha  occ. eigenvalues --   -0.69797  -0.69694  -0.69353  -0.68610  -0.68135
 Alpha  occ. eigenvalues --   -0.67757  -0.67291  -0.66404  -0.64480  -0.64048
 Alpha  occ. eigenvalues --   -0.63665  -0.62437  -0.62031  -0.60982  -0.60793
 Alpha  occ. eigenvalues --   -0.60224  -0.60021  -0.59612  -0.58926  -0.58386
 Alpha  occ. eigenvalues --   -0.58203  -0.57892  -0.57457  -0.57193  -0.55285
 Alpha  occ. eigenvalues --   -0.54561  -0.53634  -0.53418  -0.52945  -0.52625
 Alpha  occ. eigenvalues --   -0.51779  -0.51155  -0.50920  -0.50476  -0.50083
 Alpha  occ. eigenvalues --   -0.49901  -0.49382  -0.48851  -0.48590  -0.48420
 Alpha  occ. eigenvalues --   -0.48126  -0.47837  -0.47636  -0.47414  -0.47178
 Alpha  occ. eigenvalues --   -0.47112  -0.46957  -0.46923  -0.46569  -0.46108
 Alpha  occ. eigenvalues --   -0.45940  -0.45895  -0.45757  -0.45652  -0.45412
 Alpha  occ. eigenvalues --   -0.44851  -0.44709  -0.44585  -0.44397  -0.44118
 Alpha  occ. eigenvalues --   -0.44045  -0.43781  -0.43624  -0.43406  -0.43312
 Alpha  occ. eigenvalues --   -0.43076  -0.42928  -0.42736  -0.42627  -0.42548
 Alpha  occ. eigenvalues --   -0.42372  -0.42064  -0.41877  -0.41680  -0.41472
 Alpha  occ. eigenvalues --   -0.41262  -0.41161  -0.40909  -0.40607  -0.40558
 Alpha  occ. eigenvalues --   -0.40485  -0.40124  -0.40014  -0.39873  -0.39584
 Alpha  occ. eigenvalues --   -0.39475  -0.39345  -0.39264  -0.39188  -0.39000
 Alpha  occ. eigenvalues --   -0.38828  -0.38546  -0.38387  -0.38237  -0.37947
 Alpha  occ. eigenvalues --   -0.37678  -0.37459  -0.37325  -0.37203  -0.37171
 Alpha  occ. eigenvalues --   -0.36768  -0.36742  -0.36694  -0.36347  -0.36123
 Alpha  occ. eigenvalues --   -0.35874  -0.35799  -0.35349  -0.34986  -0.34879
 Alpha  occ. eigenvalues --   -0.34351  -0.34169  -0.34134  -0.33875  -0.33674
 Alpha  occ. eigenvalues --   -0.33057  -0.32930  -0.32764  -0.32425  -0.32323
 Alpha  occ. eigenvalues --   -0.31814  -0.31778  -0.31508  -0.31406  -0.30951
 Alpha  occ. eigenvalues --   -0.30905  -0.30475  -0.29806  -0.29674  -0.29255
 Alpha  occ. eigenvalues --   -0.28846  -0.28687  -0.28207  -0.27511  -0.26531
 Alpha  occ. eigenvalues --   -0.26002  -0.25915  -0.25312  -0.23020  -0.21679
 Alpha  occ. eigenvalues --   -0.19515
 Alpha virt. eigenvalues --   -0.12080  -0.05407  -0.04592  -0.02904  -0.01734
 Alpha virt. eigenvalues --   -0.00408   0.00220   0.00707   0.01670   0.03005
 Alpha virt. eigenvalues --    0.03721   0.04422   0.04700   0.04935   0.05331

 Mulliken charges:
               1
     1  Mg   0.972115
     2  C   -0.046818
     3  C   -0.030300
     4  C   -0.049789
     5  C   -0.063720
     6  N   -0.347209
     7  C   -0.036856
     8  C   -0.064444
     9  C   -0.102349
    10  C   -0.010854
    11  C   -0.020068
    12  C    0.030538
    13  C   -0.053944
    14  C    0.238022
    15  O   -0.286093
    16  O   -0.366203
    17  N   -0.465920
    18  C    0.221636
    19  C   -0.200442
    20  C   -0.060483
    21  C    0.172005
    22  C    0.059255
    23  C    0.062435
    24  O   -0.269628
    25  C   -0.031075
    26  N   -0.400746
    27  C    0.058390
    28  C   -0.115082
    29  C   -0.114710
    30  C    0.104772
    31  C    0.012371
    32  C   -0.019938
    33  C   -0.058476
    34  N   -0.517762
    35  C    0.088207
    36  C   -0.197024
    37  C   -0.039707
    38  C    0.175397
    39  C    0.090668
    40  C    0.166510
    41  O   -0.219655
    42  C   -0.052093
    43  C    0.259498
    44  O   -0.261452
    45  O   -0.381577
    46  C    0.125188
    47  C    0.259181
    48  C   -0.115422
    49  C   -0.309455
    50  C   -0.014399
    51  C    0.040018
    52  C   -0.050553
    53  C    0.011851
    54  C   -0.190016
    55  C   -0.010282
    56  C   -0.017916
    57  C   -0.044722
    58  C    0.001096
    59  C   -0.215436
    60  C    0.013009
    61  C   -0.027404
    62  C   -0.046081
    63  C    0.001003
    64  C   -0.236209
    65  C   -0.029552
    66  C   -0.011390
    67  H    0.014591
    68  H   -0.026686
    69  H   -0.006318
    70  H    0.056167
    71  H    0.063758
    72  H    0.042071
    73  H    0.057990
    74  H    0.042566
    75  H    0.055396
    76  H    0.075565
    77  H    0.075736
    78  H    0.076630
    79  H    0.063591
    80  H    0.072121
    81  H    0.030141
    82  H    0.058502
    83  H    0.074035
    84  H    0.058083
    85  H    0.045405
    86  H    0.045681
    87  H    0.042512
    88  H    0.056544
    89  H    0.037907
    90  H    0.050942
    91  H    0.035731
    92  H    0.054691
    93  H    0.047706
    94  H    0.049739
    95  H    0.068646
    96  H    0.070209
    97  H    0.007943
    98  H    0.079006
    99  H    0.074061
   100  H    0.068910
   101  H    0.055560
   102  H    0.063844
   103  H    0.036846
   104  H    0.026170
   105  H    0.053613
   106  H    0.063422
   107  H    0.058200
   108  H    0.052520
   109  H    0.016185
   110  H    0.050101
   111  H    0.036222
   112  H    0.008837
   113  H    0.024793
   114  H    0.036340
   115  H    0.037170
   116  H    0.031593
   117  H    0.031836
   118  H    0.010176
   119  H    0.013617
   120  H    0.026747
   121  H    0.031702
   122  H    0.024011
   123  H    0.028515
   124  H    0.029533
   125  H    0.037725
   126  H    0.029945
   127  H    0.024237
   128  H    0.016266
   129  H    0.030647
   130  H    0.022792
   131  H    0.022810
   132  H    0.021191
   133  H    0.032016
   134  H    0.043916
   135  H    0.037166
   136  H    0.029863
   137  H    0.034602
   138  H    0.022616
   139  H    0.030385
   140  H    0.036791
 Sum of Mulliken charges =  -0.00000

 Dipole moment (field-independent basis, Debye):
    X=             -0.6746    Y=              6.1360    Z=             -0.2081  Tot=              6.1764
 Quadrupole moment (field-independent basis, Debye-Ang):
   XX=           -390.7201   YY=           -425.7091   ZZ=           -399.8652
   XY=            -45.8513   XZ=            -23.6270   YZ=            -40.5887

 Normal termination of Gaussian 16 at Thu Apr 28 17:36:40 2022.
