 Gaussian 16, Revision A.03,
 Gaussian 16:  ES64L-G16RevA.03 25-Dec-2016

 --------------------------------
 #p wB97XD/Def2SVP td=(nstates=5)
 --------------------------------

 -----------------------------------------------------
 step_1651_chromophore_26 TDDFT with wB97XD functional
 -----------------------------------------------------
 Symbolic Z-matrix:
 Charge =  0 Multiplicity = 1

                         Standard orientation:
 ---------------------------------------------------------------------
 Center     Atomic      Atomic             Coordinates (Angstroms)
 Number     Number       Type             X           Y           Z
 ---------------------------------------------------------------------
      1         12           0       -4.121121    1.150311    0.450408
      2          6           0       -4.913964   -2.214689   -0.303871
      3          6           0       -2.401992   -0.093735    3.246341
      4          6           0       -2.757732    4.269590    0.902007
      5          6           0       -5.342076    2.089917   -2.559625
      6          7           0       -3.479343   -1.006582    1.172360
      7          6           0       -4.022545   -2.179834    0.715961
      8          6           0       -3.487632   -3.282545    1.608511
      9          6           0       -2.805884   -2.601045    2.867706
     10          6           0       -2.912596   -1.133617    2.402002
     11          6           0       -3.461718   -2.872336    4.306866
     12          6           0       -2.563181   -4.365635    0.844419
     13          6           0       -1.600976   -3.695955   -0.170038
     14          6           0       -0.158339   -4.319090   -0.092100
     15          8           0        0.121711   -5.538469   -0.033487
     16          8           0        0.817977   -3.316477   -0.246505
     17          7           0       -2.761607    2.031782    1.921903
     18          6           0       -2.281691    1.326528    2.999850
     19          6           0       -1.619448    2.303747    3.806785
     20          6           0       -1.716703    3.612091    3.225445
     21          6           0       -2.437604    3.357641    1.970277
     22          6           0       -1.039426    2.004556    5.179211
     23          6           0       -1.186364    4.904613    3.772414
     24          8           0       -0.454135    4.889309    4.799831
     25          6           0       -1.525010    6.245176    3.101798
     26          7           0       -3.859247    2.884985   -0.723204
     27          6           0       -3.436587    4.039977   -0.257571
     28          6           0       -3.853000    5.251354   -1.179959
     29          6           0       -4.514389    4.484337   -2.422742
     30          6           0       -4.635001    3.048032   -1.867991
     31          6           0       -4.714473    6.383038   -0.600750
     32          6           0       -3.746398    4.450543   -3.815678
     33          6           0       -4.671254    4.643079   -5.018686
     34          7           0       -5.108553    0.280681   -1.016916
     35          6           0       -5.663932    0.767160   -2.158329
     36          6           0       -6.565012   -0.204091   -2.749960
     37          6           0       -6.300749   -1.386526   -2.063201
     38          6           0       -5.370874   -1.053510   -1.025406
     39          6           0       -7.502615   -0.063839   -3.849677
     40          6           0       -6.668713   -2.777667   -1.928901
     41          8           0       -7.439539   -3.533482   -2.527385
     42          6           0       -5.715877   -3.390638   -0.851215
     43          6           0       -6.407088   -4.093878    0.221423
     44          8           0       -6.360916   -5.308868    0.416385
     45          8           0       -7.235601   -3.260034    0.901202
     46          6           0       -7.946122   -3.856737    2.113718
     47          6           0        2.111276   -3.808199   -0.685631
     48          6           0        2.711538   -2.767080   -1.520111
     49          6           0        4.063635   -2.544003   -1.705338
     50          6           0        5.112515   -3.308953   -0.888179
     51          6           0        4.539894   -1.508586   -2.728632
     52          6           0        3.923852   -0.104969   -2.474824
     53          6           0        4.960652    0.980790   -2.678274
     54          6           0        5.428224    1.681787   -1.356280
     55          6           0        5.271694    3.136432   -1.605568
     56          6           0        6.932310    1.377547   -1.057426
     57          6           0        7.133577    0.490165    0.158761
     58          6           0        8.187208   -0.599086   -0.084881
     59          6           0        9.387386   -0.493286    0.889990
     60          6           0        9.207576   -1.330456    2.147013
     61          6           0       10.694353   -0.992932    0.206425
     62          6           0       11.965974   -0.391278    0.927681
     63          6           0       12.790998    0.500076   -0.025197
     64          6           0       14.197419   -0.099431   -0.359314
     65          6           0       15.348625    0.974261   -0.109958
     66          6           0       14.176694   -0.630551   -1.801875
     67          1           0       -2.018353   -0.628537    4.118090
     68          1           0       -2.507631    5.327253    1.014313
     69          1           0       -5.870848    2.282033   -3.495815
     70          1           0       -4.424932   -3.726922    1.940961
     71          1           0       -1.757264   -2.900242    2.874656
     72          1           0       -4.192889   -3.675580    4.396905
     73          1           0       -3.909810   -1.982102    4.746373
     74          1           0       -2.744255   -3.341012    4.981554
     75          1           0       -3.303437   -4.808240    0.178268
     76          1           0       -2.132085   -5.121699    1.501041
     77          1           0       -1.419563   -2.622362   -0.114356
     78          1           0       -1.855598   -3.837403   -1.220815
     79          1           0       -1.775685    2.007829    5.982060
     80          1           0       -0.246508    2.743189    5.300382
     81          1           0       -0.558155    1.026869    5.144674
     82          1           0       -2.573962    6.306534    2.813521
     83          1           0       -0.977019    6.433702    2.178980
     84          1           0       -1.276499    7.054780    3.787500
     85          1           0       -2.888661    5.684949   -1.447612
     86          1           0       -5.552840    4.805449   -2.496402
     87          1           0       -5.378971    6.008250    0.177508
     88          1           0       -5.240280    6.910670   -1.395958
     89          1           0       -4.119650    7.108043   -0.047026
     90          1           0       -3.222842    3.499041   -3.913550
     91          1           0       -2.929746    5.169001   -3.743402
     92          1           0       -4.231994    5.469810   -5.577896
     93          1           0       -5.710354    4.803630   -4.733698
     94          1           0       -4.628200    3.694223   -5.553853
     95          1           0       -8.534107   -0.208927   -3.527959
     96          1           0       -7.223035   -0.593979   -4.759980
     97          1           0       -7.435509    0.995102   -4.099291
     98          1           0       -5.061637   -4.093277   -1.365560
     99          1           0       -8.459591   -4.726062    1.703293
    100          1           0       -8.658774   -3.227717    2.647410
    101          1           0       -7.227421   -4.199147    2.858330
    102          1           0        2.193719   -4.712869   -1.287955
    103          1           0        2.707596   -4.128154    0.169002
    104          1           0        2.108686   -2.057700   -2.088061
    105          1           0        4.838856   -4.340366   -0.664082
    106          1           0        4.969421   -2.736770    0.027524
    107          1           0        6.161544   -3.190000   -1.162070
    108          1           0        4.504907   -1.913889   -3.740509
    109          1           0        5.609625   -1.482236   -2.522089
    110          1           0        3.588866   -0.143440   -1.438088
    111          1           0        3.099888    0.079029   -3.165203
    112          1           0        4.439678    1.672960   -3.339845
    113          1           0        5.756362    0.670572   -3.355328
    114          1           0        4.900497    1.465457   -0.426960
    115          1           0        5.606039    3.603472   -0.678563
    116          1           0        4.230334    3.320202   -1.869130
    117          1           0        5.827622    3.396809   -2.505791
    118          1           0        7.531452    2.259695   -0.830730
    119          1           0        7.484671    1.109080   -1.957918
    120          1           0        6.199253   -0.023968    0.384654
    121          1           0        7.372150    1.127773    1.010292
    122          1           0        8.531308   -0.367825   -1.092600
    123          1           0        7.674411   -1.556891    0.004281
    124          1           0        9.481509    0.563965    1.137084
    125          1           0        9.873142   -2.191247    2.212069
    126          1           0        8.179799   -1.595933    2.393427
    127          1           0        9.475805   -0.701938    2.996586
    128          1           0       10.774812   -0.612831   -0.811910
    129          1           0       10.739914   -2.077899    0.112321
    130          1           0       12.458854   -1.229236    1.419735
    131          1           0       11.735369    0.182862    1.824437
    132          1           0       12.966678    1.444154    0.489758
    133          1           0       12.250748    0.771276   -0.932405
    134          1           0       14.387385   -0.983382    0.250498
    135          1           0       15.992955    0.548799    0.659862
    136          1           0       15.008742    1.933678    0.281678
    137          1           0       15.941540    1.263873   -0.976906
    138          1           0       14.279329   -1.709732   -1.693220
    139          1           0       15.045936   -0.398969   -2.418304
    140          1           0       13.246791   -0.440721   -2.336918
 ---------------------------------------------------------------------

 SCF Done:  E(RwB97XD) =  -3007.82334741     A.U. after   19 cycles

 Excitation energies and oscillator strengths:

 Excited State   1:      Singlet-A      1.6446 eV  753.90 nm  f=0.3809  <S**2>=0.000
     245 -> 248        0.17070
     246 -> 247        0.68720
     245 <- 248        0.11318
 This state for optimization and/or second-order correction.
 Total Energy, E(TD-HF/TD-DFT) =  -3007.76291050
 Copying the excited state density for this state as the 1-particle RhoCI density.

 Excited State   2:      Singlet-A      2.1620 eV  573.47 nm  f=0.1360  <S**2>=0.000
     245 -> 247        0.64945
     246 -> 248       -0.25398

 Excited State   3:      Singlet-A      3.1194 eV  397.46 nm  f=0.0056  <S**2>=0.000
     243 -> 247        0.67806
     246 -> 248        0.12545

 Excited State   4:      Singlet-A      3.3984 eV  364.83 nm  f=0.0006  <S**2>=0.000
     240 -> 247        0.52467
     240 -> 248        0.13502
     240 -> 249        0.34309
     240 -> 250        0.21874
     240 -> 251       -0.10346

 Excited State   5:      Singlet-A      3.5452 eV  349.73 nm  f=0.0023  <S**2>=0.000
     241 -> 247        0.41996
     241 -> 249       -0.28331
     241 -> 250        0.23842
     242 -> 247       -0.35219
     242 -> 249        0.13751

 The electronic state is 1-A.
 Alpha  occ. eigenvalues --  -46.96179 -19.30580 -19.30251 -19.25058 -19.24318
 Alpha  occ. eigenvalues --  -19.24199 -19.24010 -14.47165 -14.46798 -14.44728
 Alpha  occ. eigenvalues --  -14.44686 -10.43650 -10.42993 -10.40063 -10.39297
 Alpha  occ. eigenvalues --  -10.36517 -10.36222 -10.35833 -10.35373 -10.35230
 Alpha  occ. eigenvalues --  -10.35131 -10.35096 -10.34823 -10.33934 -10.33772
 Alpha  occ. eigenvalues --  -10.33297 -10.32917 -10.32727 -10.32711 -10.32572
 Alpha  occ. eigenvalues --  -10.32504 -10.32261 -10.32159 -10.32149 -10.31775
 Alpha  occ. eigenvalues --  -10.31771 -10.31599 -10.31158 -10.31118 -10.31053
 Alpha  occ. eigenvalues --  -10.30948 -10.30842 -10.30794 -10.30594 -10.29854
 Alpha  occ. eigenvalues --  -10.29828 -10.29753 -10.29575 -10.29450 -10.29223
 Alpha  occ. eigenvalues --  -10.29179 -10.29137 -10.28913 -10.28694 -10.28472
 Alpha  occ. eigenvalues --  -10.28446 -10.28442 -10.28396 -10.28364 -10.28118
 Alpha  occ. eigenvalues --  -10.28029 -10.27945 -10.27936 -10.27871 -10.27684
 Alpha  occ. eigenvalues --  -10.27613  -3.22166  -1.95704  -1.95301  -1.95138
 Alpha  occ. eigenvalues --   -1.18079  -1.17057  -1.11397  -1.10532  -1.08933
 Alpha  occ. eigenvalues --   -1.08813  -1.07036  -1.06214  -1.05829  -1.05041
 Alpha  occ. eigenvalues --   -0.95255  -0.92242  -0.91391  -0.91209  -0.90540
 Alpha  occ. eigenvalues --   -0.90355  -0.90169  -0.90121  -0.89275  -0.88914
 Alpha  occ. eigenvalues --   -0.88003  -0.87395  -0.86472  -0.86319  -0.85587
 Alpha  occ. eigenvalues --   -0.84576  -0.84358  -0.83340  -0.83074  -0.82479
 Alpha  occ. eigenvalues --   -0.81844  -0.80464  -0.79969  -0.79564  -0.78792
 Alpha  occ. eigenvalues --   -0.77449  -0.77373  -0.77060  -0.76302  -0.75659
 Alpha  occ. eigenvalues --   -0.75433  -0.74927  -0.73937  -0.72076  -0.71468
 Alpha  occ. eigenvalues --   -0.71189  -0.70110  -0.69757  -0.68470  -0.68413
 Alpha  occ. eigenvalues --   -0.67764  -0.67441  -0.67046  -0.66576  -0.66046
 Alpha  occ. eigenvalues --   -0.65659  -0.65260  -0.65115  -0.64879  -0.62656
 Alpha  occ. eigenvalues --   -0.61986  -0.61079  -0.60870  -0.60324  -0.60108
 Alpha  occ. eigenvalues --   -0.59205  -0.58579  -0.58356  -0.57890  -0.57452
 Alpha  occ. eigenvalues --   -0.57372  -0.56744  -0.56218  -0.55930  -0.55837
 Alpha  occ. eigenvalues --   -0.55554  -0.55109  -0.54994  -0.54772  -0.54593
 Alpha  occ. eigenvalues --   -0.54385  -0.54354  -0.54252  -0.54022  -0.53620
 Alpha  occ. eigenvalues --   -0.53298  -0.53297  -0.53211  -0.53014  -0.52704
 Alpha  occ. eigenvalues --   -0.52122  -0.51979  -0.51890  -0.51748  -0.51638
 Alpha  occ. eigenvalues --   -0.51376  -0.51061  -0.50979  -0.50862  -0.50664
 Alpha  occ. eigenvalues --   -0.50341  -0.50209  -0.50032  -0.49822  -0.49742
 Alpha  occ. eigenvalues --   -0.49591  -0.49305  -0.49081  -0.48990  -0.48680
 Alpha  occ. eigenvalues --   -0.48582  -0.48473  -0.47940  -0.47906  -0.47755
 Alpha  occ. eigenvalues --   -0.47691  -0.47334  -0.47197  -0.47097  -0.46821
 Alpha  occ. eigenvalues --   -0.46596  -0.46523  -0.46451  -0.46318  -0.46210
 Alpha  occ. eigenvalues --   -0.45966  -0.45650  -0.45507  -0.45452  -0.45050
 Alpha  occ. eigenvalues --   -0.44782  -0.44556  -0.44471  -0.44372  -0.44335
 Alpha  occ. eigenvalues --   -0.43917  -0.43889  -0.43790  -0.43658  -0.43145
 Alpha  occ. eigenvalues --   -0.43005  -0.42860  -0.42325  -0.42093  -0.41817
 Alpha  occ. eigenvalues --   -0.41434  -0.41273  -0.40971  -0.40951  -0.40763
 Alpha  occ. eigenvalues --   -0.40041  -0.40006  -0.39776  -0.39471  -0.39318
 Alpha  occ. eigenvalues --   -0.38858  -0.38791  -0.38530  -0.38329  -0.38004
 Alpha  occ. eigenvalues --   -0.37889  -0.37446  -0.36663  -0.36654  -0.36145
 Alpha  occ. eigenvalues --   -0.35769  -0.35656  -0.35053  -0.34098  -0.33336
 Alpha  occ. eigenvalues --   -0.32965  -0.32775  -0.32172  -0.29753  -0.26713
 Alpha  occ. eigenvalues --   -0.23719
 Alpha virt. eigenvalues --   -0.08013   0.00088   0.01671   0.03574   0.04170
 Alpha virt. eigenvalues --    0.06493   0.07077   0.07447   0.08363   0.09503
 Alpha virt. eigenvalues --    0.10367   0.11006   0.11494   0.11552   0.12005

 Mulliken charges:
               1
     1  Mg   0.965942
     2  C   -0.042110
     3  C   -0.046901
     4  C   -0.064626
     5  C   -0.078952
     6  N   -0.310691
     7  C   -0.073332
     8  C   -0.035473
     9  C   -0.080587
    10  C   -0.024987
    11  C   -0.010202
    12  C    0.047800
    13  C   -0.036708
    14  C    0.228183
    15  O   -0.284380
    16  O   -0.366065
    17  N   -0.435284
    18  C    0.215175
    19  C   -0.187824
    20  C   -0.056192
    21  C    0.169343
    22  C    0.072498
    23  C    0.057962
    24  O   -0.263577
    25  C   -0.017004
    26  N   -0.369586
    27  C    0.046657
    28  C   -0.092489
    29  C   -0.089636
    30  C    0.099395
    31  C    0.023460
    32  C   -0.005212
    33  C   -0.043380
    34  N   -0.480578
    35  C    0.077691
    36  C   -0.196614
    37  C   -0.036275
    38  C    0.150934
    39  C    0.103098
    40  C    0.146652
    41  O   -0.211806
    42  C   -0.013511
    43  C    0.234524
    44  O   -0.254312
    45  O   -0.381897
    46  C    0.141866
    47  C    0.271338
    48  C   -0.124580
    49  C   -0.291465
    50  C    0.001229
    51  C    0.056976
    52  C   -0.030279
    53  C    0.023959
    54  C   -0.157958
    55  C    0.006489
    56  C   -0.009743
    57  C   -0.026219
    58  C    0.025702
    59  C   -0.182503
    60  C    0.019685
    61  C   -0.006643
    62  C   -0.036340
    63  C    0.020303
    64  C   -0.209008
    65  C   -0.016336
    66  C   -0.000776
    67  H    0.009005
    68  H   -0.040446
    69  H   -0.018005
    70  H    0.037460
    71  H    0.054548
    72  H    0.038107
    73  H    0.051738
    74  H    0.037616
    75  H    0.043398
    76  H    0.071113
    77  H    0.066279
    78  H    0.071586
    79  H    0.061294
    80  H    0.068800
    81  H    0.025072
    82  H    0.052016
    83  H    0.070543
    84  H    0.057643
    85  H    0.035017
    86  H    0.032399
    87  H    0.036053
    88  H    0.052101
    89  H    0.031833
    90  H    0.042108
    91  H    0.026937
    92  H    0.049608
    93  H    0.041493
    94  H    0.044141
    95  H    0.063260
    96  H    0.064967
    97  H   -0.001197
    98  H    0.072724
    99  H    0.069981
   100  H    0.066120
   101  H    0.050648
   102  H    0.058558
   103  H    0.031430
   104  H    0.022054
   105  H    0.049189
   106  H    0.054551
   107  H    0.053301
   108  H    0.046968
   109  H   -0.000282
   110  H    0.036984
   111  H    0.029937
   112  H    0.000313
   113  H    0.016728
   114  H    0.025341
   115  H    0.030866
   116  H    0.024203
   117  H    0.024145
   118  H    0.001747
   119  H    0.004168
   120  H    0.013959
   121  H    0.023347
   122  H    0.010600
   123  H    0.014346
   124  H    0.015542
   125  H    0.031785
   126  H    0.024617
   127  H    0.018107
   128  H    0.002476
   129  H    0.023095
   130  H    0.014941
   131  H    0.014294
   132  H    0.011908
   133  H    0.022296
   134  H    0.032865
   135  H    0.031379
   136  H    0.023229
   137  H    0.028872
   138  H    0.016527
   139  H    0.024791
   140  H    0.030045
 Sum of Mulliken charges =  -0.00000

 Dipole moment (field-independent basis, Debye):
    X=             -0.3248    Y=              6.4429    Z=              0.4727  Tot=              6.4683
 Quadrupole moment (field-independent basis, Debye-Ang):
   XX=           -393.0289   YY=           -425.0356   ZZ=           -398.7459
   XY=            -46.1809   XZ=            -26.3448   YZ=            -39.1302

 Normal termination of Gaussian 16 at Thu Apr 28 18:07:06 2022.
