 Gaussian 16, Revision A.03,
 Gaussian 16:  ES64L-G16RevA.03 25-Dec-2016

 --------------------
 #p ZINDO=(nstates=5)
 --------------------

 ------------------------------
 step_1651_chromophore_26 ZINDO
 ------------------------------
 Symbolic Z-matrix:
 Charge =  0 Multiplicity = 1

                         Standard orientation:
 ---------------------------------------------------------------------
 Center     Atomic      Atomic             Coordinates (Angstroms)
 Number     Number       Type             X           Y           Z
 ---------------------------------------------------------------------
      1         12           0       -4.121121    1.150311    0.450408
      2          6           0       -4.913964   -2.214689   -0.303871
      3          6           0       -2.401992   -0.093735    3.246341
      4          6           0       -2.757732    4.269590    0.902007
      5          6           0       -5.342076    2.089917   -2.559625
      6          7           0       -3.479343   -1.006582    1.172360
      7          6           0       -4.022545   -2.179834    0.715961
      8          6           0       -3.487632   -3.282545    1.608511
      9          6           0       -2.805884   -2.601045    2.867706
     10          6           0       -2.912596   -1.133617    2.402002
     11          6           0       -3.461718   -2.872336    4.306866
     12          6           0       -2.563181   -4.365635    0.844419
     13          6           0       -1.600976   -3.695955   -0.170038
     14          6           0       -0.158339   -4.319090   -0.092100
     15          8           0        0.121711   -5.538469   -0.033487
     16          8           0        0.817977   -3.316477   -0.246505
     17          7           0       -2.761607    2.031782    1.921903
     18          6           0       -2.281691    1.326528    2.999850
     19          6           0       -1.619448    2.303747    3.806785
     20          6           0       -1.716703    3.612091    3.225445
     21          6           0       -2.437604    3.357641    1.970277
     22          6           0       -1.039426    2.004556    5.179211
     23          6           0       -1.186364    4.904613    3.772414
     24          8           0       -0.454135    4.889309    4.799831
     25          6           0       -1.525010    6.245176    3.101798
     26          7           0       -3.859247    2.884985   -0.723204
     27          6           0       -3.436587    4.039977   -0.257571
     28          6           0       -3.853000    5.251354   -1.179959
     29          6           0       -4.514389    4.484337   -2.422742
     30          6           0       -4.635001    3.048032   -1.867991
     31          6           0       -4.714473    6.383038   -0.600750
     32          6           0       -3.746398    4.450543   -3.815678
     33          6           0       -4.671254    4.643079   -5.018686
     34          7           0       -5.108553    0.280681   -1.016916
     35          6           0       -5.663932    0.767160   -2.158329
     36          6           0       -6.565012   -0.204091   -2.749960
     37          6           0       -6.300749   -1.386526   -2.063201
     38          6           0       -5.370874   -1.053510   -1.025406
     39          6           0       -7.502615   -0.063839   -3.849677
     40          6           0       -6.668713   -2.777667   -1.928901
     41          8           0       -7.439539   -3.533482   -2.527385
     42          6           0       -5.715877   -3.390638   -0.851215
     43          6           0       -6.407088   -4.093878    0.221423
     44          8           0       -6.360916   -5.308868    0.416385
     45          8           0       -7.235601   -3.260034    0.901202
     46          6           0       -7.946122   -3.856737    2.113718
     47          6           0        2.111276   -3.808199   -0.685631
     48          6           0        2.711538   -2.767080   -1.520111
     49          6           0        4.063635   -2.544003   -1.705338
     50          6           0        5.112515   -3.308953   -0.888179
     51          6           0        4.539894   -1.508586   -2.728632
     52          6           0        3.923852   -0.104969   -2.474824
     53          6           0        4.960652    0.980790   -2.678274
     54          6           0        5.428224    1.681787   -1.356280
     55          6           0        5.271694    3.136432   -1.605568
     56          6           0        6.932310    1.377547   -1.057426
     57          6           0        7.133577    0.490165    0.158761
     58          6           0        8.187208   -0.599086   -0.084881
     59          6           0        9.387386   -0.493286    0.889990
     60          6           0        9.207576   -1.330456    2.147013
     61          6           0       10.694353   -0.992932    0.206425
     62          6           0       11.965974   -0.391278    0.927681
     63          6           0       12.790998    0.500076   -0.025197
     64          6           0       14.197419   -0.099431   -0.359314
     65          6           0       15.348625    0.974261   -0.109958
     66          6           0       14.176694   -0.630551   -1.801875
     67          1           0       -2.018353   -0.628537    4.118090
     68          1           0       -2.507631    5.327253    1.014313
     69          1           0       -5.870848    2.282033   -3.495815
     70          1           0       -4.424932   -3.726922    1.940961
     71          1           0       -1.757264   -2.900242    2.874656
     72          1           0       -4.192889   -3.675580    4.396905
     73          1           0       -3.909810   -1.982102    4.746373
     74          1           0       -2.744255   -3.341012    4.981554
     75          1           0       -3.303437   -4.808240    0.178268
     76          1           0       -2.132085   -5.121699    1.501041
     77          1           0       -1.419563   -2.622362   -0.114356
     78          1           0       -1.855598   -3.837403   -1.220815
     79          1           0       -1.775685    2.007829    5.982060
     80          1           0       -0.246508    2.743189    5.300382
     81          1           0       -0.558155    1.026869    5.144674
     82          1           0       -2.573962    6.306534    2.813521
     83          1           0       -0.977019    6.433702    2.178980
     84          1           0       -1.276499    7.054780    3.787500
     85          1           0       -2.888661    5.684949   -1.447612
     86          1           0       -5.552840    4.805449   -2.496402
     87          1           0       -5.378971    6.008250    0.177508
     88          1           0       -5.240280    6.910670   -1.395958
     89          1           0       -4.119650    7.108043   -0.047026
     90          1           0       -3.222842    3.499041   -3.913550
     91          1           0       -2.929746    5.169001   -3.743402
     92          1           0       -4.231994    5.469810   -5.577896
     93          1           0       -5.710354    4.803630   -4.733698
     94          1           0       -4.628200    3.694223   -5.553853
     95          1           0       -8.534107   -0.208927   -3.527959
     96          1           0       -7.223035   -0.593979   -4.759980
     97          1           0       -7.435509    0.995102   -4.099291
     98          1           0       -5.061637   -4.093277   -1.365560
     99          1           0       -8.459591   -4.726062    1.703293
    100          1           0       -8.658774   -3.227717    2.647410
    101          1           0       -7.227421   -4.199147    2.858330
    102          1           0        2.193719   -4.712869   -1.287955
    103          1           0        2.707596   -4.128154    0.169002
    104          1           0        2.108686   -2.057700   -2.088061
    105          1           0        4.838856   -4.340366   -0.664082
    106          1           0        4.969421   -2.736770    0.027524
    107          1           0        6.161544   -3.190000   -1.162070
    108          1           0        4.504907   -1.913889   -3.740509
    109          1           0        5.609625   -1.482236   -2.522089
    110          1           0        3.588866   -0.143440   -1.438088
    111          1           0        3.099888    0.079029   -3.165203
    112          1           0        4.439678    1.672960   -3.339845
    113          1           0        5.756362    0.670572   -3.355328
    114          1           0        4.900497    1.465457   -0.426960
    115          1           0        5.606039    3.603472   -0.678563
    116          1           0        4.230334    3.320202   -1.869130
    117          1           0        5.827622    3.396809   -2.505791
    118          1           0        7.531452    2.259695   -0.830730
    119          1           0        7.484671    1.109080   -1.957918
    120          1           0        6.199253   -0.023968    0.384654
    121          1           0        7.372150    1.127773    1.010292
    122          1           0        8.531308   -0.367825   -1.092600
    123          1           0        7.674411   -1.556891    0.004281
    124          1           0        9.481509    0.563965    1.137084
    125          1           0        9.873142   -2.191247    2.212069
    126          1           0        8.179799   -1.595933    2.393427
    127          1           0        9.475805   -0.701938    2.996586
    128          1           0       10.774812   -0.612831   -0.811910
    129          1           0       10.739914   -2.077899    0.112321
    130          1           0       12.458854   -1.229236    1.419735
    131          1           0       11.735369    0.182862    1.824437
    132          1           0       12.966678    1.444154    0.489758
    133          1           0       12.250748    0.771276   -0.932405
    134          1           0       14.387385   -0.983382    0.250498
    135          1           0       15.992955    0.548799    0.659862
    136          1           0       15.008742    1.933678    0.281678
    137          1           0       15.941540    1.263873   -0.976906
    138          1           0       14.279329   -1.709732   -1.693220
    139          1           0       15.045936   -0.398969   -2.418304
    140          1           0       13.246791   -0.440721   -2.336918
 ---------------------------------------------------------------------

 SCF Done:  E(RZINDO/S) =  -474.091998951     A.U. after   20 cycles

 Excitation energies and oscillator strengths:

 Excited State   1:      Singlet-A      1.2279 eV 1009.74 nm  f=0.5992  <S**2>=0.000
     175 ->178         0.17302
     176 ->177         0.66865
 This state for optimization and/or second-order correction.
 Total Energy, E(CIS/TDA) =  -474.046875202
 Copying the excited state density for this state as the 1-particle RhoCI density.

 Excited State   2:      Singlet-A      1.9181 eV  646.38 nm  f=0.0781  <S**2>=0.000
     175 ->177         0.56941
     176 ->178        -0.38522

 Excited State   3:      Singlet-A      2.8822 eV  430.17 nm  f=0.0097  <S**2>=0.000
     168 ->177         0.32243
     168 ->178        -0.16519
     168 ->179        -0.43148
     168 ->180        -0.14579
     168 ->181         0.23491
     168 ->185         0.20660

 Excited State   4:      Singlet-A      2.9472 eV  420.68 nm  f=0.5212  <S**2>=0.000
     170 ->177         0.12020
     170 ->179         0.12490
     170 ->180        -0.10642
     170 ->181         0.11788
     171 ->177         0.16115
     175 ->177         0.26621
     176 ->178         0.40712
     176 ->179        -0.30103
     176 ->181        -0.17037

 Excited State   5:      Singlet-A      2.9868 eV  415.11 nm  f=0.1391  <S**2>=0.000
     169 ->177         0.11213
     169 ->179         0.13156
     169 ->180        -0.10372
     169 ->181         0.11472
     170 ->177         0.25160
     170 ->178        -0.10202
     170 ->179         0.25864
     170 ->180        -0.22417
     170 ->181         0.23558
     170 ->185        -0.14392
     170 ->187        -0.13909
     170 ->199        -0.11501
     171 ->177        -0.15435
     175 ->177        -0.12872
     176 ->178        -0.21547

 The electronic state is 1-A.
 Alpha  occ. eigenvalues --   -1.85540  -1.81220  -1.79597  -1.72241  -1.71696
 Alpha  occ. eigenvalues --   -1.70118  -1.66443  -1.61223  -1.57567  -1.56866
 Alpha  occ. eigenvalues --   -1.54546  -1.51819  -1.47774  -1.47011  -1.46707
 Alpha  occ. eigenvalues --   -1.44434  -1.41263  -1.40735  -1.40245  -1.38587
 Alpha  occ. eigenvalues --   -1.36473  -1.35222  -1.33830  -1.30414  -1.29458
 Alpha  occ. eigenvalues --   -1.27847  -1.27208  -1.23708  -1.20651  -1.18885
 Alpha  occ. eigenvalues --   -1.16487  -1.16344  -1.14720  -1.14099  -1.12635
 Alpha  occ. eigenvalues --   -1.11983  -1.10030  -1.09895  -1.06042  -1.04933
 Alpha  occ. eigenvalues --   -1.02938  -1.02431  -0.99155  -0.98474  -0.96846
 Alpha  occ. eigenvalues --   -0.96281  -0.95048  -0.93931  -0.93075  -0.91954
 Alpha  occ. eigenvalues --   -0.91686  -0.90766  -0.90025  -0.89287  -0.88258
 Alpha  occ. eigenvalues --   -0.86414  -0.85289  -0.83662  -0.83414  -0.80491
 Alpha  occ. eigenvalues --   -0.79541  -0.78383  -0.77934  -0.77575  -0.76812
 Alpha  occ. eigenvalues --   -0.76617  -0.75019  -0.73894  -0.73726  -0.73223
 Alpha  occ. eigenvalues --   -0.73121  -0.71901  -0.71528  -0.71243  -0.70832
 Alpha  occ. eigenvalues --   -0.70249  -0.69302  -0.68940  -0.68696  -0.68194
 Alpha  occ. eigenvalues --   -0.67672  -0.67250  -0.66340  -0.65535  -0.65388
 Alpha  occ. eigenvalues --   -0.65038  -0.64639  -0.64452  -0.64190  -0.63853
 Alpha  occ. eigenvalues --   -0.63215  -0.62987  -0.62616  -0.62332  -0.62258
 Alpha  occ. eigenvalues --   -0.61922  -0.61506  -0.61206  -0.60736  -0.60515
 Alpha  occ. eigenvalues --   -0.59938  -0.59636  -0.59187  -0.58975  -0.58385
 Alpha  occ. eigenvalues --   -0.57665  -0.57527  -0.57283  -0.57091  -0.56600
 Alpha  occ. eigenvalues --   -0.56498  -0.56190  -0.55881  -0.55849  -0.55667
 Alpha  occ. eigenvalues --   -0.55081  -0.54394  -0.54117  -0.53787  -0.53582
 Alpha  occ. eigenvalues --   -0.52920  -0.52862  -0.52459  -0.52278  -0.52059
 Alpha  occ. eigenvalues --   -0.51840  -0.51538  -0.51120  -0.51072  -0.50444
 Alpha  occ. eigenvalues --   -0.50070  -0.49900  -0.49699  -0.49579  -0.49427
 Alpha  occ. eigenvalues --   -0.48903  -0.48641  -0.48384  -0.48205  -0.48015
 Alpha  occ. eigenvalues --   -0.47539  -0.47493  -0.47098  -0.47002  -0.46519
 Alpha  occ. eigenvalues --   -0.46307  -0.46135  -0.45718  -0.45662  -0.45389
 Alpha  occ. eigenvalues --   -0.45256  -0.44777  -0.44445  -0.44154  -0.43711
 Alpha  occ. eigenvalues --   -0.43355  -0.42814  -0.42646  -0.42243  -0.42014
 Alpha  occ. eigenvalues --   -0.41730  -0.41614  -0.40979  -0.39397  -0.39142
 Alpha  occ. eigenvalues --   -0.38245  -0.37722  -0.36277  -0.35283  -0.34936
 Alpha  occ. eigenvalues --   -0.33789  -0.33513  -0.32766  -0.30222  -0.27522
 Alpha  occ. eigenvalues --   -0.22506
 Alpha virt. eigenvalues --   -0.09522  -0.02395  -0.01158   0.00491   0.00795
 Alpha virt. eigenvalues --    0.01268   0.02144   0.02515   0.04202   0.04921
 Alpha virt. eigenvalues --    0.05945   0.06368   0.06976   0.07198   0.07580

 Mulliken charges:
               1
     1  Mg   0.433437
     2  C   -0.035233
     3  C   -0.081144
     4  C   -0.102947
     5  C   -0.069523
     6  N   -0.294882
     7  C    0.113784
     8  C   -0.001997
     9  C    0.000176
    10  C    0.154512
    11  C   -0.057368
    12  C   -0.018528
    13  C    0.011448
    14  C    0.446840
    15  O   -0.519885
    16  O   -0.270163
    17  N   -0.334101
    18  C    0.128422
    19  C    0.060737
    20  C   -0.051360
    21  C    0.148596
    22  C   -0.048289
    23  C    0.329873
    24  O   -0.530950
    25  C   -0.027406
    26  N   -0.273184
    27  C    0.170730
    28  C   -0.004983
    29  C   -0.012085
    30  C    0.101589
    31  C   -0.044896
    32  C   -0.025039
    33  C   -0.055240
    34  N   -0.305401
    35  C    0.079338
    36  C    0.021401
    37  C   -0.064384
    38  C    0.090501
    39  C   -0.035121
    40  C    0.332941
    41  O   -0.523263
    42  C    0.058502
    43  C    0.497189
    44  O   -0.534041
    45  O   -0.273132
    46  C    0.070575
    47  C    0.116006
    48  C   -0.104154
    49  C   -0.024878
    50  C   -0.051556
    51  C   -0.025878
    52  C   -0.028005
    53  C   -0.033824
    54  C   -0.009480
    55  C   -0.054051
    56  C   -0.042401
    57  C   -0.036805
    58  C   -0.043079
    59  C   -0.006024
    60  C   -0.055048
    61  C   -0.040328
    62  C   -0.042947
    63  C   -0.030514
    64  C   -0.010267
    65  C   -0.063018
    66  C   -0.061323
    67  H    0.038848
    68  H    0.025048
    69  H    0.025542
    70  H    0.031422
    71  H    0.039620
    72  H    0.025186
    73  H    0.029267
    74  H    0.020501
    75  H    0.026950
    76  H    0.053879
    77  H    0.041596
    78  H    0.050725
    79  H    0.043119
    80  H    0.048480
    81  H    0.017792
    82  H    0.031908
    83  H    0.041400
    84  H    0.036917
    85  H    0.026133
    86  H    0.030857
    87  H    0.023022
    88  H    0.027198
    89  H    0.015154
    90  H    0.024163
    91  H    0.017512
    92  H    0.025568
    93  H    0.027052
    94  H    0.022599
    95  H    0.041272
    96  H    0.041504
    97  H    0.005428
    98  H    0.057661
    99  H    0.049847
   100  H    0.042197
   101  H    0.037955
   102  H    0.057269
   103  H    0.043397
   104  H    0.033322
   105  H    0.031123
   106  H    0.027115
   107  H    0.028710
   108  H    0.034058
   109  H    0.010613
   110  H    0.028295
   111  H    0.021669
   112  H    0.006033
   113  H    0.024347
   114  H    0.031692
   115  H    0.018848
   116  H    0.011152
   117  H    0.019832
   118  H    0.006767
   119  H    0.021110
   120  H    0.011951
   121  H    0.021404
   122  H    0.021195
   123  H    0.023874
   124  H    0.026738
   125  H    0.024850
   126  H    0.017846
   127  H    0.006633
   128  H    0.010286
   129  H    0.023715
   130  H    0.018065
   131  H    0.015181
   132  H    0.010517
   133  H    0.027739
   134  H    0.027021
   135  H    0.014962
   136  H    0.017893
   137  H    0.022105
   138  H    0.006916
   139  H    0.019590
   140  H    0.024373
 Sum of Mulliken charges =  -0.00000

 Dipole moment (field-independent basis, Debye):
    X=              0.7569    Y=              9.1484    Z=              1.2415  Tot=              9.2632
 N-N= 4.462055655975D+03 E-N= 0.000000000000D+00  KE=-9.597396133328D+03
 Leave Link  601 at Thu Apr 28 18:21:30 2022, MaxMem=  6710886400 cpu:               0.8 elap:               0.1
 (Enter /sw/apps/gaussian-16.0/g16/l9999.exe)
 1\1\GINC-BP1-COMPUTE158\SP\RZINDO CIS\STO-3G\C55H74Mg1N4O6\OF15641\28-
 Apr-2022\0\\#p ZINDO=(nstates=5)\\step_1651_chromophore_26 ZINDO\\0,1\
 Mg,0,-9.686,18.288,42.514\C,0,-6.189,17.763,42.641\C,0,-8.952,21.654,4
 1.842\C,0,-12.993,18.77,41.724\C,0,-10.17,14.943,42.617\N,0,-7.714,19.
 476,41.98\C,0,-6.44,19.019,42.199\C,0,-5.508,20.184,41.929\C,0,-6.389,
 21.499,41.832\C,0,-7.779,20.832,41.9\C,0,-6.16,22.632,42.945\C,0,-4.5,
 19.954,40.687\C,0,-5.203,19.269,39.487\C,0,-4.797,19.94,38.123\O,0,-3.

 Normal termination of Gaussian 16 at Thu Apr 28 18:21:30 2022.
