 Gaussian 16, Revision A.03,
 Gaussian 16:  ES64L-G16RevA.03 25-Dec-2016

 ------------------------------
 #p blyp/Def2SVP td=(nstates=5)
 ------------------------------

 ---------------------------------------------------
 step_1401_chromophore_15 TDDFT with blyp functional
 ---------------------------------------------------
 Symbolic Z-matrix:
 Charge =  0 Multiplicity = 1

                         Standard orientation:
 ---------------------------------------------------------------------
 Center     Atomic      Atomic             Coordinates (Angstroms)
 Number     Number       Type             X           Y           Z
 ---------------------------------------------------------------------
      1         12           0       -4.589476    0.860504   -0.104016
      2          6           0       -4.185913   -2.512191    0.758247
      3          6           0       -1.185188    1.368187    0.039289
      4          6           0       -5.194787    4.268911   -0.081278
      5          6           0       -8.063919    0.444471    0.421716
      6          7           0       -3.005790   -0.398216    0.357566
      7          6           0       -3.071376   -1.782718    0.421429
      8          6           0       -1.743519   -2.313613   -0.108903
      9          6           0       -0.793438   -1.125919    0.191890
     10          6           0       -1.691328    0.073483    0.184482
     11          6           0        0.052597   -1.386825    1.413157
     12          6           0       -1.857970   -2.681197   -1.624460
     13          6           0       -0.581588   -3.299291   -2.222635
     14          6           0        0.509580   -3.846944   -1.315335
     15          8           0        0.640212   -5.017502   -1.011655
     16          8           0        1.437777   -2.898535   -1.106052
     17          7           0       -3.360775    2.535326   -0.162806
     18          6           0       -2.012156    2.488305   -0.171489
     19          6           0       -1.565759    3.884331   -0.386929
     20          6           0       -2.698336    4.742078   -0.527313
     21          6           0       -3.870414    3.857459   -0.243493
     22          6           0       -0.005285    4.143358   -0.477514
     23          6           0       -2.836301    6.278383   -0.857867
     24          8           0       -3.948057    6.806104   -1.033891
     25          6           0       -1.593446    7.090225   -0.980332
     26          7           0       -6.333469    2.231734    0.208089
     27          6           0       -6.268115    3.546493    0.152089
     28          6           0       -7.620052    4.214913    0.249237
     29          6           0       -8.515088    3.015001    0.711708
     30          6           0       -7.695549    1.797508    0.412386
     31          6           0       -7.817519    5.441392    1.176697
     32          6           0       -9.782477    2.809393   -0.236004
     33          6           0      -11.010670    2.282256    0.522423
     34          7           0       -5.887881   -0.660287    0.289175
     35          6           0       -7.236948   -0.738698    0.370711
     36          6           0       -7.693919   -2.032548    0.698273
     37          6           0       -6.482798   -2.754364    0.855134
     38          6           0       -5.455917   -1.864381    0.653009
     39          6           0       -9.076353   -2.481690    0.632452
     40          6           0       -6.004282   -4.094039    1.128026
     41          8           0       -6.568765   -5.173812    1.299095
     42          6           0       -4.470855   -3.946962    1.193600
     43          6           0       -3.902629   -5.079828    0.311921
     44          8           0       -4.322568   -5.403196   -0.756254
     45          8           0       -2.833086   -5.701169    0.957715
     46          6           0       -2.154076   -6.692199    0.100171
     47          6           0        2.710725   -3.321137   -0.405458
     48          6           0        3.835213   -2.961370   -1.308738
     49          6           0        5.143851   -3.261257   -1.199271
     50          6           0        5.986313   -3.903168   -0.031082
     51          6           0        6.154860   -2.444183   -2.118486
     52          6           0        6.286489   -0.966594   -1.740339
     53          6           0        6.639521    0.005215   -2.960201
     54          6           0        7.998203    0.776944   -2.922008
     55          6           0        8.207356    1.534847   -4.217655
     56          6           0        9.243758   -0.042799   -2.587582
     57          6           0        9.765445    0.114287   -1.151291
     58          6           0       11.200382    0.710797   -0.973666
     59          6           0       11.151372    2.154949   -0.363301
     60          6           0       11.701930    3.270031   -1.341119
     61          6           0       11.764118    2.195827    1.035018
     62          6           0       10.820638    2.141786    2.207827
     63          6           0       10.795875    0.780742    3.020053
     64          6           0       11.074142    1.039137    4.451778
     65          6           0       12.412083    0.418846    4.918075
     66          6           0        9.889492    0.556623    5.276498
     67          1           0       -0.097330    1.468194    0.051924
     68          1           0       -5.442482    5.308291   -0.309660
     69          1           0       -9.145476    0.344349    0.535546
     70          1           0       -1.529273   -3.225553    0.447757
     71          1           0       -0.118483   -1.009635   -0.655387
     72          1           0        1.044266   -0.955396    1.276504
     73          1           0        0.063946   -2.467987    1.550497
     74          1           0       -0.310531   -0.932481    2.334937
     75          1           0       -1.988982   -1.794852   -2.246074
     76          1           0       -2.738777   -3.289757   -1.831295
     77          1           0       -0.144821   -2.656800   -2.986476
     78          1           0       -0.997616   -4.213347   -2.648771
     79          1           0        0.482776    3.665121    0.371954
     80          1           0        0.305722    5.180521   -0.607202
     81          1           0        0.405808    3.604365   -1.330571
     82          1           0       -0.960443    6.823447   -1.826430
     83          1           0       -0.955107    7.092736   -0.096171
     84          1           0       -1.906115    8.124291   -1.124993
     85          1           0       -7.890026    4.516574   -0.763182
     86          1           0       -8.766566    2.978028    1.771082
     87          1           0       -7.629224    6.369320    0.635998
     88          1           0       -7.033172    5.486477    1.933708
     89          1           0       -8.811826    5.587374    1.599606
     90          1           0       -9.557659    2.188676   -1.103790
     91          1           0       -9.999188    3.773136   -0.696474
     92          1           0      -11.336285    1.377952    0.006897
     93          1           0      -11.832943    2.967904    0.728246
     94          1           0      -10.796170    1.961598    1.542506
     95          1           0       -9.190113   -3.488095    0.229387
     96          1           0       -9.660308   -1.868334   -0.054315
     97          1           0       -9.505680   -2.321405    1.621256
     98          1           0       -4.073184   -4.086133    2.199441
     99          1           0       -2.596603   -7.675643    0.257835
    100          1           0       -1.122434   -6.893691    0.391892
    101          1           0       -2.249787   -6.465914   -0.961532
    102          1           0        2.770588   -4.409088   -0.361618
    103          1           0        2.896327   -2.894134    0.579347
    104          1           0        3.595487   -2.282634   -2.126905
    105          1           0        6.903325   -3.320935    0.049637
    106          1           0        6.086232   -4.963899   -0.261985
    107          1           0        5.307378   -3.934223    0.821310
    108          1           0        5.707402   -2.602715   -3.099946
    109          1           0        7.061536   -3.047292   -2.066627
    110          1           0        7.140536   -0.800922   -1.084015
    111          1           0        5.460406   -0.614930   -1.122223
    112          1           0        5.834039    0.738329   -2.945485
    113          1           0        6.534997   -0.614651   -3.850142
    114          1           0        7.817937    1.531857   -2.155501
    115          1           0        8.780050    1.003432   -4.977607
    116          1           0        8.919997    2.312896   -3.940404
    117          1           0        7.275261    2.026958   -4.494515
    118          1           0       10.097170    0.103438   -3.249637
    119          1           0        8.992357   -1.102351   -2.634506
    120          1           0        9.754355   -0.840416   -0.625375
    121          1           0        9.143842    0.829463   -0.612529
    122          1           0       11.764918    0.733584   -1.906334
    123          1           0       11.785581    0.011226   -0.377405
    124          1           0       10.170238    2.548865   -0.095568
    125          1           0       12.184777    2.863360   -2.228991
    126          1           0       12.366068    4.028977   -0.927605
    127          1           0       10.857855    3.889896   -1.644760
    128          1           0       12.313060    3.135585    1.097238
    129          1           0       12.543347    1.441330    1.142084
    130          1           0        9.785900    2.474561    2.119512
    131          1           0       11.241110    2.934290    2.826206
    132          1           0       11.528558    0.081124    2.618364
    133          1           0        9.831654    0.317834    2.809759
    134          1           0       11.155491    2.104565    4.666490
    135          1           0       13.081975    0.323925    4.063891
    136          1           0       12.293715   -0.525014    5.451401
    137          1           0       12.948459    1.082706    5.596201
    138          1           0        9.356965   -0.299526    4.861881
    139          1           0        9.278695    1.433130    5.492897
    140          1           0       10.225654    0.173432    6.239864
 ---------------------------------------------------------------------

 SCF Done:  E(RB-LYP) =  -3007.33650189     A.U. after   21 cycles

 Excitation energies and oscillator strengths:

 Excited State   1:      Singlet-A      1.7486 eV  709.03 nm  f=0.3037  <S**2>=0.000
     245 -> 248       -0.11034
     245 -> 249       -0.13520
     246 -> 247        0.69848
     246 <- 247       -0.16143
 This state for optimization and/or second-order correction.
 Total Energy, E(TD-HF/TD-DFT) =  -3007.27224076
 Copying the excited state density for this state as the 1-particle RhoCI density.

 Excited State   2:      Singlet-A      1.8203 eV  681.12 nm  f=0.0048  <S**2>=0.000
     244 -> 247        0.65347
     245 -> 247       -0.26492

 Excited State   3:      Singlet-A      2.0508 eV  604.56 nm  f=0.0771  <S**2>=0.000
     244 -> 247        0.25964
     245 -> 247        0.59667
     246 -> 248        0.17122
     246 -> 249        0.17887

 Excited State   4:      Singlet-A      2.2507 eV  550.86 nm  f=0.0018  <S**2>=0.000
     243 -> 247        0.70456

 Excited State   5:      Singlet-A      2.4160 eV  513.17 nm  f=0.0000  <S**2>=0.000
     241 -> 247        0.70605

 The electronic state is 1-A.
 Alpha  occ. eigenvalues --  -46.25841 -18.83411 -18.81664 -18.77257 -18.76883
 Alpha  occ. eigenvalues --  -18.76762 -18.74960 -14.02897 -14.02171 -14.01165
 Alpha  occ. eigenvalues --  -14.00481 -10.04613 -10.03654 -10.01230  -9.98833
 Alpha  occ. eigenvalues --   -9.98695  -9.96727  -9.96228  -9.96212  -9.96155
 Alpha  occ. eigenvalues --   -9.95996  -9.95970  -9.94869  -9.94738  -9.94592
 Alpha  occ. eigenvalues --   -9.93892  -9.93872  -9.93577  -9.93560  -9.93552
 Alpha  occ. eigenvalues --   -9.93515  -9.93514  -9.93508  -9.93481  -9.93477
 Alpha  occ. eigenvalues --   -9.93393  -9.93256  -9.93233  -9.92908  -9.92835
 Alpha  occ. eigenvalues --   -9.92804  -9.92546  -9.92326  -9.92324  -9.92207
 Alpha  occ. eigenvalues --   -9.92120  -9.92103  -9.92091  -9.92089  -9.91928
 Alpha  occ. eigenvalues --   -9.91905  -9.91721  -9.91657  -9.91429  -9.91401
 Alpha  occ. eigenvalues --   -9.91255  -9.91219  -9.91019  -9.91015  -9.91010
 Alpha  occ. eigenvalues --   -9.90917  -9.90827  -9.90706  -9.90592  -9.90590
 Alpha  occ. eigenvalues --   -9.90035  -2.90664  -1.71072  -1.70526  -1.70403
 Alpha  occ. eigenvalues --   -0.99009  -0.97463  -0.91455  -0.90604  -0.90396
 Alpha  occ. eigenvalues --   -0.89828  -0.87258  -0.85325  -0.84982  -0.83973
 Alpha  occ. eigenvalues --   -0.75472  -0.73692  -0.73349  -0.72910  -0.72689
 Alpha  occ. eigenvalues --   -0.72374  -0.71486  -0.71234  -0.70926  -0.70372
 Alpha  occ. eigenvalues --   -0.69445  -0.69036  -0.68298  -0.67331  -0.66934
 Alpha  occ. eigenvalues --   -0.66801  -0.66071  -0.65373  -0.65011  -0.64530
 Alpha  occ. eigenvalues --   -0.64480  -0.62626  -0.62368  -0.61543  -0.60597
 Alpha  occ. eigenvalues --   -0.60441  -0.60384  -0.59860  -0.59721  -0.59487
 Alpha  occ. eigenvalues --   -0.58660  -0.57797  -0.56818  -0.55713  -0.54600
 Alpha  occ. eigenvalues --   -0.54014  -0.53864  -0.53019  -0.52573  -0.51612
 Alpha  occ. eigenvalues --   -0.51401  -0.51133  -0.50426  -0.50413  -0.50190
 Alpha  occ. eigenvalues --   -0.50026  -0.49688  -0.49058  -0.48072  -0.46501
 Alpha  occ. eigenvalues --   -0.46124  -0.45936  -0.45692  -0.44998  -0.44351
 Alpha  occ. eigenvalues --   -0.44015  -0.43657  -0.42946  -0.42632  -0.42220
 Alpha  occ. eigenvalues --   -0.42010  -0.41698  -0.41613  -0.41172  -0.41020
 Alpha  occ. eigenvalues --   -0.40745  -0.40582  -0.40467  -0.40225  -0.39977
 Alpha  occ. eigenvalues --   -0.39797  -0.39683  -0.39302  -0.39236  -0.39101
 Alpha  occ. eigenvalues --   -0.38950  -0.38917  -0.38753  -0.38717  -0.38271
 Alpha  occ. eigenvalues --   -0.38047  -0.37947  -0.37792  -0.37732  -0.37295
 Alpha  occ. eigenvalues --   -0.37140  -0.36995  -0.36891  -0.36726  -0.36536
 Alpha  occ. eigenvalues --   -0.36503  -0.36159  -0.35993  -0.35931  -0.35704
 Alpha  occ. eigenvalues --   -0.35565  -0.35532  -0.35072  -0.35014  -0.34914
 Alpha  occ. eigenvalues --   -0.34798  -0.34791  -0.34449  -0.34443  -0.34358
 Alpha  occ. eigenvalues --   -0.33865  -0.33611  -0.33458  -0.33325  -0.33204
 Alpha  occ. eigenvalues --   -0.33103  -0.32887  -0.32649  -0.32595  -0.32368
 Alpha  occ. eigenvalues --   -0.32280  -0.31954  -0.31848  -0.31842  -0.31764
 Alpha  occ. eigenvalues --   -0.31554  -0.31314  -0.31029  -0.30919  -0.30786
 Alpha  occ. eigenvalues --   -0.30503  -0.30368  -0.30290  -0.30145  -0.29700
 Alpha  occ. eigenvalues --   -0.29491  -0.29337  -0.29068  -0.28943  -0.28890
 Alpha  occ. eigenvalues --   -0.28569  -0.28381  -0.28190  -0.28146  -0.27789
 Alpha  occ. eigenvalues --   -0.27596  -0.27127  -0.27080  -0.26748  -0.26403
 Alpha  occ. eigenvalues --   -0.26183  -0.26093  -0.25742  -0.25700  -0.24842
 Alpha  occ. eigenvalues --   -0.24797  -0.24598  -0.24073  -0.23627  -0.23546
 Alpha  occ. eigenvalues --   -0.22696  -0.22560  -0.22446  -0.21556  -0.20576
 Alpha  occ. eigenvalues --   -0.20447  -0.20163  -0.19739  -0.18243  -0.17347
 Alpha  occ. eigenvalues --   -0.15582
 Alpha virt. eigenvalues --   -0.11569  -0.06667  -0.06229  -0.04740  -0.03379
 Alpha virt. eigenvalues --   -0.02456  -0.02320  -0.02090  -0.01463   0.00316
 Alpha virt. eigenvalues --    0.01356   0.01454   0.02010   0.02250   0.02563

 Mulliken charges:
               1
     1  Mg   0.695661
     2  C    0.002562
     3  C   -0.076231
     4  C   -0.047268
     5  C   -0.052288
     6  N   -0.297487
     7  C   -0.065082
     8  C   -0.034770
     9  C    0.001050
    10  C    0.098763
    11  C    0.149668
    12  C    0.110913
    13  C    0.145480
    14  C    0.057187
    15  O   -0.180410
    16  O   -0.274213
    17  N   -0.311714
    18  C    0.154081
    19  C   -0.141683
    20  C    0.009342
    21  C    0.110980
    22  C    0.148660
    23  C   -0.025589
    24  O   -0.168080
    25  C    0.114177
    26  N   -0.204191
    27  C    0.008681
    28  C    0.054607
    29  C    0.028033
    30  C   -0.010919
    31  C    0.119907
    32  C    0.071511
    33  C    0.071034
    34  N   -0.228142
    35  C    0.110668
    36  C   -0.196966
    37  C    0.068473
    38  C    0.084978
    39  C    0.193954
    40  C   -0.046761
    41  O   -0.133547
    42  C    0.110666
    43  C    0.088947
    44  O   -0.143810
    45  O   -0.285306
    46  C    0.215354
    47  C    0.320163
    48  C   -0.110784
    49  C   -0.204681
    50  C    0.147561
    51  C    0.088452
    52  C    0.095217
    53  C    0.085296
    54  C   -0.050861
    55  C    0.114101
    56  C    0.144732
    57  C    0.023645
    58  C    0.133892
    59  C   -0.063184
    60  C    0.088114
    61  C    0.117877
    62  C    0.039975
    63  C    0.131445
    64  C   -0.093164
    65  C    0.106776
    66  C    0.114448
    67  H   -0.057915
    68  H   -0.042586
    69  H   -0.083318
    70  H   -0.020842
    71  H   -0.035091
    72  H   -0.010608
    73  H   -0.002779
    74  H   -0.013761
    75  H   -0.034640
    76  H    0.004383
    77  H    0.003987
    78  H   -0.003884
    79  H    0.003336
    80  H   -0.018435
    81  H   -0.005444
    82  H    0.020029
    83  H    0.018688
    84  H   -0.010094
    85  H   -0.017464
    86  H   -0.003592
    87  H   -0.012712
    88  H   -0.008819
    89  H   -0.002235
    90  H   -0.013024
    91  H   -0.027463
    92  H   -0.001028
    93  H   -0.006709
    94  H   -0.014020
    95  H    0.013638
    96  H   -0.017261
    97  H   -0.001119
    98  H   -0.000577
    99  H   -0.001644
   100  H    0.018083
   101  H    0.021214
   102  H    0.018412
   103  H    0.025911
   104  H   -0.026454
   105  H    0.021212
   106  H    0.005471
   107  H   -0.023528
   108  H   -0.015723
   109  H   -0.024459
   110  H   -0.046530
   111  H   -0.030561
   112  H   -0.036088
   113  H   -0.032349
   114  H   -0.040241
   115  H   -0.010548
   116  H   -0.028100
   117  H   -0.019346
   118  H   -0.035783
   119  H   -0.040271
   120  H   -0.031223
   121  H   -0.016678
   122  H   -0.040489
   123  H   -0.038245
   124  H   -0.037253
   125  H   -0.014205
   126  H   -0.023373
   127  H   -0.020464
   128  H   -0.057416
   129  H   -0.041425
   130  H   -0.033034
   131  H   -0.034955
   132  H   -0.040030
   133  H   -0.035231
   134  H   -0.030734
   135  H   -0.022846
   136  H   -0.014103
   137  H   -0.024613
   138  H   -0.015740
   139  H   -0.016986
   140  H   -0.038175
 Sum of Mulliken charges =  -0.00000

 Dipole moment (field-independent basis, Debye):
    X=              5.2114    Y=              4.7414    Z=             -0.3009  Tot=              7.0519
 Quadrupole moment (field-independent basis, Debye-Ang):
   XX=           -385.6386   YY=           -441.8786   ZZ=           -406.6702
   XY=            -31.7271   XZ=              3.1443   YZ=              5.9361

 Normal termination of Gaussian 16 at Wed May  4 05:56:08 2022.
