 Gaussian 16, Revision A.03,
 Gaussian 16:  ES64L-G16RevA.03 25-Dec-2016

 -----------------------------------
 #p cam-b3lyp/Def2SVP td=(nstates=5)
 -----------------------------------

 --------------------------------------------------------
 step_1401_chromophore_15 TDDFT with cam-b3lyp functional
 --------------------------------------------------------
 Symbolic Z-matrix:
 Charge =  0 Multiplicity = 1

                         Standard orientation:
 ---------------------------------------------------------------------
 Center     Atomic      Atomic             Coordinates (Angstroms)
 Number     Number       Type             X           Y           Z
 ---------------------------------------------------------------------
      1         12           0       -4.589476    0.860504   -0.104016
      2          6           0       -4.185913   -2.512191    0.758247
      3          6           0       -1.185188    1.368187    0.039289
      4          6           0       -5.194787    4.268911   -0.081278
      5          6           0       -8.063919    0.444471    0.421716
      6          7           0       -3.005790   -0.398216    0.357566
      7          6           0       -3.071376   -1.782718    0.421429
      8          6           0       -1.743519   -2.313613   -0.108903
      9          6           0       -0.793438   -1.125919    0.191890
     10          6           0       -1.691328    0.073483    0.184482
     11          6           0        0.052597   -1.386825    1.413157
     12          6           0       -1.857970   -2.681197   -1.624460
     13          6           0       -0.581588   -3.299291   -2.222635
     14          6           0        0.509580   -3.846944   -1.315335
     15          8           0        0.640212   -5.017502   -1.011655
     16          8           0        1.437777   -2.898535   -1.106052
     17          7           0       -3.360775    2.535326   -0.162806
     18          6           0       -2.012156    2.488305   -0.171489
     19          6           0       -1.565759    3.884331   -0.386929
     20          6           0       -2.698336    4.742078   -0.527313
     21          6           0       -3.870414    3.857459   -0.243493
     22          6           0       -0.005285    4.143358   -0.477514
     23          6           0       -2.836301    6.278383   -0.857867
     24          8           0       -3.948057    6.806104   -1.033891
     25          6           0       -1.593446    7.090225   -0.980332
     26          7           0       -6.333469    2.231734    0.208089
     27          6           0       -6.268115    3.546493    0.152089
     28          6           0       -7.620052    4.214913    0.249237
     29          6           0       -8.515088    3.015001    0.711708
     30          6           0       -7.695549    1.797508    0.412386
     31          6           0       -7.817519    5.441392    1.176697
     32          6           0       -9.782477    2.809393   -0.236004
     33          6           0      -11.010670    2.282256    0.522423
     34          7           0       -5.887881   -0.660287    0.289175
     35          6           0       -7.236948   -0.738698    0.370711
     36          6           0       -7.693919   -2.032548    0.698273
     37          6           0       -6.482798   -2.754364    0.855134
     38          6           0       -5.455917   -1.864381    0.653009
     39          6           0       -9.076353   -2.481690    0.632452
     40          6           0       -6.004282   -4.094039    1.128026
     41          8           0       -6.568765   -5.173812    1.299095
     42          6           0       -4.470855   -3.946962    1.193600
     43          6           0       -3.902629   -5.079828    0.311921
     44          8           0       -4.322568   -5.403196   -0.756254
     45          8           0       -2.833086   -5.701169    0.957715
     46          6           0       -2.154076   -6.692199    0.100171
     47          6           0        2.710725   -3.321137   -0.405458
     48          6           0        3.835213   -2.961370   -1.308738
     49          6           0        5.143851   -3.261257   -1.199271
     50          6           0        5.986313   -3.903168   -0.031082
     51          6           0        6.154860   -2.444183   -2.118486
     52          6           0        6.286489   -0.966594   -1.740339
     53          6           0        6.639521    0.005215   -2.960201
     54          6           0        7.998203    0.776944   -2.922008
     55          6           0        8.207356    1.534847   -4.217655
     56          6           0        9.243758   -0.042799   -2.587582
     57          6           0        9.765445    0.114287   -1.151291
     58          6           0       11.200382    0.710797   -0.973666
     59          6           0       11.151372    2.154949   -0.363301
     60          6           0       11.701930    3.270031   -1.341119
     61          6           0       11.764118    2.195827    1.035018
     62          6           0       10.820638    2.141786    2.207827
     63          6           0       10.795875    0.780742    3.020053
     64          6           0       11.074142    1.039137    4.451778
     65          6           0       12.412083    0.418846    4.918075
     66          6           0        9.889492    0.556623    5.276498
     67          1           0       -0.097330    1.468194    0.051924
     68          1           0       -5.442482    5.308291   -0.309660
     69          1           0       -9.145476    0.344349    0.535546
     70          1           0       -1.529273   -3.225553    0.447757
     71          1           0       -0.118483   -1.009635   -0.655387
     72          1           0        1.044266   -0.955396    1.276504
     73          1           0        0.063946   -2.467987    1.550497
     74          1           0       -0.310531   -0.932481    2.334937
     75          1           0       -1.988982   -1.794852   -2.246074
     76          1           0       -2.738777   -3.289757   -1.831295
     77          1           0       -0.144821   -2.656800   -2.986476
     78          1           0       -0.997616   -4.213347   -2.648771
     79          1           0        0.482776    3.665121    0.371954
     80          1           0        0.305722    5.180521   -0.607202
     81          1           0        0.405808    3.604365   -1.330571
     82          1           0       -0.960443    6.823447   -1.826430
     83          1           0       -0.955107    7.092736   -0.096171
     84          1           0       -1.906115    8.124291   -1.124993
     85          1           0       -7.890026    4.516574   -0.763182
     86          1           0       -8.766566    2.978028    1.771082
     87          1           0       -7.629224    6.369320    0.635998
     88          1           0       -7.033172    5.486477    1.933708
     89          1           0       -8.811826    5.587374    1.599606
     90          1           0       -9.557659    2.188676   -1.103790
     91          1           0       -9.999188    3.773136   -0.696474
     92          1           0      -11.336285    1.377952    0.006897
     93          1           0      -11.832943    2.967904    0.728246
     94          1           0      -10.796170    1.961598    1.542506
     95          1           0       -9.190113   -3.488095    0.229387
     96          1           0       -9.660308   -1.868334   -0.054315
     97          1           0       -9.505680   -2.321405    1.621256
     98          1           0       -4.073184   -4.086133    2.199441
     99          1           0       -2.596603   -7.675643    0.257835
    100          1           0       -1.122434   -6.893691    0.391892
    101          1           0       -2.249787   -6.465914   -0.961532
    102          1           0        2.770588   -4.409088   -0.361618
    103          1           0        2.896327   -2.894134    0.579347
    104          1           0        3.595487   -2.282634   -2.126905
    105          1           0        6.903325   -3.320935    0.049637
    106          1           0        6.086232   -4.963899   -0.261985
    107          1           0        5.307378   -3.934223    0.821310
    108          1           0        5.707402   -2.602715   -3.099946
    109          1           0        7.061536   -3.047292   -2.066627
    110          1           0        7.140536   -0.800922   -1.084015
    111          1           0        5.460406   -0.614930   -1.122223
    112          1           0        5.834039    0.738329   -2.945485
    113          1           0        6.534997   -0.614651   -3.850142
    114          1           0        7.817937    1.531857   -2.155501
    115          1           0        8.780050    1.003432   -4.977607
    116          1           0        8.919997    2.312896   -3.940404
    117          1           0        7.275261    2.026958   -4.494515
    118          1           0       10.097170    0.103438   -3.249637
    119          1           0        8.992357   -1.102351   -2.634506
    120          1           0        9.754355   -0.840416   -0.625375
    121          1           0        9.143842    0.829463   -0.612529
    122          1           0       11.764918    0.733584   -1.906334
    123          1           0       11.785581    0.011226   -0.377405
    124          1           0       10.170238    2.548865   -0.095568
    125          1           0       12.184777    2.863360   -2.228991
    126          1           0       12.366068    4.028977   -0.927605
    127          1           0       10.857855    3.889896   -1.644760
    128          1           0       12.313060    3.135585    1.097238
    129          1           0       12.543347    1.441330    1.142084
    130          1           0        9.785900    2.474561    2.119512
    131          1           0       11.241110    2.934290    2.826206
    132          1           0       11.528558    0.081124    2.618364
    133          1           0        9.831654    0.317834    2.809759
    134          1           0       11.155491    2.104565    4.666490
    135          1           0       13.081975    0.323925    4.063891
    136          1           0       12.293715   -0.525014    5.451401
    137          1           0       12.948459    1.082706    5.596201
    138          1           0        9.356965   -0.299526    4.861881
    139          1           0        9.278695    1.433130    5.492897
    140          1           0       10.225654    0.173432    6.239864
 ---------------------------------------------------------------------

 SCF Done:  E(RCAM-B3LYP) =  -3007.13705322     A.U. after   18 cycles

 Excitation energies and oscillator strengths:

 Excited State   1:      Singlet-A      1.6782 eV  738.78 nm  f=0.3692  <S**2>=0.000
     245 -> 248        0.15260
     246 -> 247        0.69195
     245 <- 248        0.10089
 This state for optimization and/or second-order correction.
 Total Energy, E(TD-HF/TD-DFT) =  -3007.07537925
 Copying the excited state density for this state as the 1-particle RhoCI density.

 Excited State   2:      Singlet-A      2.2881 eV  541.87 nm  f=0.1263  <S**2>=0.000
     245 -> 247        0.64090
     246 -> 248       -0.27848

 Excited State   3:      Singlet-A      3.3680 eV  368.12 nm  f=0.0117  <S**2>=0.000
     241 -> 247       -0.43872
     243 -> 247       -0.12209
     244 -> 247        0.51011
     246 -> 248       -0.11369

 Excited State   4:      Singlet-A      3.4467 eV  359.71 nm  f=0.0107  <S**2>=0.000
     240 -> 247        0.18049
     241 -> 247        0.41521
     243 -> 247        0.12894
     244 -> 247        0.45686
     246 -> 248        0.20215

 Excited State   5:      Singlet-A      3.5928 eV  345.10 nm  f=0.3062  <S**2>=0.000
     243 -> 247        0.44208
     243 -> 249        0.14739
     243 -> 250       -0.13790
     243 -> 251        0.19524
     245 -> 247       -0.19604
     246 -> 248       -0.41391

 The electronic state is 1-A.
 Alpha  occ. eigenvalues --  -46.87354 -19.26282 -19.24296 -19.20621 -19.20120
 Alpha  occ. eigenvalues --  -19.19722 -19.17585 -14.41630 -14.41223 -14.40024
 Alpha  occ. eigenvalues --  -14.38480 -10.39750 -10.38809 -10.37120 -10.33491
 Alpha  occ. eigenvalues --  -10.32986 -10.31725 -10.31274 -10.31153 -10.30332
 Alpha  occ. eigenvalues --  -10.30009 -10.29988 -10.29982 -10.29427 -10.28735
 Alpha  occ. eigenvalues --  -10.28259 -10.28026 -10.27884 -10.27593 -10.27581
 Alpha  occ. eigenvalues --  -10.27523 -10.27502 -10.27461 -10.27412 -10.27335
 Alpha  occ. eigenvalues --  -10.27272 -10.27270 -10.27031 -10.26977 -10.26870
 Alpha  occ. eigenvalues --  -10.26819 -10.26411 -10.26145 -10.26130 -10.25969
 Alpha  occ. eigenvalues --  -10.25937 -10.25900 -10.25899 -10.25829 -10.25718
 Alpha  occ. eigenvalues --  -10.25522 -10.25407 -10.25370 -10.25167 -10.25058
 Alpha  occ. eigenvalues --  -10.24944 -10.24936 -10.24845 -10.24707 -10.24692
 Alpha  occ. eigenvalues --  -10.24652 -10.24447 -10.24379 -10.24261 -10.24189
 Alpha  occ. eigenvalues --  -10.23375  -3.16087  -1.90969  -1.90521  -1.90419
 Alpha  occ. eigenvalues --   -1.17414  -1.15785  -1.10419  -1.08385  -1.08194
 Alpha  occ. eigenvalues --   -1.07512  -1.04453  -1.03210  -1.02681  -1.01762
 Alpha  occ. eigenvalues --   -0.92250  -0.90590  -0.90174  -0.89657  -0.89503
 Alpha  occ. eigenvalues --   -0.89091  -0.88134  -0.87869  -0.87539  -0.86523
 Alpha  occ. eigenvalues --   -0.86270  -0.85773  -0.84563  -0.83534  -0.83056
 Alpha  occ. eigenvalues --   -0.82781  -0.82663  -0.81368  -0.80904  -0.80401
 Alpha  occ. eigenvalues --   -0.80079  -0.78377  -0.78003  -0.77042  -0.75928
 Alpha  occ. eigenvalues --   -0.75781  -0.75656  -0.75210  -0.75111  -0.74812
 Alpha  occ. eigenvalues --   -0.73708  -0.72666  -0.71795  -0.70494  -0.69142
 Alpha  occ. eigenvalues --   -0.68617  -0.68378  -0.67464  -0.67286  -0.65707
 Alpha  occ. eigenvalues --   -0.65684  -0.65274  -0.64613  -0.64222  -0.64099
 Alpha  occ. eigenvalues --   -0.63968  -0.63721  -0.63008  -0.61530  -0.60338
 Alpha  occ. eigenvalues --   -0.59857  -0.59264  -0.59104  -0.58353  -0.57718
 Alpha  occ. eigenvalues --   -0.57455  -0.56939  -0.56216  -0.55855  -0.55330
 Alpha  occ. eigenvalues --   -0.55069  -0.54717  -0.54536  -0.54234  -0.53718
 Alpha  occ. eigenvalues --   -0.53615  -0.53481  -0.53128  -0.52985  -0.52752
 Alpha  occ. eigenvalues --   -0.52714  -0.52291  -0.52197  -0.51826  -0.51690
 Alpha  occ. eigenvalues --   -0.51526  -0.51340  -0.51128  -0.51097  -0.50976
 Alpha  occ. eigenvalues --   -0.50522  -0.50398  -0.50221  -0.50047  -0.49936
 Alpha  occ. eigenvalues --   -0.49624  -0.49448  -0.49154  -0.49065  -0.49013
 Alpha  occ. eigenvalues --   -0.48731  -0.48523  -0.48193  -0.47884  -0.47751
 Alpha  occ. eigenvalues --   -0.47557  -0.47472  -0.47201  -0.46839  -0.46791
 Alpha  occ. eigenvalues --   -0.46736  -0.46627  -0.46569  -0.46426  -0.46225
 Alpha  occ. eigenvalues --   -0.45709  -0.45347  -0.45276  -0.45012  -0.44919
 Alpha  occ. eigenvalues --   -0.44894  -0.44538  -0.44413  -0.44176  -0.43998
 Alpha  occ. eigenvalues --   -0.43791  -0.43759  -0.43429  -0.43239  -0.43155
 Alpha  occ. eigenvalues --   -0.42933  -0.42879  -0.42788  -0.42687  -0.42202
 Alpha  occ. eigenvalues --   -0.42058  -0.41894  -0.41635  -0.41609  -0.41322
 Alpha  occ. eigenvalues --   -0.40612  -0.40546  -0.40327  -0.40185  -0.39982
 Alpha  occ. eigenvalues --   -0.39585  -0.39475  -0.39148  -0.39105  -0.38863
 Alpha  occ. eigenvalues --   -0.38487  -0.37968  -0.37849  -0.37655  -0.37563
 Alpha  occ. eigenvalues --   -0.37171  -0.36922  -0.36734  -0.36393  -0.35857
 Alpha  occ. eigenvalues --   -0.35835  -0.35289  -0.34590  -0.34498  -0.34367
 Alpha  occ. eigenvalues --   -0.34099  -0.33618  -0.32731  -0.32562  -0.31157
 Alpha  occ. eigenvalues --   -0.30433  -0.30226  -0.29869  -0.28985  -0.24310
 Alpha  occ. eigenvalues --   -0.20973
 Alpha virt. eigenvalues --   -0.08702  -0.01168   0.00002   0.02250   0.02564
 Alpha virt. eigenvalues --    0.04600   0.05104   0.05541   0.06408   0.07319
 Alpha virt. eigenvalues --    0.07668   0.07944   0.08319   0.08370   0.08973

 Mulliken charges:
               1
     1  Mg   0.829044
     2  C   -0.026585
     3  C   -0.097176
     4  C   -0.068795
     5  C   -0.058337
     6  N   -0.371705
     7  C   -0.015214
     8  C   -0.096378
     9  C   -0.063406
    10  C    0.125869
    11  C    0.096357
    12  C    0.068596
    13  C    0.074532
    14  C    0.133090
    15  O   -0.223074
    16  O   -0.338095
    17  N   -0.401887
    18  C    0.173179
    19  C   -0.149157
    20  C   -0.050742
    21  C    0.141449
    22  C    0.095184
    23  C    0.054958
    24  O   -0.205855
    25  C    0.029465
    26  N   -0.270621
    27  C    0.035936
    28  C   -0.006108
    29  C   -0.033198
    30  C    0.008108
    31  C    0.061125
    32  C    0.015202
    33  C    0.005728
    34  N   -0.321363
    35  C    0.113473
    36  C   -0.184299
    37  C   -0.020581
    38  C    0.115632
    39  C    0.130642
    40  C    0.055109
    41  O   -0.176467
    42  C    0.039981
    43  C    0.174073
    44  O   -0.181495
    45  O   -0.349816
    46  C    0.175564
    47  C    0.288505
    48  C   -0.131699
    49  C   -0.217792
    50  C    0.086288
    51  C    0.027211
    52  C    0.039013
    53  C    0.038266
    54  C   -0.108093
    55  C    0.055562
    56  C    0.084295
    57  C   -0.026291
    58  C    0.082261
    59  C   -0.126209
    60  C    0.036345
    61  C    0.067186
    62  C   -0.016267
    63  C    0.073264
    64  C   -0.156084
    65  C    0.049179
    66  C    0.053887
    67  H   -0.021007
    68  H    0.000423
    69  H   -0.047076
    70  H    0.012692
    71  H    0.003754
    72  H    0.011598
    73  H    0.020742
    74  H    0.013883
    75  H   -0.004113
    76  H    0.035159
    77  H    0.034895
    78  H    0.028913
    79  H    0.031093
    80  H    0.009735
    81  H    0.024404
    82  H    0.048400
    83  H    0.046991
    84  H    0.027415
    85  H    0.017845
    86  H    0.029796
    87  H    0.011707
    88  H    0.017322
    89  H    0.024192
    90  H    0.018572
    91  H    0.000031
    92  H    0.021164
    93  H    0.018552
    94  H    0.008542
    95  H    0.040002
    96  H    0.006021
    97  H    0.023500
    98  H    0.043359
    99  H    0.021229
   100  H    0.041099
   101  H    0.043504
   102  H    0.052589
   103  H    0.048409
   104  H    0.006785
   105  H    0.043162
   106  H    0.031319
   107  H    0.000070
   108  H    0.013268
   109  H    0.003871
   110  H   -0.019830
   111  H    0.000233
   112  H   -0.007393
   113  H   -0.004292
   114  H   -0.009172
   115  H    0.013775
   116  H   -0.004292
   117  H    0.005714
   118  H   -0.006008
   119  H   -0.010566
   120  H   -0.003503
   121  H    0.006299
   122  H   -0.012337
   123  H   -0.008719
   124  H   -0.006176
   125  H    0.008186
   126  H    0.001661
   127  H    0.001923
   128  H   -0.025065
   129  H   -0.013899
   130  H   -0.004155
   131  H   -0.005959
   132  H   -0.011585
   133  H   -0.005855
   134  H    0.001920
   135  H    0.000285
   136  H    0.009849
   137  H    0.000595
   138  H    0.008265
   139  H    0.007472
   140  H   -0.011948
 Sum of Mulliken charges =  -0.00000

 Dipole moment (field-independent basis, Debye):
    X=              6.3948    Y=              6.4973    Z=             -0.5562  Tot=              9.1333
 Quadrupole moment (field-independent basis, Debye-Ang):
   XX=           -391.8530   YY=           -436.9559   ZZ=           -406.5974
   XY=            -37.3484   XZ=              4.3765   YZ=              5.4074

 Normal termination of Gaussian 16 at Wed May  4 04:58:29 2022.
