 Gaussian 16, Revision A.03,
 Gaussian 16:  ES64L-G16RevA.03 25-Dec-2016

 ---------------------------------
 #p PBE1PBE/Def2SVP td=(nstates=5)
 ---------------------------------

 ------------------------------------------------------
 step_1401_chromophore_15 TDDFT with PBE1PBE functional
 ------------------------------------------------------
 Symbolic Z-matrix:
 Charge =  0 Multiplicity = 1

                         Standard orientation:
 ---------------------------------------------------------------------
 Center     Atomic      Atomic             Coordinates (Angstroms)
 Number     Number       Type             X           Y           Z
 ---------------------------------------------------------------------
      1         12           0       -4.589476    0.860504   -0.104016
      2          6           0       -4.185913   -2.512191    0.758247
      3          6           0       -1.185188    1.368187    0.039289
      4          6           0       -5.194787    4.268911   -0.081278
      5          6           0       -8.063919    0.444471    0.421716
      6          7           0       -3.005790   -0.398216    0.357566
      7          6           0       -3.071376   -1.782718    0.421429
      8          6           0       -1.743519   -2.313613   -0.108903
      9          6           0       -0.793438   -1.125919    0.191890
     10          6           0       -1.691328    0.073483    0.184482
     11          6           0        0.052597   -1.386825    1.413157
     12          6           0       -1.857970   -2.681197   -1.624460
     13          6           0       -0.581588   -3.299291   -2.222635
     14          6           0        0.509580   -3.846944   -1.315335
     15          8           0        0.640212   -5.017502   -1.011655
     16          8           0        1.437777   -2.898535   -1.106052
     17          7           0       -3.360775    2.535326   -0.162806
     18          6           0       -2.012156    2.488305   -0.171489
     19          6           0       -1.565759    3.884331   -0.386929
     20          6           0       -2.698336    4.742078   -0.527313
     21          6           0       -3.870414    3.857459   -0.243493
     22          6           0       -0.005285    4.143358   -0.477514
     23          6           0       -2.836301    6.278383   -0.857867
     24          8           0       -3.948057    6.806104   -1.033891
     25          6           0       -1.593446    7.090225   -0.980332
     26          7           0       -6.333469    2.231734    0.208089
     27          6           0       -6.268115    3.546493    0.152089
     28          6           0       -7.620052    4.214913    0.249237
     29          6           0       -8.515088    3.015001    0.711708
     30          6           0       -7.695549    1.797508    0.412386
     31          6           0       -7.817519    5.441392    1.176697
     32          6           0       -9.782477    2.809393   -0.236004
     33          6           0      -11.010670    2.282256    0.522423
     34          7           0       -5.887881   -0.660287    0.289175
     35          6           0       -7.236948   -0.738698    0.370711
     36          6           0       -7.693919   -2.032548    0.698273
     37          6           0       -6.482798   -2.754364    0.855134
     38          6           0       -5.455917   -1.864381    0.653009
     39          6           0       -9.076353   -2.481690    0.632452
     40          6           0       -6.004282   -4.094039    1.128026
     41          8           0       -6.568765   -5.173812    1.299095
     42          6           0       -4.470855   -3.946962    1.193600
     43          6           0       -3.902629   -5.079828    0.311921
     44          8           0       -4.322568   -5.403196   -0.756254
     45          8           0       -2.833086   -5.701169    0.957715
     46          6           0       -2.154076   -6.692199    0.100171
     47          6           0        2.710725   -3.321137   -0.405458
     48          6           0        3.835213   -2.961370   -1.308738
     49          6           0        5.143851   -3.261257   -1.199271
     50          6           0        5.986313   -3.903168   -0.031082
     51          6           0        6.154860   -2.444183   -2.118486
     52          6           0        6.286489   -0.966594   -1.740339
     53          6           0        6.639521    0.005215   -2.960201
     54          6           0        7.998203    0.776944   -2.922008
     55          6           0        8.207356    1.534847   -4.217655
     56          6           0        9.243758   -0.042799   -2.587582
     57          6           0        9.765445    0.114287   -1.151291
     58          6           0       11.200382    0.710797   -0.973666
     59          6           0       11.151372    2.154949   -0.363301
     60          6           0       11.701930    3.270031   -1.341119
     61          6           0       11.764118    2.195827    1.035018
     62          6           0       10.820638    2.141786    2.207827
     63          6           0       10.795875    0.780742    3.020053
     64          6           0       11.074142    1.039137    4.451778
     65          6           0       12.412083    0.418846    4.918075
     66          6           0        9.889492    0.556623    5.276498
     67          1           0       -0.097330    1.468194    0.051924
     68          1           0       -5.442482    5.308291   -0.309660
     69          1           0       -9.145476    0.344349    0.535546
     70          1           0       -1.529273   -3.225553    0.447757
     71          1           0       -0.118483   -1.009635   -0.655387
     72          1           0        1.044266   -0.955396    1.276504
     73          1           0        0.063946   -2.467987    1.550497
     74          1           0       -0.310531   -0.932481    2.334937
     75          1           0       -1.988982   -1.794852   -2.246074
     76          1           0       -2.738777   -3.289757   -1.831295
     77          1           0       -0.144821   -2.656800   -2.986476
     78          1           0       -0.997616   -4.213347   -2.648771
     79          1           0        0.482776    3.665121    0.371954
     80          1           0        0.305722    5.180521   -0.607202
     81          1           0        0.405808    3.604365   -1.330571
     82          1           0       -0.960443    6.823447   -1.826430
     83          1           0       -0.955107    7.092736   -0.096171
     84          1           0       -1.906115    8.124291   -1.124993
     85          1           0       -7.890026    4.516574   -0.763182
     86          1           0       -8.766566    2.978028    1.771082
     87          1           0       -7.629224    6.369320    0.635998
     88          1           0       -7.033172    5.486477    1.933708
     89          1           0       -8.811826    5.587374    1.599606
     90          1           0       -9.557659    2.188676   -1.103790
     91          1           0       -9.999188    3.773136   -0.696474
     92          1           0      -11.336285    1.377952    0.006897
     93          1           0      -11.832943    2.967904    0.728246
     94          1           0      -10.796170    1.961598    1.542506
     95          1           0       -9.190113   -3.488095    0.229387
     96          1           0       -9.660308   -1.868334   -0.054315
     97          1           0       -9.505680   -2.321405    1.621256
     98          1           0       -4.073184   -4.086133    2.199441
     99          1           0       -2.596603   -7.675643    0.257835
    100          1           0       -1.122434   -6.893691    0.391892
    101          1           0       -2.249787   -6.465914   -0.961532
    102          1           0        2.770588   -4.409088   -0.361618
    103          1           0        2.896327   -2.894134    0.579347
    104          1           0        3.595487   -2.282634   -2.126905
    105          1           0        6.903325   -3.320935    0.049637
    106          1           0        6.086232   -4.963899   -0.261985
    107          1           0        5.307378   -3.934223    0.821310
    108          1           0        5.707402   -2.602715   -3.099946
    109          1           0        7.061536   -3.047292   -2.066627
    110          1           0        7.140536   -0.800922   -1.084015
    111          1           0        5.460406   -0.614930   -1.122223
    112          1           0        5.834039    0.738329   -2.945485
    113          1           0        6.534997   -0.614651   -3.850142
    114          1           0        7.817937    1.531857   -2.155501
    115          1           0        8.780050    1.003432   -4.977607
    116          1           0        8.919997    2.312896   -3.940404
    117          1           0        7.275261    2.026958   -4.494515
    118          1           0       10.097170    0.103438   -3.249637
    119          1           0        8.992357   -1.102351   -2.634506
    120          1           0        9.754355   -0.840416   -0.625375
    121          1           0        9.143842    0.829463   -0.612529
    122          1           0       11.764918    0.733584   -1.906334
    123          1           0       11.785581    0.011226   -0.377405
    124          1           0       10.170238    2.548865   -0.095568
    125          1           0       12.184777    2.863360   -2.228991
    126          1           0       12.366068    4.028977   -0.927605
    127          1           0       10.857855    3.889896   -1.644760
    128          1           0       12.313060    3.135585    1.097238
    129          1           0       12.543347    1.441330    1.142084
    130          1           0        9.785900    2.474561    2.119512
    131          1           0       11.241110    2.934290    2.826206
    132          1           0       11.528558    0.081124    2.618364
    133          1           0        9.831654    0.317834    2.809759
    134          1           0       11.155491    2.104565    4.666490
    135          1           0       13.081975    0.323925    4.063891
    136          1           0       12.293715   -0.525014    5.451401
    137          1           0       12.948459    1.082706    5.596201
    138          1           0        9.356965   -0.299526    4.861881
    139          1           0        9.278695    1.433130    5.492897
    140          1           0       10.225654    0.173432    6.239864
 ---------------------------------------------------------------------

 SCF Done:  E(RPBE1PBE) =  -3005.32368445     A.U. after   16 cycles

 Excitation energies and oscillator strengths:

 Excited State   1:      Singlet-A      1.7951 eV  690.66 nm  f=0.3590  <S**2>=0.000
     245 -> 248        0.14862
     246 -> 247        0.69923
     246 <- 247       -0.11648
 This state for optimization and/or second-order correction.
 Total Energy, E(TD-HF/TD-DFT) =  -3005.25771397
 Copying the excited state density for this state as the 1-particle RhoCI density.

 Excited State   2:      Singlet-A      2.2735 eV  545.35 nm  f=0.1195  <S**2>=0.000
     245 -> 247        0.65218
     246 -> 248       -0.25361

 Excited State   3:      Singlet-A      2.9604 eV  418.81 nm  f=0.0023  <S**2>=0.000
     243 -> 247       -0.38092
     243 -> 250       -0.10925
     244 -> 247        0.56666

 Excited State   4:      Singlet-A      3.0093 eV  412.01 nm  f=0.0015  <S**2>=0.000
     241 -> 247        0.14291
     243 -> 247        0.56482
     244 -> 247        0.38833

 Excited State   5:      Singlet-A      3.1333 eV  395.70 nm  f=0.0069  <S**2>=0.000
     241 -> 247        0.66290
     246 -> 248        0.13775

 The electronic state is 1-A.
 Alpha  occ. eigenvalues --  -46.90742 -19.26963 -19.25123 -19.20472 -19.20420
 Alpha  occ. eigenvalues --  -19.20107 -19.18212 -14.41293 -14.40615 -14.39456
 Alpha  occ. eigenvalues --  -14.38382 -10.36811 -10.36026 -10.33903 -10.30978
 Alpha  occ. eigenvalues --  -10.30389 -10.29130 -10.28568 -10.28327 -10.28290
 Alpha  occ. eigenvalues --  -10.28068 -10.27350 -10.27238 -10.26761 -10.26510
 Alpha  occ. eigenvalues --  -10.25976 -10.25735 -10.25656 -10.25494 -10.25319
 Alpha  occ. eigenvalues --  -10.25267 -10.25250 -10.25222 -10.25158 -10.25142
 Alpha  occ. eigenvalues --  -10.24980 -10.24852 -10.24599 -10.24574 -10.24367
 Alpha  occ. eigenvalues --  -10.24181 -10.24098 -10.24027 -10.23718 -10.23665
 Alpha  occ. eigenvalues --  -10.23616 -10.23437 -10.23428 -10.23283 -10.23212
 Alpha  occ. eigenvalues --  -10.23073 -10.22944 -10.22734 -10.22689 -10.22653
 Alpha  occ. eigenvalues --  -10.22573 -10.22468 -10.22461 -10.22252 -10.22093
 Alpha  occ. eigenvalues --  -10.22013 -10.21916 -10.21821 -10.21791 -10.21576
 Alpha  occ. eigenvalues --  -10.21553  -3.13048  -1.85871  -1.85402  -1.85305
 Alpha  occ. eigenvalues --   -1.12233  -1.10708  -1.04775  -1.03269  -1.03252
 Alpha  occ. eigenvalues --   -1.02560  -0.99498  -0.97654  -0.97210  -0.96217
 Alpha  occ. eigenvalues --   -0.86866  -0.84680  -0.84294  -0.83824  -0.83767
 Alpha  occ. eigenvalues --   -0.83279  -0.82437  -0.81982  -0.81818  -0.81130
 Alpha  occ. eigenvalues --   -0.80134  -0.79987  -0.78744  -0.77724  -0.77250
 Alpha  occ. eigenvalues --   -0.77216  -0.76594  -0.75596  -0.75158  -0.74548
 Alpha  occ. eigenvalues --   -0.74512  -0.72611  -0.72299  -0.71346  -0.70186
 Alpha  occ. eigenvalues --   -0.70007  -0.69851  -0.69379  -0.69332  -0.68961
 Alpha  occ. eigenvalues --   -0.68036  -0.67219  -0.66159  -0.64822  -0.63491
 Alpha  occ. eigenvalues --   -0.62977  -0.62763  -0.61751  -0.61523  -0.60163
 Alpha  occ. eigenvalues --   -0.59907  -0.59758  -0.59088  -0.58840  -0.58479
 Alpha  occ. eigenvalues --   -0.58198  -0.57866  -0.57169  -0.56284  -0.54752
 Alpha  occ. eigenvalues --   -0.54273  -0.53955  -0.53561  -0.53009  -0.52341
 Alpha  occ. eigenvalues --   -0.51936  -0.51481  -0.50740  -0.50403  -0.49886
 Alpha  occ. eigenvalues --   -0.49447  -0.49334  -0.48953  -0.48750  -0.48327
 Alpha  occ. eigenvalues --   -0.48187  -0.48005  -0.47597  -0.47534  -0.47363
 Alpha  occ. eigenvalues --   -0.47217  -0.46682  -0.46529  -0.46314  -0.46205
 Alpha  occ. eigenvalues --   -0.46097  -0.45922  -0.45738  -0.45644  -0.45512
 Alpha  occ. eigenvalues --   -0.45000  -0.44973  -0.44833  -0.44558  -0.44494
 Alpha  occ. eigenvalues --   -0.44211  -0.43886  -0.43766  -0.43637  -0.43592
 Alpha  occ. eigenvalues --   -0.43332  -0.43162  -0.42782  -0.42624  -0.42420
 Alpha  occ. eigenvalues --   -0.42278  -0.42045  -0.41981  -0.41487  -0.41427
 Alpha  occ. eigenvalues --   -0.41377  -0.41323  -0.41227  -0.41117  -0.40745
 Alpha  occ. eigenvalues --   -0.40483  -0.40081  -0.40002  -0.39779  -0.39661
 Alpha  occ. eigenvalues --   -0.39579  -0.39389  -0.39109  -0.38935  -0.38820
 Alpha  occ. eigenvalues --   -0.38523  -0.38492  -0.38257  -0.38004  -0.37933
 Alpha  occ. eigenvalues --   -0.37753  -0.37630  -0.37563  -0.37348  -0.37056
 Alpha  occ. eigenvalues --   -0.36772  -0.36742  -0.36557  -0.36307  -0.36247
 Alpha  occ. eigenvalues --   -0.35617  -0.35389  -0.35151  -0.34899  -0.34714
 Alpha  occ. eigenvalues --   -0.34443  -0.34377  -0.34115  -0.33847  -0.33767
 Alpha  occ. eigenvalues --   -0.33269  -0.32886  -0.32715  -0.32594  -0.32355
 Alpha  occ. eigenvalues --   -0.32184  -0.31807  -0.31719  -0.31213  -0.30901
 Alpha  occ. eigenvalues --   -0.30876  -0.30290  -0.29504  -0.29481  -0.29300
 Alpha  occ. eigenvalues --   -0.28993  -0.28783  -0.28319  -0.27020  -0.26723
 Alpha  occ. eigenvalues --   -0.25721  -0.25470  -0.25085  -0.24942  -0.21136
 Alpha  occ. eigenvalues --   -0.18538
 Alpha virt. eigenvalues --   -0.11181  -0.04774  -0.04089  -0.02132  -0.00444
 Alpha virt. eigenvalues --    0.00119   0.00616   0.00975   0.01618   0.03388
 Alpha virt. eigenvalues --    0.04262   0.04424   0.04674   0.05140   0.05409

 Mulliken charges:
               1
     1  Mg   0.976691
     2  C   -0.027640
     3  C   -0.079767
     4  C   -0.061678
     5  C   -0.059901
     6  N   -0.471524
     7  C    0.060837
     8  C   -0.183944
     9  C   -0.145560
    10  C    0.156594
    11  C    0.044530
    12  C    0.027757
    13  C   -0.004480
    14  C    0.203927
    15  O   -0.258854
    16  O   -0.366913
    17  N   -0.515110
    18  C    0.193811
    19  C   -0.181001
    20  C   -0.090810
    21  C    0.171486
    22  C    0.035771
    23  C    0.095969
    24  O   -0.245413
    25  C   -0.037381
    26  N   -0.375759
    27  C    0.078065
    28  C   -0.081600
    29  C   -0.124960
    30  C    0.055677
    31  C    0.003316
    32  C   -0.042903
    33  C   -0.064851
    34  N   -0.455377
    35  C    0.143587
    36  C   -0.192140
    37  C   -0.065281
    38  C    0.157852
    39  C    0.071256
    40  C    0.152802
    41  O   -0.220404
    42  C   -0.068467
    43  C    0.264837
    44  O   -0.216985
    45  O   -0.381436
    46  C    0.119277
    47  C    0.245628
    48  C   -0.146937
    49  C   -0.245788
    50  C    0.016040
    51  C   -0.043994
    52  C   -0.026817
    53  C   -0.011385
    54  C   -0.200163
    55  C   -0.008265
    56  C    0.030692
    57  C   -0.092299
    58  C    0.035406
    59  C   -0.217277
    60  C   -0.019141
    61  C    0.016927
    62  C   -0.078258
    63  C    0.019790
    64  C   -0.250532
    65  C   -0.011564
    66  C   -0.005961
    67  H    0.009013
    68  H    0.031130
    69  H   -0.010104
    70  H    0.053413
    71  H    0.042715
    72  H    0.038379
    73  H    0.046757
    74  H    0.041358
    75  H    0.030817
    76  H    0.067442
    77  H    0.065857
    78  H    0.063236
    79  H    0.056487
    80  H    0.036366
    81  H    0.050887
    82  H    0.073232
    83  H    0.071721
    84  H    0.053587
    85  H    0.054359
    86  H    0.065687
    87  H    0.039447
    88  H    0.046210
    89  H    0.050497
    90  H    0.050814
    91  H    0.035004
    92  H    0.047472
    93  H    0.047043
    94  H    0.035001
    95  H    0.068347
    96  H    0.034754
    97  H    0.054187
    98  H    0.080648
    99  H    0.044660
   100  H    0.063832
   101  H    0.065195
   102  H    0.079248
   103  H    0.072686
   104  H    0.036523
   105  H    0.069040
   106  H    0.060011
   107  H    0.029376
   108  H    0.045842
   109  H    0.036268
   110  H    0.020884
   111  H    0.031994
   112  H    0.025829
   113  H    0.027885
   114  H    0.029475
   115  H    0.041260
   116  H    0.026379
   117  H    0.033615
   118  H    0.025447
   119  H    0.025543
   120  H    0.027874
   121  H    0.038384
   122  H    0.018525
   123  H    0.022747
   124  H    0.032221
   125  H    0.034410
   126  H    0.027684
   127  H    0.029266
   128  H    0.008279
   129  H    0.018374
   130  H    0.026680
   131  H    0.026412
   132  H    0.020213
   133  H    0.026555
   134  H    0.038949
   135  H    0.028018
   136  H    0.036753
   137  H    0.028740
   138  H    0.034978
   139  H    0.035788
   140  H    0.016392
 Sum of Mulliken charges =  -0.00000

 Dipole moment (field-independent basis, Debye):
    X=              5.8482    Y=              5.7119    Z=             -0.4545  Tot=              8.1874
 Quadrupole moment (field-independent basis, Debye-Ang):
   XX=           -381.1113   YY=           -435.6021   ZZ=           -404.2252
   XY=            -34.5567   XZ=              3.9744   YZ=              5.4612

 Normal termination of Gaussian 16 at Wed May  4 05:16:09 2022.
