 Gaussian 16, Revision A.03,
 Gaussian 16:  ES64L-G16RevA.03 25-Dec-2016

 --------------------------------
 #p wB97XD/Def2SVP td=(nstates=5)
 --------------------------------

 -----------------------------------------------------
 step_1401_chromophore_15 TDDFT with wB97XD functional
 -----------------------------------------------------
 Symbolic Z-matrix:
 Charge =  0 Multiplicity = 1

                         Standard orientation:
 ---------------------------------------------------------------------
 Center     Atomic      Atomic             Coordinates (Angstroms)
 Number     Number       Type             X           Y           Z
 ---------------------------------------------------------------------
      1         12           0       -4.589476    0.860504   -0.104016
      2          6           0       -4.185913   -2.512191    0.758247
      3          6           0       -1.185188    1.368187    0.039289
      4          6           0       -5.194787    4.268911   -0.081278
      5          6           0       -8.063919    0.444471    0.421716
      6          7           0       -3.005790   -0.398216    0.357566
      7          6           0       -3.071376   -1.782718    0.421429
      8          6           0       -1.743519   -2.313613   -0.108903
      9          6           0       -0.793438   -1.125919    0.191890
     10          6           0       -1.691328    0.073483    0.184482
     11          6           0        0.052597   -1.386825    1.413157
     12          6           0       -1.857970   -2.681197   -1.624460
     13          6           0       -0.581588   -3.299291   -2.222635
     14          6           0        0.509580   -3.846944   -1.315335
     15          8           0        0.640212   -5.017502   -1.011655
     16          8           0        1.437777   -2.898535   -1.106052
     17          7           0       -3.360775    2.535326   -0.162806
     18          6           0       -2.012156    2.488305   -0.171489
     19          6           0       -1.565759    3.884331   -0.386929
     20          6           0       -2.698336    4.742078   -0.527313
     21          6           0       -3.870414    3.857459   -0.243493
     22          6           0       -0.005285    4.143358   -0.477514
     23          6           0       -2.836301    6.278383   -0.857867
     24          8           0       -3.948057    6.806104   -1.033891
     25          6           0       -1.593446    7.090225   -0.980332
     26          7           0       -6.333469    2.231734    0.208089
     27          6           0       -6.268115    3.546493    0.152089
     28          6           0       -7.620052    4.214913    0.249237
     29          6           0       -8.515088    3.015001    0.711708
     30          6           0       -7.695549    1.797508    0.412386
     31          6           0       -7.817519    5.441392    1.176697
     32          6           0       -9.782477    2.809393   -0.236004
     33          6           0      -11.010670    2.282256    0.522423
     34          7           0       -5.887881   -0.660287    0.289175
     35          6           0       -7.236948   -0.738698    0.370711
     36          6           0       -7.693919   -2.032548    0.698273
     37          6           0       -6.482798   -2.754364    0.855134
     38          6           0       -5.455917   -1.864381    0.653009
     39          6           0       -9.076353   -2.481690    0.632452
     40          6           0       -6.004282   -4.094039    1.128026
     41          8           0       -6.568765   -5.173812    1.299095
     42          6           0       -4.470855   -3.946962    1.193600
     43          6           0       -3.902629   -5.079828    0.311921
     44          8           0       -4.322568   -5.403196   -0.756254
     45          8           0       -2.833086   -5.701169    0.957715
     46          6           0       -2.154076   -6.692199    0.100171
     47          6           0        2.710725   -3.321137   -0.405458
     48          6           0        3.835213   -2.961370   -1.308738
     49          6           0        5.143851   -3.261257   -1.199271
     50          6           0        5.986313   -3.903168   -0.031082
     51          6           0        6.154860   -2.444183   -2.118486
     52          6           0        6.286489   -0.966594   -1.740339
     53          6           0        6.639521    0.005215   -2.960201
     54          6           0        7.998203    0.776944   -2.922008
     55          6           0        8.207356    1.534847   -4.217655
     56          6           0        9.243758   -0.042799   -2.587582
     57          6           0        9.765445    0.114287   -1.151291
     58          6           0       11.200382    0.710797   -0.973666
     59          6           0       11.151372    2.154949   -0.363301
     60          6           0       11.701930    3.270031   -1.341119
     61          6           0       11.764118    2.195827    1.035018
     62          6           0       10.820638    2.141786    2.207827
     63          6           0       10.795875    0.780742    3.020053
     64          6           0       11.074142    1.039137    4.451778
     65          6           0       12.412083    0.418846    4.918075
     66          6           0        9.889492    0.556623    5.276498
     67          1           0       -0.097330    1.468194    0.051924
     68          1           0       -5.442482    5.308291   -0.309660
     69          1           0       -9.145476    0.344349    0.535546
     70          1           0       -1.529273   -3.225553    0.447757
     71          1           0       -0.118483   -1.009635   -0.655387
     72          1           0        1.044266   -0.955396    1.276504
     73          1           0        0.063946   -2.467987    1.550497
     74          1           0       -0.310531   -0.932481    2.334937
     75          1           0       -1.988982   -1.794852   -2.246074
     76          1           0       -2.738777   -3.289757   -1.831295
     77          1           0       -0.144821   -2.656800   -2.986476
     78          1           0       -0.997616   -4.213347   -2.648771
     79          1           0        0.482776    3.665121    0.371954
     80          1           0        0.305722    5.180521   -0.607202
     81          1           0        0.405808    3.604365   -1.330571
     82          1           0       -0.960443    6.823447   -1.826430
     83          1           0       -0.955107    7.092736   -0.096171
     84          1           0       -1.906115    8.124291   -1.124993
     85          1           0       -7.890026    4.516574   -0.763182
     86          1           0       -8.766566    2.978028    1.771082
     87          1           0       -7.629224    6.369320    0.635998
     88          1           0       -7.033172    5.486477    1.933708
     89          1           0       -8.811826    5.587374    1.599606
     90          1           0       -9.557659    2.188676   -1.103790
     91          1           0       -9.999188    3.773136   -0.696474
     92          1           0      -11.336285    1.377952    0.006897
     93          1           0      -11.832943    2.967904    0.728246
     94          1           0      -10.796170    1.961598    1.542506
     95          1           0       -9.190113   -3.488095    0.229387
     96          1           0       -9.660308   -1.868334   -0.054315
     97          1           0       -9.505680   -2.321405    1.621256
     98          1           0       -4.073184   -4.086133    2.199441
     99          1           0       -2.596603   -7.675643    0.257835
    100          1           0       -1.122434   -6.893691    0.391892
    101          1           0       -2.249787   -6.465914   -0.961532
    102          1           0        2.770588   -4.409088   -0.361618
    103          1           0        2.896327   -2.894134    0.579347
    104          1           0        3.595487   -2.282634   -2.126905
    105          1           0        6.903325   -3.320935    0.049637
    106          1           0        6.086232   -4.963899   -0.261985
    107          1           0        5.307378   -3.934223    0.821310
    108          1           0        5.707402   -2.602715   -3.099946
    109          1           0        7.061536   -3.047292   -2.066627
    110          1           0        7.140536   -0.800922   -1.084015
    111          1           0        5.460406   -0.614930   -1.122223
    112          1           0        5.834039    0.738329   -2.945485
    113          1           0        6.534997   -0.614651   -3.850142
    114          1           0        7.817937    1.531857   -2.155501
    115          1           0        8.780050    1.003432   -4.977607
    116          1           0        8.919997    2.312896   -3.940404
    117          1           0        7.275261    2.026958   -4.494515
    118          1           0       10.097170    0.103438   -3.249637
    119          1           0        8.992357   -1.102351   -2.634506
    120          1           0        9.754355   -0.840416   -0.625375
    121          1           0        9.143842    0.829463   -0.612529
    122          1           0       11.764918    0.733584   -1.906334
    123          1           0       11.785581    0.011226   -0.377405
    124          1           0       10.170238    2.548865   -0.095568
    125          1           0       12.184777    2.863360   -2.228991
    126          1           0       12.366068    4.028977   -0.927605
    127          1           0       10.857855    3.889896   -1.644760
    128          1           0       12.313060    3.135585    1.097238
    129          1           0       12.543347    1.441330    1.142084
    130          1           0        9.785900    2.474561    2.119512
    131          1           0       11.241110    2.934290    2.826206
    132          1           0       11.528558    0.081124    2.618364
    133          1           0        9.831654    0.317834    2.809759
    134          1           0       11.155491    2.104565    4.666490
    135          1           0       13.081975    0.323925    4.063891
    136          1           0       12.293715   -0.525014    5.451401
    137          1           0       12.948459    1.082706    5.596201
    138          1           0        9.356965   -0.299526    4.861881
    139          1           0        9.278695    1.433130    5.492897
    140          1           0       10.225654    0.173432    6.239864
 ---------------------------------------------------------------------

 SCF Done:  E(RwB97XD) =  -3007.83612462     A.U. after   19 cycles

 Excitation energies and oscillator strengths:

 Excited State   1:      Singlet-A      1.6439 eV  754.20 nm  f=0.3688  <S**2>=0.000
     245 -> 248        0.15494
     246 -> 247        0.68961
     245 <- 248        0.10743
 This state for optimization and/or second-order correction.
 Total Energy, E(TD-HF/TD-DFT) =  -3007.77571177
 Copying the excited state density for this state as the 1-particle RhoCI density.

 Excited State   2:      Singlet-A      2.2424 eV  552.91 nm  f=0.1234  <S**2>=0.000
     245 -> 247        0.63756
     246 -> 248       -0.28035

 Excited State   3:      Singlet-A      3.3848 eV  366.30 nm  f=0.0180  <S**2>=0.000
     240 -> 247        0.13159
     241 -> 247        0.56530
     243 -> 247        0.10946
     244 -> 247       -0.31107
     246 -> 248        0.17524

 Excited State   4:      Singlet-A      3.4886 eV  355.39 nm  f=0.0129  <S**2>=0.000
     240 -> 247        0.16417
     241 -> 247        0.20951
     244 -> 247        0.59201
     246 -> 248        0.19718

 Excited State   5:      Singlet-A      3.6437 eV  340.27 nm  f=0.5802  <S**2>=0.000
     241 -> 247       -0.12326
     243 -> 247       -0.28050
     243 -> 249       -0.10793
     243 -> 250       -0.17247
     245 -> 247        0.26445
     246 -> 248        0.51424

 The electronic state is 1-A.
 Alpha  occ. eigenvalues --  -46.93720 -19.31485 -19.29495 -19.25732 -19.25018
 Alpha  occ. eigenvalues --  -19.24598 -19.22560 -14.46243 -14.45878 -14.44701
 Alpha  occ. eigenvalues --  -14.43018 -10.43535 -10.42624 -10.41186 -10.37428
 Alpha  occ. eigenvalues --  -10.36884 -10.35845 -10.35459 -10.35322 -10.34308
 Alpha  occ. eigenvalues --  -10.34304 -10.33949 -10.33713 -10.33455 -10.32963
 Alpha  occ. eigenvalues --  -10.32153 -10.32048 -10.31864 -10.31650 -10.31589
 Alpha  occ. eigenvalues --  -10.31533 -10.31525 -10.31478 -10.31473 -10.31375
 Alpha  occ. eigenvalues --  -10.31236 -10.31165 -10.30954 -10.30924 -10.30840
 Alpha  occ. eigenvalues --  -10.30814 -10.30358 -10.30107 -10.30067 -10.29950
 Alpha  occ. eigenvalues --  -10.29912 -10.29856 -10.29795 -10.29722 -10.29700
 Alpha  occ. eigenvalues --  -10.29480 -10.29464 -10.29237 -10.29118 -10.28988
 Alpha  occ. eigenvalues --  -10.28873 -10.28863 -10.28628 -10.28626 -10.28537
 Alpha  occ. eigenvalues --  -10.28491 -10.28292 -10.28263 -10.28183 -10.28000
 Alpha  occ. eigenvalues --  -10.27305  -3.19863  -1.93439  -1.92972  -1.92869
 Alpha  occ. eigenvalues --   -1.19565  -1.17895  -1.12710  -1.10551  -1.10346
 Alpha  occ. eigenvalues --   -1.09683  -1.06420  -1.05272  -1.04698  -1.03830
 Alpha  occ. eigenvalues --   -0.94169  -0.92376  -0.91962  -0.91488  -0.91411
 Alpha  occ. eigenvalues --   -0.90920  -0.90066  -0.89658  -0.89464  -0.88403
 Alpha  occ. eigenvalues --   -0.88290  -0.87654  -0.86427  -0.85406  -0.84927
 Alpha  occ. eigenvalues --   -0.84738  -0.84580  -0.83270  -0.82790  -0.82219
 Alpha  occ. eigenvalues --   -0.82003  -0.80376  -0.79880  -0.78952  -0.77788
 Alpha  occ. eigenvalues --   -0.77566  -0.77559  -0.77078  -0.77040  -0.76643
 Alpha  occ. eigenvalues --   -0.75624  -0.74611  -0.73770  -0.72426  -0.71052
 Alpha  occ. eigenvalues --   -0.70508  -0.70323  -0.69419  -0.69264  -0.67645
 Alpha  occ. eigenvalues --   -0.67544  -0.67242  -0.66632  -0.66222  -0.65917
 Alpha  occ. eigenvalues --   -0.65905  -0.65533  -0.64848  -0.63501  -0.62376
 Alpha  occ. eigenvalues --   -0.61795  -0.61238  -0.61039  -0.60341  -0.59702
 Alpha  occ. eigenvalues --   -0.59351  -0.58846  -0.58188  -0.57837  -0.57298
 Alpha  occ. eigenvalues --   -0.56943  -0.56664  -0.56428  -0.56119  -0.55624
 Alpha  occ. eigenvalues --   -0.55547  -0.55419  -0.54998  -0.54904  -0.54692
 Alpha  occ. eigenvalues --   -0.54611  -0.54286  -0.54086  -0.53725  -0.53566
 Alpha  occ. eigenvalues --   -0.53429  -0.53226  -0.53012  -0.52983  -0.52896
 Alpha  occ. eigenvalues --   -0.52505  -0.52311  -0.52120  -0.52041  -0.51835
 Alpha  occ. eigenvalues --   -0.51540  -0.51436  -0.51062  -0.50955  -0.50920
 Alpha  occ. eigenvalues --   -0.50670  -0.50444  -0.50077  -0.49786  -0.49687
 Alpha  occ. eigenvalues --   -0.49460  -0.49337  -0.49092  -0.48771  -0.48698
 Alpha  occ. eigenvalues --   -0.48628  -0.48519  -0.48487  -0.48329  -0.48051
 Alpha  occ. eigenvalues --   -0.47612  -0.47254  -0.47199  -0.46918  -0.46825
 Alpha  occ. eigenvalues --   -0.46792  -0.46431  -0.46346  -0.46029  -0.45874
 Alpha  occ. eigenvalues --   -0.45701  -0.45665  -0.45367  -0.45122  -0.45075
 Alpha  occ. eigenvalues --   -0.44935  -0.44809  -0.44689  -0.44597  -0.44103
 Alpha  occ. eigenvalues --   -0.43931  -0.43832  -0.43566  -0.43477  -0.43272
 Alpha  occ. eigenvalues --   -0.42567  -0.42453  -0.42208  -0.42032  -0.41853
 Alpha  occ. eigenvalues --   -0.41476  -0.41417  -0.41030  -0.40944  -0.40754
 Alpha  occ. eigenvalues --   -0.40349  -0.39812  -0.39805  -0.39614  -0.39429
 Alpha  occ. eigenvalues --   -0.39099  -0.38795  -0.38779  -0.38248  -0.37817
 Alpha  occ. eigenvalues --   -0.37770  -0.37156  -0.36419  -0.36412  -0.36307
 Alpha  occ. eigenvalues --   -0.35947  -0.35622  -0.34942  -0.34577  -0.33363
 Alpha  occ. eigenvalues --   -0.32668  -0.32273  -0.31775  -0.31077  -0.26258
 Alpha  occ. eigenvalues --   -0.22804
 Alpha virt. eigenvalues --   -0.07025   0.00759   0.02014   0.04544   0.05470
 Alpha virt. eigenvalues --    0.06915   0.07321   0.07804   0.08619   0.10191
 Alpha virt. eigenvalues --    0.10530   0.11093   0.11283   0.11814   0.12081

 Mulliken charges:
               1
     1  Mg   0.965815
     2  C   -0.039663
     3  C   -0.107884
     4  C   -0.077687
     5  C   -0.065468
     6  N   -0.442767
     7  C    0.028225
     8  C   -0.140647
     9  C   -0.115374
    10  C    0.149337
    11  C    0.049099
    12  C    0.032540
    13  C    0.013454
    14  C    0.186261
    15  O   -0.254546
    16  O   -0.364510
    17  N   -0.484784
    18  C    0.193347
    19  C   -0.169527
    20  C   -0.086807
    21  C    0.166641
    22  C    0.050834
    23  C    0.098294
    24  O   -0.236932
    25  C   -0.033028
    26  N   -0.339511
    27  C    0.064247
    28  C   -0.059993
    29  C   -0.094449
    30  C    0.039396
    31  C    0.012814
    32  C   -0.025463
    33  C   -0.051973
    34  N   -0.415413
    35  C    0.127565
    36  C   -0.189965
    37  C   -0.066245
    38  C    0.144544
    39  C    0.081150
    40  C    0.132838
    41  O   -0.214131
    42  C   -0.028128
    43  C    0.239274
    44  O   -0.211626
    45  O   -0.380333
    46  C    0.134275
    47  C    0.259045
    48  C   -0.153673
    49  C   -0.238841
    50  C    0.033146
    51  C   -0.019125
    52  C   -0.006465
    53  C    0.000187
    54  C   -0.167232
    55  C    0.005571
    56  C    0.043929
    57  C   -0.069113
    58  C    0.046284
    59  C   -0.185095
    60  C   -0.006236
    61  C    0.032229
    62  C   -0.061776
    63  C    0.033280
    64  C   -0.220014
    65  C    0.000862
    66  C    0.005313
    67  H    0.005385
    68  H    0.026875
    69  H   -0.024851
    70  H    0.035032
    71  H    0.029157
    72  H    0.033152
    73  H    0.041233
    74  H    0.037724
    75  H    0.021520
    76  H    0.060073
    77  H    0.061083
    78  H    0.056934
    79  H    0.052868
    80  H    0.032352
    81  H    0.047512
    82  H    0.070418
    83  H    0.068479
    84  H    0.053859
    85  H    0.045090
    86  H    0.055472
    87  H    0.033598
    88  H    0.039644
    89  H    0.046854
    90  H    0.042018
    91  H    0.024764
    92  H    0.042391
    93  H    0.042366
    94  H    0.028131
    95  H    0.064029
    96  H    0.026673
    97  H    0.047229
    98  H    0.075011
    99  H    0.040271
   100  H    0.060945
   101  H    0.060111
   102  H    0.074729
   103  H    0.068199
   104  H    0.032253
   105  H    0.063520
   106  H    0.054624
   107  H    0.022707
   108  H    0.036019
   109  H    0.027548
   110  H    0.003709
   111  H    0.024369
   112  H    0.017864
   113  H    0.018356
   114  H    0.016452
   115  H    0.035580
   116  H    0.018255
   117  H    0.028206
   118  H    0.016276
   119  H    0.014240
   120  H    0.021347
   121  H    0.022200
   122  H    0.008919
   123  H    0.015057
   124  H    0.015955
   125  H    0.028010
   126  H    0.022111
   127  H    0.022987
   128  H   -0.000483
   129  H    0.007413
   130  H    0.019891
   131  H    0.016490
   132  H    0.008806
   133  H    0.018125
   134  H    0.027229
   135  H    0.020606
   136  H    0.031049
   137  H    0.023413
   138  H    0.028861
   139  H    0.030318
   140  H    0.010018
 Sum of Mulliken charges =  -0.00000

 Dipole moment (field-independent basis, Debye):
    X=              6.5943    Y=              6.8076    Z=             -0.6257  Tot=              9.4984
 Quadrupole moment (field-independent basis, Debye-Ang):
   XX=           -387.9999   YY=           -432.6089   ZZ=           -403.7310
   XY=            -38.2310   XZ=              4.7935   YZ=              5.0607

 Normal termination of Gaussian 16 at Wed May  4 05:44:05 2022.
