 Gaussian 16, Revision A.03,
 Gaussian 16:  ES64L-G16RevA.03 25-Dec-2016

 --------------------
 #p ZINDO=(nstates=5)
 --------------------

 ------------------------------
 step_1401_chromophore_15 ZINDO
 ------------------------------
 Symbolic Z-matrix:
 Charge =  0 Multiplicity = 1

                         Standard orientation:
 ---------------------------------------------------------------------
 Center     Atomic      Atomic             Coordinates (Angstroms)
 Number     Number       Type             X           Y           Z
 ---------------------------------------------------------------------
      1         12           0       -4.589476    0.860504   -0.104016
      2          6           0       -4.185913   -2.512191    0.758247
      3          6           0       -1.185188    1.368187    0.039289
      4          6           0       -5.194787    4.268911   -0.081278
      5          6           0       -8.063919    0.444471    0.421716
      6          7           0       -3.005790   -0.398216    0.357566
      7          6           0       -3.071376   -1.782718    0.421429
      8          6           0       -1.743519   -2.313613   -0.108903
      9          6           0       -0.793438   -1.125919    0.191890
     10          6           0       -1.691328    0.073483    0.184482
     11          6           0        0.052597   -1.386825    1.413157
     12          6           0       -1.857970   -2.681197   -1.624460
     13          6           0       -0.581588   -3.299291   -2.222635
     14          6           0        0.509580   -3.846944   -1.315335
     15          8           0        0.640212   -5.017502   -1.011655
     16          8           0        1.437777   -2.898535   -1.106052
     17          7           0       -3.360775    2.535326   -0.162806
     18          6           0       -2.012156    2.488305   -0.171489
     19          6           0       -1.565759    3.884331   -0.386929
     20          6           0       -2.698336    4.742078   -0.527313
     21          6           0       -3.870414    3.857459   -0.243493
     22          6           0       -0.005285    4.143358   -0.477514
     23          6           0       -2.836301    6.278383   -0.857867
     24          8           0       -3.948057    6.806104   -1.033891
     25          6           0       -1.593446    7.090225   -0.980332
     26          7           0       -6.333469    2.231734    0.208089
     27          6           0       -6.268115    3.546493    0.152089
     28          6           0       -7.620052    4.214913    0.249237
     29          6           0       -8.515088    3.015001    0.711708
     30          6           0       -7.695549    1.797508    0.412386
     31          6           0       -7.817519    5.441392    1.176697
     32          6           0       -9.782477    2.809393   -0.236004
     33          6           0      -11.010670    2.282256    0.522423
     34          7           0       -5.887881   -0.660287    0.289175
     35          6           0       -7.236948   -0.738698    0.370711
     36          6           0       -7.693919   -2.032548    0.698273
     37          6           0       -6.482798   -2.754364    0.855134
     38          6           0       -5.455917   -1.864381    0.653009
     39          6           0       -9.076353   -2.481690    0.632452
     40          6           0       -6.004282   -4.094039    1.128026
     41          8           0       -6.568765   -5.173812    1.299095
     42          6           0       -4.470855   -3.946962    1.193600
     43          6           0       -3.902629   -5.079828    0.311921
     44          8           0       -4.322568   -5.403196   -0.756254
     45          8           0       -2.833086   -5.701169    0.957715
     46          6           0       -2.154076   -6.692199    0.100171
     47          6           0        2.710725   -3.321137   -0.405458
     48          6           0        3.835213   -2.961370   -1.308738
     49          6           0        5.143851   -3.261257   -1.199271
     50          6           0        5.986313   -3.903168   -0.031082
     51          6           0        6.154860   -2.444183   -2.118486
     52          6           0        6.286489   -0.966594   -1.740339
     53          6           0        6.639521    0.005215   -2.960201
     54          6           0        7.998203    0.776944   -2.922008
     55          6           0        8.207356    1.534847   -4.217655
     56          6           0        9.243758   -0.042799   -2.587582
     57          6           0        9.765445    0.114287   -1.151291
     58          6           0       11.200382    0.710797   -0.973666
     59          6           0       11.151372    2.154949   -0.363301
     60          6           0       11.701930    3.270031   -1.341119
     61          6           0       11.764118    2.195827    1.035018
     62          6           0       10.820638    2.141786    2.207827
     63          6           0       10.795875    0.780742    3.020053
     64          6           0       11.074142    1.039137    4.451778
     65          6           0       12.412083    0.418846    4.918075
     66          6           0        9.889492    0.556623    5.276498
     67          1           0       -0.097330    1.468194    0.051924
     68          1           0       -5.442482    5.308291   -0.309660
     69          1           0       -9.145476    0.344349    0.535546
     70          1           0       -1.529273   -3.225553    0.447757
     71          1           0       -0.118483   -1.009635   -0.655387
     72          1           0        1.044266   -0.955396    1.276504
     73          1           0        0.063946   -2.467987    1.550497
     74          1           0       -0.310531   -0.932481    2.334937
     75          1           0       -1.988982   -1.794852   -2.246074
     76          1           0       -2.738777   -3.289757   -1.831295
     77          1           0       -0.144821   -2.656800   -2.986476
     78          1           0       -0.997616   -4.213347   -2.648771
     79          1           0        0.482776    3.665121    0.371954
     80          1           0        0.305722    5.180521   -0.607202
     81          1           0        0.405808    3.604365   -1.330571
     82          1           0       -0.960443    6.823447   -1.826430
     83          1           0       -0.955107    7.092736   -0.096171
     84          1           0       -1.906115    8.124291   -1.124993
     85          1           0       -7.890026    4.516574   -0.763182
     86          1           0       -8.766566    2.978028    1.771082
     87          1           0       -7.629224    6.369320    0.635998
     88          1           0       -7.033172    5.486477    1.933708
     89          1           0       -8.811826    5.587374    1.599606
     90          1           0       -9.557659    2.188676   -1.103790
     91          1           0       -9.999188    3.773136   -0.696474
     92          1           0      -11.336285    1.377952    0.006897
     93          1           0      -11.832943    2.967904    0.728246
     94          1           0      -10.796170    1.961598    1.542506
     95          1           0       -9.190113   -3.488095    0.229387
     96          1           0       -9.660308   -1.868334   -0.054315
     97          1           0       -9.505680   -2.321405    1.621256
     98          1           0       -4.073184   -4.086133    2.199441
     99          1           0       -2.596603   -7.675643    0.257835
    100          1           0       -1.122434   -6.893691    0.391892
    101          1           0       -2.249787   -6.465914   -0.961532
    102          1           0        2.770588   -4.409088   -0.361618
    103          1           0        2.896327   -2.894134    0.579347
    104          1           0        3.595487   -2.282634   -2.126905
    105          1           0        6.903325   -3.320935    0.049637
    106          1           0        6.086232   -4.963899   -0.261985
    107          1           0        5.307378   -3.934223    0.821310
    108          1           0        5.707402   -2.602715   -3.099946
    109          1           0        7.061536   -3.047292   -2.066627
    110          1           0        7.140536   -0.800922   -1.084015
    111          1           0        5.460406   -0.614930   -1.122223
    112          1           0        5.834039    0.738329   -2.945485
    113          1           0        6.534997   -0.614651   -3.850142
    114          1           0        7.817937    1.531857   -2.155501
    115          1           0        8.780050    1.003432   -4.977607
    116          1           0        8.919997    2.312896   -3.940404
    117          1           0        7.275261    2.026958   -4.494515
    118          1           0       10.097170    0.103438   -3.249637
    119          1           0        8.992357   -1.102351   -2.634506
    120          1           0        9.754355   -0.840416   -0.625375
    121          1           0        9.143842    0.829463   -0.612529
    122          1           0       11.764918    0.733584   -1.906334
    123          1           0       11.785581    0.011226   -0.377405
    124          1           0       10.170238    2.548865   -0.095568
    125          1           0       12.184777    2.863360   -2.228991
    126          1           0       12.366068    4.028977   -0.927605
    127          1           0       10.857855    3.889896   -1.644760
    128          1           0       12.313060    3.135585    1.097238
    129          1           0       12.543347    1.441330    1.142084
    130          1           0        9.785900    2.474561    2.119512
    131          1           0       11.241110    2.934290    2.826206
    132          1           0       11.528558    0.081124    2.618364
    133          1           0        9.831654    0.317834    2.809759
    134          1           0       11.155491    2.104565    4.666490
    135          1           0       13.081975    0.323925    4.063891
    136          1           0       12.293715   -0.525014    5.451401
    137          1           0       12.948459    1.082706    5.596201
    138          1           0        9.356965   -0.299526    4.861881
    139          1           0        9.278695    1.433130    5.492897
    140          1           0       10.225654    0.173432    6.239864
 ---------------------------------------------------------------------

 SCF Done:  E(RZINDO/S) =  -474.362218169     A.U. after   19 cycles

 Excitation energies and oscillator strengths:

 Excited State   1:      Singlet-A      1.2515 eV  990.70 nm  f=0.5732  <S**2>=0.000
     175 ->178         0.14493
     176 ->177         0.67407
 This state for optimization and/or second-order correction.
 Total Energy, E(CIS/TDA) =  -474.316227322
 Copying the excited state density for this state as the 1-particle RhoCI density.

 Excited State   2:      Singlet-A      1.9929 eV  622.14 nm  f=0.0615  <S**2>=0.000
     175 ->177         0.55426
     176 ->178        -0.39492

 Excited State   3:      Singlet-A      2.9996 eV  413.34 nm  f=0.0063  <S**2>=0.000
     167 ->177        -0.28139
     167 ->178         0.16118
     167 ->179         0.47809
     167 ->180         0.10423
     167 ->186         0.19334
     168 ->177        -0.11387
     168 ->179         0.15173

 Excited State   4:      Singlet-A      3.0221 eV  410.26 nm  f=0.9189  <S**2>=0.000
     170 ->177        -0.10280
     175 ->177         0.37085
     176 ->178         0.53167

 Excited State   5:      Singlet-A      3.0925 eV  400.92 nm  f=0.0419  <S**2>=0.000
     171 ->177         0.24308
     171 ->179         0.15693
     171 ->180        -0.29564
     171 ->181         0.28699
     171 ->186         0.18567
     171 ->188         0.17198
     171 ->203        -0.12190
     176 ->178         0.14829
     176 ->179         0.24349

 The electronic state is 1-A.
 Alpha  occ. eigenvalues --   -1.86607  -1.81637  -1.80858  -1.74021  -1.71387
 Alpha  occ. eigenvalues --   -1.70654  -1.65842  -1.62089  -1.58490  -1.58071
 Alpha  occ. eigenvalues --   -1.55323  -1.51724  -1.48205  -1.47294  -1.46637
 Alpha  occ. eigenvalues --   -1.44539  -1.43725  -1.39620  -1.38543  -1.38012
 Alpha  occ. eigenvalues --   -1.36855  -1.34414  -1.33316  -1.31608  -1.29393
 Alpha  occ. eigenvalues --   -1.28758  -1.25353  -1.23253  -1.22462  -1.18668
 Alpha  occ. eigenvalues --   -1.17027  -1.16459  -1.14402  -1.14044  -1.13585
 Alpha  occ. eigenvalues --   -1.12323  -1.12124  -1.10497  -1.05151  -1.03932
 Alpha  occ. eigenvalues --   -1.03106  -1.01170  -0.98686  -0.97935  -0.97221
 Alpha  occ. eigenvalues --   -0.96774  -0.95282  -0.94888  -0.92854  -0.92414
 Alpha  occ. eigenvalues --   -0.91577  -0.91079  -0.89738  -0.88549  -0.88272
 Alpha  occ. eigenvalues --   -0.85766  -0.85197  -0.83920  -0.82130  -0.80498
 Alpha  occ. eigenvalues --   -0.79023  -0.78177  -0.77863  -0.76803  -0.76348
 Alpha  occ. eigenvalues --   -0.75259  -0.74438  -0.73816  -0.73729  -0.73479
 Alpha  occ. eigenvalues --   -0.72967  -0.72680  -0.72295  -0.71191  -0.70931
 Alpha  occ. eigenvalues --   -0.70452  -0.69572  -0.69365  -0.68234  -0.67531
 Alpha  occ. eigenvalues --   -0.67201  -0.66699  -0.66163  -0.66006  -0.65209
 Alpha  occ. eigenvalues --   -0.64987  -0.64920  -0.64748  -0.64301  -0.63375
 Alpha  occ. eigenvalues --   -0.63216  -0.63090  -0.62277  -0.62191  -0.62127
 Alpha  occ. eigenvalues --   -0.61839  -0.61254  -0.61072  -0.60785  -0.60455
 Alpha  occ. eigenvalues --   -0.60209  -0.59708  -0.59570  -0.59371  -0.59308
 Alpha  occ. eigenvalues --   -0.58660  -0.57967  -0.57727  -0.57150  -0.56771
 Alpha  occ. eigenvalues --   -0.55867  -0.55795  -0.55601  -0.55238  -0.54536
 Alpha  occ. eigenvalues --   -0.54382  -0.54159  -0.53794  -0.53527  -0.53348
 Alpha  occ. eigenvalues --   -0.52732  -0.52402  -0.52259  -0.51998  -0.51598
 Alpha  occ. eigenvalues --   -0.51336  -0.51175  -0.50793  -0.50714  -0.50446
 Alpha  occ. eigenvalues --   -0.50387  -0.49975  -0.49650  -0.49412  -0.49231
 Alpha  occ. eigenvalues --   -0.49001  -0.48889  -0.48588  -0.48390  -0.48168
 Alpha  occ. eigenvalues --   -0.48012  -0.47483  -0.47388  -0.46422  -0.46306
 Alpha  occ. eigenvalues --   -0.46086  -0.46014  -0.45707  -0.45425  -0.44933
 Alpha  occ. eigenvalues --   -0.44184  -0.44165  -0.43958  -0.43865  -0.43434
 Alpha  occ. eigenvalues --   -0.43161  -0.43002  -0.42131  -0.41963  -0.41724
 Alpha  occ. eigenvalues --   -0.41442  -0.40988  -0.40285  -0.39160  -0.38850
 Alpha  occ. eigenvalues --   -0.37599  -0.37392  -0.36427  -0.34905  -0.34073
 Alpha  occ. eigenvalues --   -0.33632  -0.32663  -0.32415  -0.31293  -0.27054
 Alpha  occ. eigenvalues --   -0.21822
 Alpha virt. eigenvalues --   -0.08691  -0.01661  -0.00981   0.01605   0.01842
 Alpha virt. eigenvalues --    0.01999   0.02905   0.03770   0.03851   0.04469
 Alpha virt. eigenvalues --    0.05152   0.06158   0.07351   0.07671   0.08486

 Mulliken charges:
               1
     1  Mg   0.415761
     2  C   -0.042592
     3  C   -0.097368
     4  C   -0.052119
     5  C   -0.058282
     6  N   -0.308396
     7  C    0.103590
     8  C    0.003007
     9  C    0.012914
    10  C    0.169568
    11  C   -0.044040
    12  C   -0.014934
    13  C   -0.003884
    14  C    0.474651
    15  O   -0.521898
    16  O   -0.273820
    17  N   -0.328738
    18  C    0.156257
    19  C    0.008619
    20  C   -0.035710
    21  C    0.137340
    22  C   -0.049751
    23  C    0.340565
    24  O   -0.506306
    25  C   -0.026124
    26  N   -0.289140
    27  C    0.189543
    28  C    0.005000
    29  C    0.002073
    30  C    0.068764
    31  C   -0.054324
    32  C   -0.028829
    33  C   -0.059956
    34  N   -0.308773
    35  C    0.068578
    36  C    0.013152
    37  C   -0.074768
    38  C    0.112260
    39  C   -0.032688
    40  C    0.332503
    41  O   -0.530958
    42  C    0.059518
    43  C    0.483378
    44  O   -0.493836
    45  O   -0.278381
    46  C    0.069774
    47  C    0.101743
    48  C   -0.066143
    49  C   -0.051577
    50  C   -0.050652
    51  C   -0.029292
    52  C   -0.036775
    53  C   -0.040580
    54  C   -0.000009
    55  C   -0.059824
    56  C   -0.027820
    57  C   -0.042238
    58  C   -0.033882
    59  C   -0.015526
    60  C   -0.064678
    61  C   -0.026076
    62  C   -0.043329
    63  C   -0.028234
    64  C   -0.001317
    65  C   -0.058386
    66  C   -0.058080
    67  H    0.037136
    68  H    0.047648
    69  H    0.026766
    70  H    0.032431
    71  H    0.021816
    72  H    0.017017
    73  H    0.029567
    74  H    0.021178
    75  H    0.018192
    76  H    0.041189
    77  H    0.041477
    78  H    0.037707
    79  H    0.031912
    80  H    0.027582
    81  H    0.027306
    82  H    0.042374
    83  H    0.037390
    84  H    0.033001
    85  H    0.039580
    86  H    0.046603
    87  H    0.013463
    88  H    0.022008
    89  H    0.027530
    90  H    0.030719
    91  H    0.008791
    92  H    0.019645
    93  H    0.023689
    94  H    0.013486
    95  H    0.037005
    96  H    0.014053
    97  H    0.033289
    98  H    0.056329
    99  H    0.033269
   100  H    0.037874
   101  H    0.052255
   102  H    0.063624
   103  H    0.056659
   104  H    0.033183
   105  H    0.043576
   106  H    0.033701
   107  H    0.019546
   108  H    0.020049
   109  H    0.023408
   110  H    0.013173
   111  H    0.024498
   112  H    0.012729
   113  H    0.021603
   114  H    0.017902
   115  H    0.029900
   116  H    0.005100
   117  H    0.022583
   118  H    0.024624
   119  H    0.014072
   120  H    0.016939
   121  H    0.019611
   122  H    0.018796
   123  H    0.018121
   124  H    0.023980
   125  H    0.020639
   126  H    0.020042
   127  H    0.011044
   128  H    0.007867
   129  H    0.017144
   130  H    0.023540
   131  H    0.008985
   132  H    0.018079
   133  H    0.015140
   134  H    0.021574
   135  H    0.015727
   136  H    0.023313
   137  H    0.011695
   138  H    0.023261
   139  H    0.018504
   140  H    0.006261
 Sum of Mulliken charges =  -0.00000

 Dipole moment (field-independent basis, Debye):
    X=              9.8335    Y=             10.1053    Z=             -0.1985  Tot=             14.1016
 N-N= 4.397364388723D+03 E-N= 0.000000000000D+00  KE=-9.468748736258D+03
 Leave Link  601 at Wed May  4 05:56:15 2022, MaxMem=  6710886400 cpu:               1.0 elap:               0.1
 (Enter /sw/apps/gaussian-16.0/g16/l9999.exe)
 1\1\GINC-BP1-COMPUTE097\SP\RZINDO CIS\STO-3G\C55H74Mg1N4O6\OF15641\04-
 May-2022\0\\#p ZINDO=(nstates=5)\\step_1401_chromophore_15 ZINDO\\0,1\
 Mg,0,46.503,35.441,28.694\C,0,44.553,33.621,30.967\C,0,46.562,38.151,3
 0.82\C,0,47.631,37.37,26.05\C,0,45.845,32.914,26.306\N,0,45.653,35.776
 ,30.557\C,0,45.124,34.798,31.387\C,0,45.452,35.208,32.819\C,0,45.577,3
 6.747,32.679\C,0,45.984,36.954,31.252\C,0,44.345,37.453,33.188\C,0,46.
 753,34.497,33.316\C,0,47.115,34.795,34.782\C,0,46.083,35.393,35.726\O,

 Normal termination of Gaussian 16 at Wed May  4 05:56:15 2022.
