 Gaussian 16, Revision A.03,
 Gaussian 16:  ES64L-G16RevA.03 25-Dec-2016

 ------------------------------
 #p blyp/Def2SVP td=(nstates=5)
 ------------------------------

 --------------------------------------------------
 step_101_chromophore_13 TDDFT with blyp functional
 --------------------------------------------------
 Symbolic Z-matrix:
 Charge =  0 Multiplicity = 1

                         Standard orientation:
 ---------------------------------------------------------------------
 Center     Atomic      Atomic             Coordinates (Angstroms)
 Number     Number       Type             X           Y           Z
 ---------------------------------------------------------------------
      1         12           0       -5.628519    0.518234   -0.096932
      2          6           0       -3.684819   -2.441612    0.043846
      3          6           0       -2.885715    2.353243    0.582018
      4          6           0       -7.680023    3.120681    0.296722
      5          6           0       -8.330579   -1.608683   -0.480324
      6          7           0       -3.504196    0.015664    0.223066
      7          6           0       -2.912751   -1.275137    0.269164
      8          6           0       -1.351597   -1.128317    0.347142
      9          6           0       -1.121243    0.397786    0.625417
     10          6           0       -2.568970    1.014890    0.424284
     11          6           0       -0.477732    0.910150    1.904358
     12          6           0       -0.618180   -1.675517   -0.964596
     13          6           0        0.304810   -2.842751   -0.725581
     14          6           0        1.676897   -2.765260   -1.441027
     15          8           0        1.869693   -2.997606   -2.643308
     16          8           0        2.639988   -2.413923   -0.599100
     17          7           0       -5.286040    2.505818    0.256282
     18          6           0       -4.094490    3.111400    0.517893
     19          6           0       -4.212369    4.517313    0.615543
     20          6           0       -5.612939    4.749240    0.548412
     21          6           0       -6.294864    3.475771    0.293218
     22          6           0       -2.951486    5.479968    0.747866
     23          6           0       -6.390922    6.070012    0.546065
     24          8           0       -7.618018    6.088491    0.408077
     25          6           0       -5.749186    7.350419    0.692969
     26          7           0       -7.749452    0.701313   -0.096735
     27          6           0       -8.298505    1.871275    0.111934
     28          6           0       -9.912287    1.809748    0.025627
     29          6           0       -9.969447    0.314323   -0.577763
     30          6           0       -8.628726   -0.248735   -0.390404
     31          6           0      -10.578997    1.995599    1.471427
     32          6           0      -10.358663    0.338242   -2.072288
     33          6           0       -9.336018    0.958880   -2.994560
     34          7           0       -5.979931   -1.607153   -0.266659
     35          6           0       -7.151166   -2.297838   -0.305321
     36          6           0       -6.927313   -3.737095   -0.276703
     37          6           0       -5.521857   -3.810364   -0.178205
     38          6           0       -5.033574   -2.534240   -0.176380
     39          6           0       -7.983383   -4.871864   -0.245396
     40          6           0       -4.362005   -4.715598   -0.096797
     41          8           0       -4.273555   -5.932629   -0.135971
     42          6           0       -3.118800   -3.870116    0.094980
     43          6           0       -2.549609   -4.243002    1.406406
     44          8           0       -2.985870   -3.870540    2.494771
     45          8           0       -1.330231   -4.904614    1.148034
     46          6           0       -0.590719   -5.279848    2.396921
     47          6           0        3.978667   -2.272658   -1.176406
     48          6           0        4.877264   -1.402069   -0.351191
     49          6           0        6.227376   -1.473602   -0.438212
     50          6           0        7.127092   -2.329010   -1.343809
     51          6           0        7.093476   -0.637046    0.505425
     52          6           0        7.144632    0.957947    0.372857
     53          6           0        8.562404    1.642000    0.252038
     54          6           0        8.535891    2.703534   -0.843903
     55          6           0        7.256744    3.629776   -0.849310
     56          6           0        8.780966    1.977589   -2.296838
     57          6           0       10.184857    2.030928   -2.756321
     58          6           0       11.093157    0.708971   -2.468532
     59          6           0       12.441580    1.047960   -1.790276
     60          6           0       13.507368    1.317107   -2.875139
     61          6           0       12.975225    0.057348   -0.685351
     62          6           0       13.542395    0.551932    0.628660
     63          6           0       13.339120   -0.359921    1.899398
     64          6           0       12.647414    0.426491    3.040294
     65          6           0       12.704963   -0.147582    4.476058
     66          6           0       11.217132    0.833572    2.651207
     67          1           0       -1.962244    2.934162    0.528602
     68          1           0       -8.317179    3.964192    0.574017
     69          1           0       -9.240258   -2.212366   -0.462859
     70          1           0       -0.995905   -1.579700    1.274124
     71          1           0       -0.520435    0.882184   -0.144755
     72          1           0        0.583428    1.049312    1.696299
     73          1           0       -0.567822    0.123492    2.654270
     74          1           0       -0.839935    1.908634    2.147312
     75          1           0       -0.069733   -0.864785   -1.446801
     76          1           0       -1.307426   -2.113898   -1.685881
     77          1           0       -0.141480   -3.729146   -1.176130
     78          1           0        0.449905   -3.019936    0.340127
     79          1           0       -3.173436    6.382349    1.316977
     80          1           0       -2.473420    5.752522   -0.192794
     81          1           0       -2.099969    4.965720    1.195005
     82          1           0       -5.665539    7.538346    1.763406
     83          1           0       -6.347780    8.191146    0.342300
     84          1           0       -4.795241    7.450050    0.175394
     85          1           0      -10.388357    2.514000   -0.657633
     86          1           0      -10.657460   -0.284203    0.018825
     87          1           0       -9.788610    1.930883    2.219428
     88          1           0      -11.236576    1.179408    1.768250
     89          1           0      -11.098084    2.953859    1.495366
     90          1           0      -11.280634    0.916335   -2.126939
     91          1           0      -10.566629   -0.660980   -2.454152
     92          1           0       -9.813511    1.488738   -3.818609
     93          1           0       -8.737233    0.131045   -3.375523
     94          1           0       -8.810820    1.757009   -2.469006
     95          1           0       -7.696421   -5.602823    0.510787
     96          1           0       -7.932557   -5.299641   -1.246166
     97          1           0       -9.013349   -4.585993   -0.031504
     98          1           0       -2.455941   -4.149812   -0.724347
     99          1           0        0.042232   -6.135916    2.159509
    100          1           0       -1.228808   -5.588812    3.224870
    101          1           0        0.106451   -4.493198    2.685305
    102          1           0        3.910941   -1.849148   -2.178008
    103          1           0        4.374741   -3.286284   -1.229696
    104          1           0        4.349897   -0.702931    0.297061
    105          1           0        7.566989   -3.099562   -0.709661
    106          1           0        7.925980   -1.697178   -1.732399
    107          1           0        6.605692   -2.854540   -2.143563
    108          1           0        8.074230   -1.093813    0.638425
    109          1           0        6.628729   -0.703415    1.488365
    110          1           0        6.690042    1.305239    1.300319
    111          1           0        6.494062    1.221663   -0.460972
    112          1           0        9.209110    0.803270   -0.002786
    113          1           0        8.911893    2.017703    1.214358
    114          1           0        9.377391    3.322943   -0.532858
    115          1           0        6.443501    3.429141   -0.152250
    116          1           0        6.851228    3.621970   -1.861241
    117          1           0        7.556238    4.649146   -0.605554
    118          1           0        8.203547    2.294896   -3.165102
    119          1           0        8.542213    0.940359   -2.067124
    120          1           0       10.618633    2.946599   -2.353587
    121          1           0       10.173818    2.098898   -3.844639
    122          1           0       11.379945    0.160015   -3.365082
    123          1           0       10.508770    0.030566   -1.848256
    124          1           0       12.411113    2.023177   -1.304110
    125          1           0       14.423586    0.858826   -2.501894
    126          1           0       13.656840    2.371367   -3.110585
    127          1           0       13.249212    0.994502   -3.883522
    128          1           0       13.763872   -0.537061   -1.147758
    129          1           0       12.203024   -0.701568   -0.566144
    130          1           0       13.082444    1.527562    0.782777
    131          1           0       14.597325    0.818229    0.556585
    132          1           0       14.310525   -0.657987    2.295562
    133          1           0       12.739136   -1.221347    1.607471
    134          1           0       13.232835    1.340207    2.936470
    135          1           0       13.415548   -0.970362    4.548443
    136          1           0       11.811012   -0.263192    5.089154
    137          1           0       13.163794    0.644267    5.068134
    138          1           0       10.705533   -0.100180    2.416007
    139          1           0       11.140353    1.642593    1.924866
    140          1           0       10.737546    1.164121    3.572116
 ---------------------------------------------------------------------

 SCF Done:  E(RB-LYP) =  -3007.36275574     A.U. after   20 cycles

 Excitation energies and oscillator strengths:

 Excited State   1:      Singlet-A      1.8669 eV  664.11 nm  f=0.2616  <S**2>=0.000
     244 -> 247        0.24396
     245 -> 247       -0.12643
     245 -> 248       -0.18972
     246 -> 247        0.62950
     246 <- 247       -0.12863
 This state for optimization and/or second-order correction.
 Total Energy, E(TD-HF/TD-DFT) =  -3007.29414718
 Copying the excited state density for this state as the 1-particle RhoCI density.

 Excited State   2:      Singlet-A      1.8846 eV  657.90 nm  f=0.0642  <S**2>=0.000
     244 -> 247        0.58442
     245 -> 247       -0.27541
     246 -> 247       -0.26515

 Excited State   3:      Singlet-A      1.9908 eV  622.78 nm  f=0.0114  <S**2>=0.000
     243 -> 247        0.64247
     244 -> 247        0.15462
     245 -> 247        0.23361

 Excited State   4:      Singlet-A      2.0227 eV  612.98 nm  f=0.0615  <S**2>=0.000
     243 -> 247       -0.29158
     244 -> 247        0.26896
     245 -> 247        0.53725
     246 -> 248        0.19968

 Excited State   5:      Singlet-A      2.2400 eV  553.51 nm  f=0.0006  <S**2>=0.000
     242 -> 247        0.70676

 The electronic state is 1-A.
 Alpha  occ. eigenvalues --  -46.27130 -18.82579 -18.82578 -18.77498 -18.75795
 Alpha  occ. eigenvalues --  -18.75582 -18.75074 -14.03190 -14.03019 -14.00885
 Alpha  occ. eigenvalues --  -14.00317 -10.04324 -10.03549  -9.99525  -9.99461
 Alpha  occ. eigenvalues --   -9.97803  -9.97704  -9.97129  -9.96349  -9.96301
 Alpha  occ. eigenvalues --   -9.95803  -9.95766  -9.95410  -9.95139  -9.95085
 Alpha  occ. eigenvalues --   -9.94296  -9.94224  -9.94153  -9.94139  -9.93897
 Alpha  occ. eigenvalues --   -9.93731  -9.93619  -9.93528  -9.93428  -9.93427
 Alpha  occ. eigenvalues --   -9.93153  -9.93004  -9.92919  -9.92912  -9.92799
 Alpha  occ. eigenvalues --   -9.92696  -9.92488  -9.92445  -9.92361  -9.92275
 Alpha  occ. eigenvalues --   -9.92173  -9.92173  -9.92149  -9.92139  -9.91869
 Alpha  occ. eigenvalues --   -9.91799  -9.91777  -9.91684  -9.91673  -9.91524
 Alpha  occ. eigenvalues --   -9.91506  -9.91492  -9.91469  -9.91456  -9.91371
 Alpha  occ. eigenvalues --   -9.91294  -9.91168  -9.91066  -9.91009  -9.90886
 Alpha  occ. eigenvalues --   -9.90518  -2.91698  -1.72139  -1.71554  -1.71426
 Alpha  occ. eigenvalues --   -0.98853  -0.96500  -0.91536  -0.90965  -0.89736
 Alpha  occ. eigenvalues --   -0.88735  -0.87981  -0.86986  -0.85059  -0.83450
 Alpha  occ. eigenvalues --   -0.76209  -0.73354  -0.72841  -0.72595  -0.72461
 Alpha  occ. eigenvalues --   -0.72021  -0.71161  -0.70845  -0.70624  -0.69793
 Alpha  occ. eigenvalues --   -0.69397  -0.69232  -0.68069  -0.67568  -0.66962
 Alpha  occ. eigenvalues --   -0.66475  -0.66068  -0.65617  -0.65320  -0.64447
 Alpha  occ. eigenvalues --   -0.63881  -0.62619  -0.62227  -0.62111  -0.60941
 Alpha  occ. eigenvalues --   -0.60606  -0.60413  -0.59999  -0.59639  -0.59262
 Alpha  occ. eigenvalues --   -0.58607  -0.57925  -0.56732  -0.55432  -0.54619
 Alpha  occ. eigenvalues --   -0.54158  -0.53861  -0.53140  -0.52785  -0.51307
 Alpha  occ. eigenvalues --   -0.51066  -0.50897  -0.50582  -0.50288  -0.49746
 Alpha  occ. eigenvalues --   -0.49673  -0.48539  -0.48236  -0.48210  -0.46656
 Alpha  occ. eigenvalues --   -0.46500  -0.46027  -0.45800  -0.45053  -0.44590
 Alpha  occ. eigenvalues --   -0.43987  -0.43385  -0.43200  -0.42821  -0.42413
 Alpha  occ. eigenvalues --   -0.42108  -0.42044  -0.41782  -0.41334  -0.41064
 Alpha  occ. eigenvalues --   -0.40900  -0.40754  -0.40601  -0.40483  -0.40256
 Alpha  occ. eigenvalues --   -0.39910  -0.39711  -0.39555  -0.39340  -0.39241
 Alpha  occ. eigenvalues --   -0.38820  -0.38686  -0.38576  -0.38556  -0.38325
 Alpha  occ. eigenvalues --   -0.37975  -0.37881  -0.37683  -0.37295  -0.37120
 Alpha  occ. eigenvalues --   -0.36929  -0.36805  -0.36736  -0.36591  -0.36446
 Alpha  occ. eigenvalues --   -0.36195  -0.36183  -0.35980  -0.35754  -0.35624
 Alpha  occ. eigenvalues --   -0.35575  -0.35254  -0.34943  -0.34793  -0.34527
 Alpha  occ. eigenvalues --   -0.34387  -0.34342  -0.34094  -0.33838  -0.33722
 Alpha  occ. eigenvalues --   -0.33316  -0.33284  -0.33225  -0.33140  -0.32844
 Alpha  occ. eigenvalues --   -0.32734  -0.32612  -0.32349  -0.32310  -0.32274
 Alpha  occ. eigenvalues --   -0.32186  -0.31905  -0.31863  -0.31507  -0.31470
 Alpha  occ. eigenvalues --   -0.31303  -0.31092  -0.31065  -0.30972  -0.30641
 Alpha  occ. eigenvalues --   -0.30406  -0.30358  -0.30258  -0.30023  -0.29834
 Alpha  occ. eigenvalues --   -0.29733  -0.29564  -0.29530  -0.29506  -0.28950
 Alpha  occ. eigenvalues --   -0.28899  -0.28625  -0.28265  -0.28149  -0.27856
 Alpha  occ. eigenvalues --   -0.27236  -0.27162  -0.26906  -0.26690  -0.26659
 Alpha  occ. eigenvalues --   -0.26491  -0.26274  -0.25885  -0.25454  -0.25229
 Alpha  occ. eigenvalues --   -0.25147  -0.24938  -0.24745  -0.24291  -0.23932
 Alpha  occ. eigenvalues --   -0.23425  -0.22603  -0.22110  -0.21173  -0.20910
 Alpha  occ. eigenvalues --   -0.20530  -0.19722  -0.18725  -0.18394  -0.17065
 Alpha  occ. eigenvalues --   -0.16026
 Alpha virt. eigenvalues --   -0.11493  -0.06917  -0.06037  -0.04491  -0.03281
 Alpha virt. eigenvalues --   -0.02368  -0.02228  -0.01622  -0.00864   0.00271
 Alpha virt. eigenvalues --    0.01247   0.01301   0.01757   0.02247   0.02438

 Mulliken charges:
               1
     1  Mg   0.686228
     2  C    0.000453
     3  C   -0.057184
     4  C   -0.014899
     5  C   -0.082949
     6  N   -0.253711
     7  C   -0.089364
     8  C    0.088038
     9  C   -0.040358
    10  C   -0.006247
    11  C    0.147401
    12  C    0.128610
    13  C    0.133652
    14  C    0.031575
    15  O   -0.222744
    16  O   -0.240422
    17  N   -0.316961
    18  C    0.134799
    19  C   -0.099395
    20  C    0.012498
    21  C    0.080347
    22  C    0.144822
    23  C   -0.066885
    24  O   -0.181549
    25  C    0.151328
    26  N   -0.156183
    27  C    0.025170
    28  C   -0.044429
    29  C    0.062132
    30  C   -0.013266
    31  C    0.117242
    32  C    0.083566
    33  C    0.070937
    34  N   -0.200065
    35  C    0.112721
    36  C   -0.186327
    37  C    0.094244
    38  C    0.094270
    39  C    0.168263
    40  C   -0.107894
    41  O   -0.127001
    42  C    0.104892
    43  C    0.145381
    44  O   -0.180515
    45  O   -0.296994
    46  C    0.208157
    47  C    0.288548
    48  C   -0.091371
    49  C   -0.127770
    50  C    0.130316
    51  C    0.108259
    52  C    0.036416
    53  C    0.072698
    54  C   -0.064578
    55  C    0.104821
    56  C    0.098817
    57  C    0.077030
    58  C    0.103870
    59  C   -0.091082
    60  C    0.095609
    61  C    0.106956
    62  C    0.071258
    63  C    0.121348
    64  C   -0.112958
    65  C    0.131893
    66  C    0.080136
    67  H   -0.054729
    68  H   -0.038311
    69  H   -0.067406
    70  H   -0.019930
    71  H   -0.027144
    72  H   -0.021333
    73  H   -0.002500
    74  H   -0.006241
    75  H   -0.004803
    76  H   -0.003853
    77  H    0.005569
    78  H   -0.012220
    79  H    0.003740
    80  H    0.000819
    81  H   -0.013736
    82  H    0.013479
    83  H   -0.013187
    84  H   -0.000959
    85  H   -0.011768
    86  H   -0.043840
    87  H   -0.005728
    88  H   -0.011370
    89  H    0.011400
    90  H   -0.025881
    91  H   -0.025366
    92  H   -0.015168
    93  H    0.005254
    94  H    0.005763
    95  H    0.017677
    96  H    0.011496
    97  H   -0.010412
    98  H    0.001192
    99  H    0.011140
   100  H    0.030779
   101  H    0.015262
   102  H    0.015455
   103  H    0.003058
   104  H   -0.035466
   105  H    0.005751
   106  H    0.014151
   107  H   -0.009203
   108  H   -0.034012
   109  H   -0.034265
   110  H   -0.028285
   111  H   -0.014398
   112  H   -0.026786
   113  H   -0.012338
   114  H   -0.037430
   115  H   -0.007132
   116  H   -0.017362
   117  H   -0.020878
   118  H   -0.026759
   119  H   -0.029210
   120  H   -0.021880
   121  H   -0.035679
   122  H   -0.027887
   123  H   -0.034775
   124  H   -0.035809
   125  H   -0.014799
   126  H   -0.024743
   127  H   -0.026005
   128  H   -0.044710
   129  H   -0.050228
   130  H   -0.037736
   131  H   -0.033599
   132  H   -0.034937
   133  H   -0.031283
   134  H   -0.036455
   135  H   -0.020581
   136  H   -0.012646
   137  H   -0.029113
   138  H   -0.012816
   139  H    0.009753
   140  H   -0.028254
 Sum of Mulliken charges =  -0.00000

 Dipole moment (field-independent basis, Debye):
    X=              3.3572    Y=              3.5591    Z=              1.1951  Tot=              5.0364
 Quadrupole moment (field-independent basis, Debye-Ang):
   XX=           -371.6527   YY=           -425.4668   ZZ=           -410.6756
   XY=              6.4668   XZ=             15.6305   YZ=             -5.2387

 Normal termination of Gaussian 16 at Wed Apr 27 00:25:22 2022.
