 Gaussian 16, Revision A.03,
 Gaussian 16:  ES64L-G16RevA.03 25-Dec-2016

 -----------------------------------
 #p cam-b3lyp/Def2SVP td=(nstates=5)
 -----------------------------------

 -------------------------------------------------------
 step_101_chromophore_13 TDDFT with cam-b3lyp functional
 -------------------------------------------------------
 Symbolic Z-matrix:
 Charge =  0 Multiplicity = 1

                         Standard orientation:
 ---------------------------------------------------------------------
 Center     Atomic      Atomic             Coordinates (Angstroms)
 Number     Number       Type             X           Y           Z
 ---------------------------------------------------------------------
      1         12           0       -5.628519    0.518234   -0.096932
      2          6           0       -3.684819   -2.441612    0.043846
      3          6           0       -2.885715    2.353243    0.582018
      4          6           0       -7.680023    3.120681    0.296722
      5          6           0       -8.330579   -1.608683   -0.480324
      6          7           0       -3.504196    0.015664    0.223066
      7          6           0       -2.912751   -1.275137    0.269164
      8          6           0       -1.351597   -1.128317    0.347142
      9          6           0       -1.121243    0.397786    0.625417
     10          6           0       -2.568970    1.014890    0.424284
     11          6           0       -0.477732    0.910150    1.904358
     12          6           0       -0.618180   -1.675517   -0.964596
     13          6           0        0.304810   -2.842751   -0.725581
     14          6           0        1.676897   -2.765260   -1.441027
     15          8           0        1.869693   -2.997606   -2.643308
     16          8           0        2.639988   -2.413923   -0.599100
     17          7           0       -5.286040    2.505818    0.256282
     18          6           0       -4.094490    3.111400    0.517893
     19          6           0       -4.212369    4.517313    0.615543
     20          6           0       -5.612939    4.749240    0.548412
     21          6           0       -6.294864    3.475771    0.293218
     22          6           0       -2.951486    5.479968    0.747866
     23          6           0       -6.390922    6.070012    0.546065
     24          8           0       -7.618018    6.088491    0.408077
     25          6           0       -5.749186    7.350419    0.692969
     26          7           0       -7.749452    0.701313   -0.096735
     27          6           0       -8.298505    1.871275    0.111934
     28          6           0       -9.912287    1.809748    0.025627
     29          6           0       -9.969447    0.314323   -0.577763
     30          6           0       -8.628726   -0.248735   -0.390404
     31          6           0      -10.578997    1.995599    1.471427
     32          6           0      -10.358663    0.338242   -2.072288
     33          6           0       -9.336018    0.958880   -2.994560
     34          7           0       -5.979931   -1.607153   -0.266659
     35          6           0       -7.151166   -2.297838   -0.305321
     36          6           0       -6.927313   -3.737095   -0.276703
     37          6           0       -5.521857   -3.810364   -0.178205
     38          6           0       -5.033574   -2.534240   -0.176380
     39          6           0       -7.983383   -4.871864   -0.245396
     40          6           0       -4.362005   -4.715598   -0.096797
     41          8           0       -4.273555   -5.932629   -0.135971
     42          6           0       -3.118800   -3.870116    0.094980
     43          6           0       -2.549609   -4.243002    1.406406
     44          8           0       -2.985870   -3.870540    2.494771
     45          8           0       -1.330231   -4.904614    1.148034
     46          6           0       -0.590719   -5.279848    2.396921
     47          6           0        3.978667   -2.272658   -1.176406
     48          6           0        4.877264   -1.402069   -0.351191
     49          6           0        6.227376   -1.473602   -0.438212
     50          6           0        7.127092   -2.329010   -1.343809
     51          6           0        7.093476   -0.637046    0.505425
     52          6           0        7.144632    0.957947    0.372857
     53          6           0        8.562404    1.642000    0.252038
     54          6           0        8.535891    2.703534   -0.843903
     55          6           0        7.256744    3.629776   -0.849310
     56          6           0        8.780966    1.977589   -2.296838
     57          6           0       10.184857    2.030928   -2.756321
     58          6           0       11.093157    0.708971   -2.468532
     59          6           0       12.441580    1.047960   -1.790276
     60          6           0       13.507368    1.317107   -2.875139
     61          6           0       12.975225    0.057348   -0.685351
     62          6           0       13.542395    0.551932    0.628660
     63          6           0       13.339120   -0.359921    1.899398
     64          6           0       12.647414    0.426491    3.040294
     65          6           0       12.704963   -0.147582    4.476058
     66          6           0       11.217132    0.833572    2.651207
     67          1           0       -1.962244    2.934162    0.528602
     68          1           0       -8.317179    3.964192    0.574017
     69          1           0       -9.240258   -2.212366   -0.462859
     70          1           0       -0.995905   -1.579700    1.274124
     71          1           0       -0.520435    0.882184   -0.144755
     72          1           0        0.583428    1.049312    1.696299
     73          1           0       -0.567822    0.123492    2.654270
     74          1           0       -0.839935    1.908634    2.147312
     75          1           0       -0.069733   -0.864785   -1.446801
     76          1           0       -1.307426   -2.113898   -1.685881
     77          1           0       -0.141480   -3.729146   -1.176130
     78          1           0        0.449905   -3.019936    0.340127
     79          1           0       -3.173436    6.382349    1.316977
     80          1           0       -2.473420    5.752522   -0.192794
     81          1           0       -2.099969    4.965720    1.195005
     82          1           0       -5.665539    7.538346    1.763406
     83          1           0       -6.347780    8.191146    0.342300
     84          1           0       -4.795241    7.450050    0.175394
     85          1           0      -10.388357    2.514000   -0.657633
     86          1           0      -10.657460   -0.284203    0.018825
     87          1           0       -9.788610    1.930883    2.219428
     88          1           0      -11.236576    1.179408    1.768250
     89          1           0      -11.098084    2.953859    1.495366
     90          1           0      -11.280634    0.916335   -2.126939
     91          1           0      -10.566629   -0.660980   -2.454152
     92          1           0       -9.813511    1.488738   -3.818609
     93          1           0       -8.737233    0.131045   -3.375523
     94          1           0       -8.810820    1.757009   -2.469006
     95          1           0       -7.696421   -5.602823    0.510787
     96          1           0       -7.932557   -5.299641   -1.246166
     97          1           0       -9.013349   -4.585993   -0.031504
     98          1           0       -2.455941   -4.149812   -0.724347
     99          1           0        0.042232   -6.135916    2.159509
    100          1           0       -1.228808   -5.588812    3.224870
    101          1           0        0.106451   -4.493198    2.685305
    102          1           0        3.910941   -1.849148   -2.178008
    103          1           0        4.374741   -3.286284   -1.229696
    104          1           0        4.349897   -0.702931    0.297061
    105          1           0        7.566989   -3.099562   -0.709661
    106          1           0        7.925980   -1.697178   -1.732399
    107          1           0        6.605692   -2.854540   -2.143563
    108          1           0        8.074230   -1.093813    0.638425
    109          1           0        6.628729   -0.703415    1.488365
    110          1           0        6.690042    1.305239    1.300319
    111          1           0        6.494062    1.221663   -0.460972
    112          1           0        9.209110    0.803270   -0.002786
    113          1           0        8.911893    2.017703    1.214358
    114          1           0        9.377391    3.322943   -0.532858
    115          1           0        6.443501    3.429141   -0.152250
    116          1           0        6.851228    3.621970   -1.861241
    117          1           0        7.556238    4.649146   -0.605554
    118          1           0        8.203547    2.294896   -3.165102
    119          1           0        8.542213    0.940359   -2.067124
    120          1           0       10.618633    2.946599   -2.353587
    121          1           0       10.173818    2.098898   -3.844639
    122          1           0       11.379945    0.160015   -3.365082
    123          1           0       10.508770    0.030566   -1.848256
    124          1           0       12.411113    2.023177   -1.304110
    125          1           0       14.423586    0.858826   -2.501894
    126          1           0       13.656840    2.371367   -3.110585
    127          1           0       13.249212    0.994502   -3.883522
    128          1           0       13.763872   -0.537061   -1.147758
    129          1           0       12.203024   -0.701568   -0.566144
    130          1           0       13.082444    1.527562    0.782777
    131          1           0       14.597325    0.818229    0.556585
    132          1           0       14.310525   -0.657987    2.295562
    133          1           0       12.739136   -1.221347    1.607471
    134          1           0       13.232835    1.340207    2.936470
    135          1           0       13.415548   -0.970362    4.548443
    136          1           0       11.811012   -0.263192    5.089154
    137          1           0       13.163794    0.644267    5.068134
    138          1           0       10.705533   -0.100180    2.416007
    139          1           0       11.140353    1.642593    1.924866
    140          1           0       10.737546    1.164121    3.572116
 ---------------------------------------------------------------------

 SCF Done:  E(RCAM-B3LYP) =  -3007.15400208     A.U. after   17 cycles

 Excitation energies and oscillator strengths:

 Excited State   1:      Singlet-A      1.7659 eV  702.09 nm  f=0.3917  <S**2>=0.000
     245 -> 248        0.19408
     246 -> 247        0.68143
     245 <- 248        0.10785
 This state for optimization and/or second-order correction.
 Total Energy, E(TD-HF/TD-DFT) =  -3007.08910500
 Copying the excited state density for this state as the 1-particle RhoCI density.

 Excited State   2:      Singlet-A      2.2043 eV  562.47 nm  f=0.1248  <S**2>=0.000
     245 -> 247        0.64819
     246 -> 248       -0.27062

 Excited State   3:      Singlet-A      3.4369 eV  360.74 nm  f=0.0222  <S**2>=0.000
     243 -> 247        0.66163
     246 -> 248        0.17165

 Excited State   4:      Singlet-A      3.5386 eV  350.38 nm  f=0.2413  <S**2>=0.000
     240 -> 247        0.13490
     242 -> 247        0.40947
     243 -> 247       -0.16924
     245 -> 247        0.15807
     246 -> 248        0.46730

 Excited State   5:      Singlet-A      3.5817 eV  346.16 nm  f=0.0002  <S**2>=0.000
     239 -> 247       -0.10169
     240 -> 247        0.50924
     240 -> 249       -0.33303
     240 -> 250        0.16478
     241 -> 247        0.20887

 The electronic state is 1-A.
 Alpha  occ. eigenvalues --  -46.88617 -19.25620 -19.25460 -19.20705 -19.18929
 Alpha  occ. eigenvalues --  -19.18707 -19.18266 -14.41997 -14.41885 -14.39299
 Alpha  occ. eigenvalues --  -14.38686 -10.39950 -10.38794 -10.34888 -10.34611
 Alpha  occ. eigenvalues --  -10.31908 -10.31793 -10.31753 -10.30725 -10.30707
 Alpha  occ. eigenvalues --  -10.30117 -10.30076 -10.29616 -10.29306 -10.29275
 Alpha  occ. eigenvalues --  -10.28758 -10.28720 -10.28348 -10.28144 -10.27989
 Alpha  occ. eigenvalues --  -10.27856 -10.27849 -10.27667 -10.27607 -10.27536
 Alpha  occ. eigenvalues --  -10.27391 -10.26989 -10.26745 -10.26679 -10.26629
 Alpha  occ. eigenvalues --  -10.26625 -10.26393 -10.26335 -10.26299 -10.26203
 Alpha  occ. eigenvalues --  -10.26160 -10.25976 -10.25916 -10.25871 -10.25649
 Alpha  occ. eigenvalues --  -10.25621 -10.25584 -10.25573 -10.25431 -10.25265
 Alpha  occ. eigenvalues --  -10.25230 -10.25210 -10.25203 -10.25178 -10.25133
 Alpha  occ. eigenvalues --  -10.24890 -10.24868 -10.24802 -10.24697 -10.24518
 Alpha  occ. eigenvalues --  -10.24120  -3.17088  -1.92008  -1.91521  -1.91407
 Alpha  occ. eigenvalues --   -1.17307  -1.15101  -1.10083  -1.09344  -1.07717
 Alpha  occ. eigenvalues --   -1.06588  -1.05753  -1.04668  -1.02571  -1.00934
 Alpha  occ. eigenvalues --   -0.93421  -0.90240  -0.89641  -0.89271  -0.89204
 Alpha  occ. eigenvalues --   -0.88734  -0.87743  -0.87433  -0.87178  -0.86353
 Alpha  occ. eigenvalues --   -0.85925  -0.85644  -0.84313  -0.83794  -0.83055
 Alpha  occ. eigenvalues --   -0.82513  -0.82244  -0.81602  -0.81240  -0.80261
 Alpha  occ. eigenvalues --   -0.79647  -0.78306  -0.77831  -0.77627  -0.76388
 Alpha  occ. eigenvalues --   -0.75995  -0.75757  -0.75246  -0.74947  -0.74530
 Alpha  occ. eigenvalues --   -0.73657  -0.72980  -0.71567  -0.70244  -0.69200
 Alpha  occ. eigenvalues --   -0.68817  -0.68467  -0.67627  -0.67233  -0.65344
 Alpha  occ. eigenvalues --   -0.65284  -0.65050  -0.64669  -0.64221  -0.63774
 Alpha  occ. eigenvalues --   -0.63530  -0.62431  -0.62061  -0.62001  -0.60189
 Alpha  occ. eigenvalues --   -0.60100  -0.59611  -0.59487  -0.58692  -0.57895
 Alpha  occ. eigenvalues --   -0.57398  -0.56772  -0.56407  -0.55944  -0.55376
 Alpha  occ. eigenvalues --   -0.55255  -0.55056  -0.54695  -0.54406  -0.54102
 Alpha  occ. eigenvalues --   -0.53988  -0.53568  -0.53241  -0.53127  -0.52802
 Alpha  occ. eigenvalues --   -0.52766  -0.52418  -0.52282  -0.51974  -0.51907
 Alpha  occ. eigenvalues --   -0.51493  -0.51392  -0.51097  -0.50924  -0.50807
 Alpha  occ. eigenvalues --   -0.50340  -0.50108  -0.49973  -0.49810  -0.49723
 Alpha  occ. eigenvalues --   -0.49435  -0.49242  -0.48908  -0.48903  -0.48852
 Alpha  occ. eigenvalues --   -0.48486  -0.48432  -0.48188  -0.47921  -0.47763
 Alpha  occ. eigenvalues --   -0.47576  -0.47280  -0.46874  -0.46668  -0.46603
 Alpha  occ. eigenvalues --   -0.46307  -0.46105  -0.45941  -0.45568  -0.45453
 Alpha  occ. eigenvalues --   -0.45249  -0.45032  -0.44951  -0.44850  -0.44741
 Alpha  occ. eigenvalues --   -0.44455  -0.44337  -0.44049  -0.43976  -0.43787
 Alpha  occ. eigenvalues --   -0.43664  -0.43567  -0.43336  -0.43215  -0.43060
 Alpha  occ. eigenvalues --   -0.42905  -0.42877  -0.42669  -0.42419  -0.42161
 Alpha  occ. eigenvalues --   -0.41874  -0.41646  -0.41462  -0.41287  -0.41204
 Alpha  occ. eigenvalues --   -0.40948  -0.40928  -0.40672  -0.40644  -0.40112
 Alpha  occ. eigenvalues --   -0.39998  -0.39924  -0.39238  -0.39195  -0.38712
 Alpha  occ. eigenvalues --   -0.38305  -0.38099  -0.37842  -0.37695  -0.37427
 Alpha  occ. eigenvalues --   -0.37187  -0.36974  -0.36911  -0.36744  -0.36305
 Alpha  occ. eigenvalues --   -0.36080  -0.35518  -0.35232  -0.34921  -0.34734
 Alpha  occ. eigenvalues --   -0.34332  -0.33328  -0.33215  -0.31401  -0.30959
 Alpha  occ. eigenvalues --   -0.30786  -0.30263  -0.29816  -0.29503  -0.23740
 Alpha  occ. eigenvalues --   -0.21370
 Alpha virt. eigenvalues --   -0.08598  -0.01713   0.00505   0.02528   0.03438
 Alpha virt. eigenvalues --    0.04451   0.04988   0.05304   0.06253   0.06687
 Alpha virt. eigenvalues --    0.07349   0.08247   0.08371   0.08531   0.08942

 Mulliken charges:
               1
     1  Mg   0.819719
     2  C   -0.037142
     3  C   -0.079699
     4  C   -0.026347
     5  C   -0.081168
     6  N   -0.324745
     7  C   -0.034773
     8  C    0.031154
     9  C   -0.084485
    10  C    0.021770
    11  C    0.088421
    12  C    0.073392
    13  C    0.068253
    14  C    0.115046
    15  O   -0.265870
    16  O   -0.303849
    17  N   -0.404910
    18  C    0.144846
    19  C   -0.111511
    20  C   -0.052953
    21  C    0.100047
    22  C    0.096981
    23  C    0.011474
    24  O   -0.223630
    25  C    0.063049
    26  N   -0.227704
    27  C    0.030119
    28  C   -0.087607
    29  C   -0.001930
    30  C    0.002075
    31  C    0.062351
    32  C    0.033386
    33  C    0.005598
    34  N   -0.288572
    35  C    0.112733
    36  C   -0.177361
    37  C    0.012462
    38  C    0.129077
    39  C    0.121691
    40  C   -0.003549
    41  O   -0.164689
    42  C    0.028691
    43  C    0.232021
    44  O   -0.215924
    45  O   -0.361517
    46  C    0.170418
    47  C    0.254790
    48  C   -0.111759
    49  C   -0.151848
    50  C    0.071806
    51  C    0.050101
    52  C   -0.017988
    53  C    0.033465
    54  C   -0.120637
    55  C    0.043379
    56  C    0.049004
    57  C    0.022893
    58  C    0.056388
    59  C   -0.146583
    60  C    0.040320
    61  C    0.054376
    62  C    0.015105
    63  C    0.069600
    64  C   -0.168015
    65  C    0.063686
    66  C    0.026512
    67  H   -0.025153
    68  H    0.003278
    69  H   -0.033238
    70  H    0.013180
    71  H    0.007014
    72  H    0.003900
    73  H    0.021384
    74  H    0.019667
    75  H    0.025945
    76  H    0.027357
    77  H    0.035846
    78  H    0.018492
    79  H    0.028332
    80  H    0.027914
    81  H    0.012379
    82  H    0.042221
    83  H    0.023032
    84  H    0.027362
    85  H    0.021743
    86  H   -0.007562
    87  H    0.019409
    88  H    0.012435
    89  H    0.033717
    90  H    0.002823
    91  H    0.003304
    92  H    0.011230
    93  H    0.027939
    94  H    0.026517
    95  H    0.043180
    96  H    0.037520
    97  H    0.014768
    98  H    0.043565
    99  H    0.035009
   100  H    0.055484
   101  H    0.034632
   102  H    0.046493
   103  H    0.029497
   104  H    0.000884
   105  H    0.030594
   106  H    0.034268
   107  H    0.015857
   108  H   -0.005232
   109  H   -0.002005
   110  H    0.000406
   111  H    0.012807
   112  H   -0.005432
   113  H    0.013601
   114  H   -0.006155
   115  H    0.016388
   116  H    0.007090
   117  H    0.004466
   118  H    0.002808
   119  H   -0.008172
   120  H    0.004731
   121  H   -0.005204
   122  H    0.000700
   123  H   -0.012209
   124  H   -0.006234
   125  H    0.008776
   126  H    0.000088
   127  H   -0.002261
   128  H   -0.015016
   129  H   -0.022044
   130  H   -0.011383
   131  H   -0.004279
   132  H   -0.005097
   133  H   -0.004177
   134  H   -0.005021
   135  H    0.005211
   136  H    0.013329
   137  H   -0.003498
   138  H    0.007270
   139  H    0.027483
   140  H   -0.003388
 Sum of Mulliken charges =  -0.00000

 Dipole moment (field-independent basis, Debye):
    X=              3.5244    Y=              3.8463    Z=              1.3521  Tot=              5.3892
 Quadrupole moment (field-independent basis, Debye-Ang):
   XX=           -369.7275   YY=           -420.8896   ZZ=           -411.1140
   XY=              6.0970   XZ=             15.8849   YZ=             -5.3568

 Normal termination of Gaussian 16 at Tue Apr 26 23:19:37 2022.
