 Gaussian 16, Revision A.03,
 Gaussian 16:  ES64L-G16RevA.03 25-Dec-2016

 ---------------------------------
 #p PBE1PBE/Def2SVP td=(nstates=5)
 ---------------------------------

 -----------------------------------------------------
 step_101_chromophore_13 TDDFT with PBE1PBE functional
 -----------------------------------------------------
 Symbolic Z-matrix:
 Charge =  0 Multiplicity = 1

                         Standard orientation:
 ---------------------------------------------------------------------
 Center     Atomic      Atomic             Coordinates (Angstroms)
 Number     Number       Type             X           Y           Z
 ---------------------------------------------------------------------
      1         12           0       -5.628519    0.518234   -0.096932
      2          6           0       -3.684819   -2.441612    0.043846
      3          6           0       -2.885715    2.353243    0.582018
      4          6           0       -7.680023    3.120681    0.296722
      5          6           0       -8.330579   -1.608683   -0.480324
      6          7           0       -3.504196    0.015664    0.223066
      7          6           0       -2.912751   -1.275137    0.269164
      8          6           0       -1.351597   -1.128317    0.347142
      9          6           0       -1.121243    0.397786    0.625417
     10          6           0       -2.568970    1.014890    0.424284
     11          6           0       -0.477732    0.910150    1.904358
     12          6           0       -0.618180   -1.675517   -0.964596
     13          6           0        0.304810   -2.842751   -0.725581
     14          6           0        1.676897   -2.765260   -1.441027
     15          8           0        1.869693   -2.997606   -2.643308
     16          8           0        2.639988   -2.413923   -0.599100
     17          7           0       -5.286040    2.505818    0.256282
     18          6           0       -4.094490    3.111400    0.517893
     19          6           0       -4.212369    4.517313    0.615543
     20          6           0       -5.612939    4.749240    0.548412
     21          6           0       -6.294864    3.475771    0.293218
     22          6           0       -2.951486    5.479968    0.747866
     23          6           0       -6.390922    6.070012    0.546065
     24          8           0       -7.618018    6.088491    0.408077
     25          6           0       -5.749186    7.350419    0.692969
     26          7           0       -7.749452    0.701313   -0.096735
     27          6           0       -8.298505    1.871275    0.111934
     28          6           0       -9.912287    1.809748    0.025627
     29          6           0       -9.969447    0.314323   -0.577763
     30          6           0       -8.628726   -0.248735   -0.390404
     31          6           0      -10.578997    1.995599    1.471427
     32          6           0      -10.358663    0.338242   -2.072288
     33          6           0       -9.336018    0.958880   -2.994560
     34          7           0       -5.979931   -1.607153   -0.266659
     35          6           0       -7.151166   -2.297838   -0.305321
     36          6           0       -6.927313   -3.737095   -0.276703
     37          6           0       -5.521857   -3.810364   -0.178205
     38          6           0       -5.033574   -2.534240   -0.176380
     39          6           0       -7.983383   -4.871864   -0.245396
     40          6           0       -4.362005   -4.715598   -0.096797
     41          8           0       -4.273555   -5.932629   -0.135971
     42          6           0       -3.118800   -3.870116    0.094980
     43          6           0       -2.549609   -4.243002    1.406406
     44          8           0       -2.985870   -3.870540    2.494771
     45          8           0       -1.330231   -4.904614    1.148034
     46          6           0       -0.590719   -5.279848    2.396921
     47          6           0        3.978667   -2.272658   -1.176406
     48          6           0        4.877264   -1.402069   -0.351191
     49          6           0        6.227376   -1.473602   -0.438212
     50          6           0        7.127092   -2.329010   -1.343809
     51          6           0        7.093476   -0.637046    0.505425
     52          6           0        7.144632    0.957947    0.372857
     53          6           0        8.562404    1.642000    0.252038
     54          6           0        8.535891    2.703534   -0.843903
     55          6           0        7.256744    3.629776   -0.849310
     56          6           0        8.780966    1.977589   -2.296838
     57          6           0       10.184857    2.030928   -2.756321
     58          6           0       11.093157    0.708971   -2.468532
     59          6           0       12.441580    1.047960   -1.790276
     60          6           0       13.507368    1.317107   -2.875139
     61          6           0       12.975225    0.057348   -0.685351
     62          6           0       13.542395    0.551932    0.628660
     63          6           0       13.339120   -0.359921    1.899398
     64          6           0       12.647414    0.426491    3.040294
     65          6           0       12.704963   -0.147582    4.476058
     66          6           0       11.217132    0.833572    2.651207
     67          1           0       -1.962244    2.934162    0.528602
     68          1           0       -8.317179    3.964192    0.574017
     69          1           0       -9.240258   -2.212366   -0.462859
     70          1           0       -0.995905   -1.579700    1.274124
     71          1           0       -0.520435    0.882184   -0.144755
     72          1           0        0.583428    1.049312    1.696299
     73          1           0       -0.567822    0.123492    2.654270
     74          1           0       -0.839935    1.908634    2.147312
     75          1           0       -0.069733   -0.864785   -1.446801
     76          1           0       -1.307426   -2.113898   -1.685881
     77          1           0       -0.141480   -3.729146   -1.176130
     78          1           0        0.449905   -3.019936    0.340127
     79          1           0       -3.173436    6.382349    1.316977
     80          1           0       -2.473420    5.752522   -0.192794
     81          1           0       -2.099969    4.965720    1.195005
     82          1           0       -5.665539    7.538346    1.763406
     83          1           0       -6.347780    8.191146    0.342300
     84          1           0       -4.795241    7.450050    0.175394
     85          1           0      -10.388357    2.514000   -0.657633
     86          1           0      -10.657460   -0.284203    0.018825
     87          1           0       -9.788610    1.930883    2.219428
     88          1           0      -11.236576    1.179408    1.768250
     89          1           0      -11.098084    2.953859    1.495366
     90          1           0      -11.280634    0.916335   -2.126939
     91          1           0      -10.566629   -0.660980   -2.454152
     92          1           0       -9.813511    1.488738   -3.818609
     93          1           0       -8.737233    0.131045   -3.375523
     94          1           0       -8.810820    1.757009   -2.469006
     95          1           0       -7.696421   -5.602823    0.510787
     96          1           0       -7.932557   -5.299641   -1.246166
     97          1           0       -9.013349   -4.585993   -0.031504
     98          1           0       -2.455941   -4.149812   -0.724347
     99          1           0        0.042232   -6.135916    2.159509
    100          1           0       -1.228808   -5.588812    3.224870
    101          1           0        0.106451   -4.493198    2.685305
    102          1           0        3.910941   -1.849148   -2.178008
    103          1           0        4.374741   -3.286284   -1.229696
    104          1           0        4.349897   -0.702931    0.297061
    105          1           0        7.566989   -3.099562   -0.709661
    106          1           0        7.925980   -1.697178   -1.732399
    107          1           0        6.605692   -2.854540   -2.143563
    108          1           0        8.074230   -1.093813    0.638425
    109          1           0        6.628729   -0.703415    1.488365
    110          1           0        6.690042    1.305239    1.300319
    111          1           0        6.494062    1.221663   -0.460972
    112          1           0        9.209110    0.803270   -0.002786
    113          1           0        8.911893    2.017703    1.214358
    114          1           0        9.377391    3.322943   -0.532858
    115          1           0        6.443501    3.429141   -0.152250
    116          1           0        6.851228    3.621970   -1.861241
    117          1           0        7.556238    4.649146   -0.605554
    118          1           0        8.203547    2.294896   -3.165102
    119          1           0        8.542213    0.940359   -2.067124
    120          1           0       10.618633    2.946599   -2.353587
    121          1           0       10.173818    2.098898   -3.844639
    122          1           0       11.379945    0.160015   -3.365082
    123          1           0       10.508770    0.030566   -1.848256
    124          1           0       12.411113    2.023177   -1.304110
    125          1           0       14.423586    0.858826   -2.501894
    126          1           0       13.656840    2.371367   -3.110585
    127          1           0       13.249212    0.994502   -3.883522
    128          1           0       13.763872   -0.537061   -1.147758
    129          1           0       12.203024   -0.701568   -0.566144
    130          1           0       13.082444    1.527562    0.782777
    131          1           0       14.597325    0.818229    0.556585
    132          1           0       14.310525   -0.657987    2.295562
    133          1           0       12.739136   -1.221347    1.607471
    134          1           0       13.232835    1.340207    2.936470
    135          1           0       13.415548   -0.970362    4.548443
    136          1           0       11.811012   -0.263192    5.089154
    137          1           0       13.163794    0.644267    5.068134
    138          1           0       10.705533   -0.100180    2.416007
    139          1           0       11.140353    1.642593    1.924866
    140          1           0       10.737546    1.164121    3.572116
 ---------------------------------------------------------------------

 SCF Done:  E(RPBE1PBE) =  -3005.34206034     A.U. after   15 cycles

 Excitation energies and oscillator strengths:

 Excited State   1:      Singlet-A      1.9235 eV  644.59 nm  f=0.3791  <S**2>=0.000
     245 -> 248       -0.18769
     246 -> 247        0.68757
 This state for optimization and/or second-order correction.
 Total Energy, E(TD-HF/TD-DFT) =  -3005.27137406
 Copying the excited state density for this state as the 1-particle RhoCI density.

 Excited State   2:      Singlet-A      2.2113 eV  560.67 nm  f=0.1170  <S**2>=0.000
     245 -> 247        0.65849
     246 -> 248        0.24357

 Excited State   3:      Singlet-A      3.0208 eV  410.43 nm  f=0.0001  <S**2>=0.000
     242 -> 247        0.24473
     243 -> 247        0.61936

 Excited State   4:      Singlet-A      3.0784 eV  402.75 nm  f=0.0003  <S**2>=0.000
     241 -> 247        0.61659
     241 -> 249       -0.17894
     242 -> 247       -0.26519

 Excited State   5:      Singlet-A      3.1459 eV  394.11 nm  f=0.0009  <S**2>=0.000
     241 -> 247        0.26055
     242 -> 247        0.57152
     243 -> 247       -0.28488

 The electronic state is 1-A.
 Alpha  occ. eigenvalues --  -46.92023 -19.26264 -19.26160 -19.20892 -19.19108
 Alpha  occ. eigenvalues --  -19.19061 -19.18501 -14.41619 -14.41296 -14.38991
 Alpha  occ. eigenvalues --  -14.38315 -10.36939 -10.35878 -10.32018 -10.31727
 Alpha  occ. eigenvalues --  -10.29549 -10.29155 -10.29117 -10.28499 -10.28495
 Alpha  occ. eigenvalues --  -10.27858 -10.27812 -10.27328 -10.27104 -10.26976
 Alpha  occ. eigenvalues --  -10.26468 -10.26400 -10.26240 -10.25965 -10.25576
 Alpha  occ. eigenvalues --  -10.25477 -10.25451 -10.25332 -10.25316 -10.25156
 Alpha  occ. eigenvalues --  -10.25118 -10.24827 -10.24377 -10.24180 -10.24138
 Alpha  occ. eigenvalues --  -10.24134 -10.24020 -10.23950 -10.23828 -10.23741
 Alpha  occ. eigenvalues --  -10.23646 -10.23609 -10.23543 -10.23432 -10.23336
 Alpha  occ. eigenvalues --  -10.23183 -10.23172 -10.23031 -10.22934 -10.22901
 Alpha  occ. eigenvalues --  -10.22796 -10.22778 -10.22767 -10.22730 -10.22680
 Alpha  occ. eigenvalues --  -10.22293 -10.22277 -10.22268 -10.22226 -10.21903
 Alpha  occ. eigenvalues --  -10.21524  -3.14077  -1.86938  -1.86428  -1.86319
 Alpha  occ. eigenvalues --   -1.12183  -1.09794  -1.04786  -1.04062  -1.02505
 Alpha  occ. eigenvalues --   -1.01480  -1.00374  -0.99354  -0.97266  -0.95536
 Alpha  occ. eigenvalues --   -0.87797  -0.84365  -0.83746  -0.83564  -0.83399
 Alpha  occ. eigenvalues --   -0.82850  -0.82067  -0.81558  -0.81470  -0.80651
 Alpha  occ. eigenvalues --   -0.80222  -0.79933  -0.78502  -0.78079  -0.77278
 Alpha  occ. eigenvalues --   -0.76734  -0.76434  -0.75809  -0.75500  -0.74610
 Alpha  occ. eigenvalues --   -0.73807  -0.72590  -0.72129  -0.71927  -0.70680
 Alpha  occ. eigenvalues --   -0.70128  -0.69881  -0.69594  -0.69103  -0.68689
 Alpha  occ. eigenvalues --   -0.67990  -0.67418  -0.66050  -0.64520  -0.63517
 Alpha  occ. eigenvalues --   -0.63218  -0.62765  -0.61864  -0.61679  -0.59862
 Alpha  occ. eigenvalues --   -0.59514  -0.59479  -0.59150  -0.58793  -0.58051
 Alpha  occ. eigenvalues --   -0.57882  -0.56649  -0.56567  -0.56311  -0.54662
 Alpha  occ. eigenvalues --   -0.54561  -0.54155  -0.54044  -0.53095  -0.52505
 Alpha  occ. eigenvalues --   -0.51992  -0.51209  -0.50827  -0.50521  -0.49938
 Alpha  occ. eigenvalues --   -0.49769  -0.49585  -0.49116  -0.48940  -0.48651
 Alpha  occ. eigenvalues --   -0.48442  -0.48000  -0.47787  -0.47608  -0.47357
 Alpha  occ. eigenvalues --   -0.47247  -0.46987  -0.46754  -0.46482  -0.46476
 Alpha  occ. eigenvalues --   -0.46057  -0.45959  -0.45622  -0.45426  -0.45376
 Alpha  occ. eigenvalues --   -0.44919  -0.44652  -0.44542  -0.44342  -0.44301
 Alpha  occ. eigenvalues --   -0.44031  -0.43845  -0.43547  -0.43465  -0.43447
 Alpha  occ. eigenvalues --   -0.43081  -0.43026  -0.42802  -0.42564  -0.42408
 Alpha  occ. eigenvalues --   -0.42223  -0.41942  -0.41560  -0.41367  -0.41268
 Alpha  occ. eigenvalues --   -0.41024  -0.40722  -0.40675  -0.40322  -0.40196
 Alpha  occ. eigenvalues --   -0.39918  -0.39829  -0.39657  -0.39465  -0.39438
 Alpha  occ. eigenvalues --   -0.39198  -0.39089  -0.38793  -0.38758  -0.38497
 Alpha  occ. eigenvalues --   -0.38418  -0.38355  -0.38071  -0.38009  -0.37780
 Alpha  occ. eigenvalues --   -0.37673  -0.37632  -0.37448  -0.37289  -0.37070
 Alpha  occ. eigenvalues --   -0.36719  -0.36370  -0.36256  -0.36205  -0.36033
 Alpha  occ. eigenvalues --   -0.35813  -0.35758  -0.35569  -0.35381  -0.35015
 Alpha  occ. eigenvalues --   -0.34847  -0.34750  -0.34164  -0.33984  -0.33615
 Alpha  occ. eigenvalues --   -0.33289  -0.32960  -0.32825  -0.32524  -0.32275
 Alpha  occ. eigenvalues --   -0.32153  -0.31956  -0.31783  -0.31696  -0.31232
 Alpha  occ. eigenvalues --   -0.31190  -0.30375  -0.30160  -0.29681  -0.29645
 Alpha  occ. eigenvalues --   -0.29529  -0.28923  -0.28094  -0.27040  -0.25921
 Alpha  occ. eigenvalues --   -0.25767  -0.25609  -0.25320  -0.24788  -0.20709
 Alpha  occ. eigenvalues --   -0.18980
 Alpha virt. eigenvalues --   -0.11066  -0.05229  -0.03734  -0.01886  -0.00230
 Alpha virt. eigenvalues --    0.00545   0.00581   0.01034   0.02000   0.03114
 Alpha virt. eigenvalues --    0.03952   0.03998   0.04885   0.05114   0.05322

 Mulliken charges:
               1
     1  Mg   0.969103
     2  C   -0.056345
     3  C   -0.085143
     4  C   -0.019627
     5  C   -0.067286
     6  N   -0.420786
     7  C    0.052223
     8  C   -0.045206
     9  C   -0.151666
    10  C    0.068207
    11  C    0.027257
    12  C    0.024262
    13  C   -0.013578
    14  C    0.185275
    15  O   -0.298157
    16  O   -0.335833
    17  N   -0.519918
    18  C    0.166169
    19  C   -0.128819
    20  C   -0.112021
    21  C    0.143557
    22  C    0.041095
    23  C    0.059140
    24  O   -0.260043
    25  C   -0.008422
    26  N   -0.339310
    27  C    0.049323
    28  C   -0.153155
    29  C   -0.085643
    30  C    0.043292
    31  C    0.007901
    32  C   -0.024672
    33  C   -0.071166
    34  N   -0.415510
    35  C    0.126543
    36  C   -0.184883
    37  C   -0.036099
    38  C    0.172209
    39  C    0.069082
    40  C    0.098232
    41  O   -0.211564
    42  C   -0.087056
    43  C    0.321402
    44  O   -0.250012
    45  O   -0.391303
    46  C    0.114920
    47  C    0.217948
    48  C   -0.127718
    49  C   -0.189595
    50  C    0.000110
    51  C   -0.010346
    52  C   -0.079152
    53  C   -0.027904
    54  C   -0.202847
    55  C   -0.016954
    56  C   -0.015925
    57  C   -0.035466
    58  C   -0.002594
    59  C   -0.229904
    60  C   -0.014833
    61  C    0.002705
    62  C   -0.049974
    63  C    0.014951
    64  C   -0.262524
    65  C    0.000604
    66  C   -0.035495
    67  H    0.006950
    68  H    0.034176
    69  H   -0.001749
    70  H    0.051630
    71  H    0.044323
    72  H    0.032361
    73  H    0.049179
    74  H    0.046938
    75  H    0.057318
    76  H    0.059690
    77  H    0.069015
    78  H    0.053803
    79  H    0.055533
    80  H    0.055284
    81  H    0.038924
    82  H    0.069254
    83  H    0.050588
    84  H    0.053402
    85  H    0.055321
    86  H    0.029289
    87  H    0.047287
    88  H    0.039650
    89  H    0.060268
    90  H    0.036734
    91  H    0.036685
    92  H    0.040498
    93  H    0.056251
    94  H    0.058417
    95  H    0.069682
    96  H    0.065246
    97  H    0.040453
    98  H    0.081342
    99  H    0.056967
   100  H    0.076456
   101  H    0.055510
   102  H    0.072503
   103  H    0.056272
   104  H    0.029745
   105  H    0.059005
   106  H    0.064482
   107  H    0.042868
   108  H    0.025204
   109  H    0.032428
   110  H    0.033019
   111  H    0.045392
   112  H    0.033599
   113  H    0.046796
   114  H    0.031002
   115  H    0.042538
   116  H    0.034823
   117  H    0.032729
   118  H    0.033383
   119  H    0.033042
   120  H    0.035496
   121  H    0.028547
   122  H    0.032794
   123  H    0.019755
   124  H    0.032427
   125  H    0.035855
   126  H    0.027276
   127  H    0.024003
   128  H    0.018665
   129  H    0.009982
   130  H    0.020503
   131  H    0.028499
   132  H    0.028371
   133  H    0.027936
   134  H    0.034911
   135  H    0.032747
   136  H    0.039361
   137  H    0.024908
   138  H    0.035459
   139  H    0.053980
   140  H    0.025964
 Sum of Mulliken charges =  -0.00000

 Dipole moment (field-independent basis, Debye):
    X=              3.5256    Y=              3.9297    Z=              1.3313  Tot=              5.4447
 Quadrupole moment (field-independent basis, Debye-Ang):
   XX=           -363.7652   YY=           -418.5129   ZZ=           -408.4703
   XY=              6.1826   XZ=             16.3323   YZ=             -5.1626

 Normal termination of Gaussian 16 at Tue Apr 26 23:37:23 2022.
