 Gaussian 16, Revision A.03,
 Gaussian 16:  ES64L-G16RevA.03 25-Dec-2016

 --------------------------------
 #p wB97XD/Def2SVP td=(nstates=5)
 --------------------------------

 ----------------------------------------------------
 step_101_chromophore_13 TDDFT with wB97XD functional
 ----------------------------------------------------
 Symbolic Z-matrix:
 Charge =  0 Multiplicity = 1

                         Standard orientation:
 ---------------------------------------------------------------------
 Center     Atomic      Atomic             Coordinates (Angstroms)
 Number     Number       Type             X           Y           Z
 ---------------------------------------------------------------------
      1         12           0       -5.628519    0.518234   -0.096932
      2          6           0       -3.684819   -2.441612    0.043846
      3          6           0       -2.885715    2.353243    0.582018
      4          6           0       -7.680023    3.120681    0.296722
      5          6           0       -8.330579   -1.608683   -0.480324
      6          7           0       -3.504196    0.015664    0.223066
      7          6           0       -2.912751   -1.275137    0.269164
      8          6           0       -1.351597   -1.128317    0.347142
      9          6           0       -1.121243    0.397786    0.625417
     10          6           0       -2.568970    1.014890    0.424284
     11          6           0       -0.477732    0.910150    1.904358
     12          6           0       -0.618180   -1.675517   -0.964596
     13          6           0        0.304810   -2.842751   -0.725581
     14          6           0        1.676897   -2.765260   -1.441027
     15          8           0        1.869693   -2.997606   -2.643308
     16          8           0        2.639988   -2.413923   -0.599100
     17          7           0       -5.286040    2.505818    0.256282
     18          6           0       -4.094490    3.111400    0.517893
     19          6           0       -4.212369    4.517313    0.615543
     20          6           0       -5.612939    4.749240    0.548412
     21          6           0       -6.294864    3.475771    0.293218
     22          6           0       -2.951486    5.479968    0.747866
     23          6           0       -6.390922    6.070012    0.546065
     24          8           0       -7.618018    6.088491    0.408077
     25          6           0       -5.749186    7.350419    0.692969
     26          7           0       -7.749452    0.701313   -0.096735
     27          6           0       -8.298505    1.871275    0.111934
     28          6           0       -9.912287    1.809748    0.025627
     29          6           0       -9.969447    0.314323   -0.577763
     30          6           0       -8.628726   -0.248735   -0.390404
     31          6           0      -10.578997    1.995599    1.471427
     32          6           0      -10.358663    0.338242   -2.072288
     33          6           0       -9.336018    0.958880   -2.994560
     34          7           0       -5.979931   -1.607153   -0.266659
     35          6           0       -7.151166   -2.297838   -0.305321
     36          6           0       -6.927313   -3.737095   -0.276703
     37          6           0       -5.521857   -3.810364   -0.178205
     38          6           0       -5.033574   -2.534240   -0.176380
     39          6           0       -7.983383   -4.871864   -0.245396
     40          6           0       -4.362005   -4.715598   -0.096797
     41          8           0       -4.273555   -5.932629   -0.135971
     42          6           0       -3.118800   -3.870116    0.094980
     43          6           0       -2.549609   -4.243002    1.406406
     44          8           0       -2.985870   -3.870540    2.494771
     45          8           0       -1.330231   -4.904614    1.148034
     46          6           0       -0.590719   -5.279848    2.396921
     47          6           0        3.978667   -2.272658   -1.176406
     48          6           0        4.877264   -1.402069   -0.351191
     49          6           0        6.227376   -1.473602   -0.438212
     50          6           0        7.127092   -2.329010   -1.343809
     51          6           0        7.093476   -0.637046    0.505425
     52          6           0        7.144632    0.957947    0.372857
     53          6           0        8.562404    1.642000    0.252038
     54          6           0        8.535891    2.703534   -0.843903
     55          6           0        7.256744    3.629776   -0.849310
     56          6           0        8.780966    1.977589   -2.296838
     57          6           0       10.184857    2.030928   -2.756321
     58          6           0       11.093157    0.708971   -2.468532
     59          6           0       12.441580    1.047960   -1.790276
     60          6           0       13.507368    1.317107   -2.875139
     61          6           0       12.975225    0.057348   -0.685351
     62          6           0       13.542395    0.551932    0.628660
     63          6           0       13.339120   -0.359921    1.899398
     64          6           0       12.647414    0.426491    3.040294
     65          6           0       12.704963   -0.147582    4.476058
     66          6           0       11.217132    0.833572    2.651207
     67          1           0       -1.962244    2.934162    0.528602
     68          1           0       -8.317179    3.964192    0.574017
     69          1           0       -9.240258   -2.212366   -0.462859
     70          1           0       -0.995905   -1.579700    1.274124
     71          1           0       -0.520435    0.882184   -0.144755
     72          1           0        0.583428    1.049312    1.696299
     73          1           0       -0.567822    0.123492    2.654270
     74          1           0       -0.839935    1.908634    2.147312
     75          1           0       -0.069733   -0.864785   -1.446801
     76          1           0       -1.307426   -2.113898   -1.685881
     77          1           0       -0.141480   -3.729146   -1.176130
     78          1           0        0.449905   -3.019936    0.340127
     79          1           0       -3.173436    6.382349    1.316977
     80          1           0       -2.473420    5.752522   -0.192794
     81          1           0       -2.099969    4.965720    1.195005
     82          1           0       -5.665539    7.538346    1.763406
     83          1           0       -6.347780    8.191146    0.342300
     84          1           0       -4.795241    7.450050    0.175394
     85          1           0      -10.388357    2.514000   -0.657633
     86          1           0      -10.657460   -0.284203    0.018825
     87          1           0       -9.788610    1.930883    2.219428
     88          1           0      -11.236576    1.179408    1.768250
     89          1           0      -11.098084    2.953859    1.495366
     90          1           0      -11.280634    0.916335   -2.126939
     91          1           0      -10.566629   -0.660980   -2.454152
     92          1           0       -9.813511    1.488738   -3.818609
     93          1           0       -8.737233    0.131045   -3.375523
     94          1           0       -8.810820    1.757009   -2.469006
     95          1           0       -7.696421   -5.602823    0.510787
     96          1           0       -7.932557   -5.299641   -1.246166
     97          1           0       -9.013349   -4.585993   -0.031504
     98          1           0       -2.455941   -4.149812   -0.724347
     99          1           0        0.042232   -6.135916    2.159509
    100          1           0       -1.228808   -5.588812    3.224870
    101          1           0        0.106451   -4.493198    2.685305
    102          1           0        3.910941   -1.849148   -2.178008
    103          1           0        4.374741   -3.286284   -1.229696
    104          1           0        4.349897   -0.702931    0.297061
    105          1           0        7.566989   -3.099562   -0.709661
    106          1           0        7.925980   -1.697178   -1.732399
    107          1           0        6.605692   -2.854540   -2.143563
    108          1           0        8.074230   -1.093813    0.638425
    109          1           0        6.628729   -0.703415    1.488365
    110          1           0        6.690042    1.305239    1.300319
    111          1           0        6.494062    1.221663   -0.460972
    112          1           0        9.209110    0.803270   -0.002786
    113          1           0        8.911893    2.017703    1.214358
    114          1           0        9.377391    3.322943   -0.532858
    115          1           0        6.443501    3.429141   -0.152250
    116          1           0        6.851228    3.621970   -1.861241
    117          1           0        7.556238    4.649146   -0.605554
    118          1           0        8.203547    2.294896   -3.165102
    119          1           0        8.542213    0.940359   -2.067124
    120          1           0       10.618633    2.946599   -2.353587
    121          1           0       10.173818    2.098898   -3.844639
    122          1           0       11.379945    0.160015   -3.365082
    123          1           0       10.508770    0.030566   -1.848256
    124          1           0       12.411113    2.023177   -1.304110
    125          1           0       14.423586    0.858826   -2.501894
    126          1           0       13.656840    2.371367   -3.110585
    127          1           0       13.249212    0.994502   -3.883522
    128          1           0       13.763872   -0.537061   -1.147758
    129          1           0       12.203024   -0.701568   -0.566144
    130          1           0       13.082444    1.527562    0.782777
    131          1           0       14.597325    0.818229    0.556585
    132          1           0       14.310525   -0.657987    2.295562
    133          1           0       12.739136   -1.221347    1.607471
    134          1           0       13.232835    1.340207    2.936470
    135          1           0       13.415548   -0.970362    4.548443
    136          1           0       11.811012   -0.263192    5.089154
    137          1           0       13.163794    0.644267    5.068134
    138          1           0       10.705533   -0.100180    2.416007
    139          1           0       11.140353    1.642593    1.924866
    140          1           0       10.737546    1.164121    3.572116
 ---------------------------------------------------------------------

 SCF Done:  E(RwB97XD) =  -3007.85521780     A.U. after   19 cycles

 Excitation energies and oscillator strengths:

 Excited State   1:      Singlet-A      1.7068 eV  726.42 nm  f=0.3895  <S**2>=0.000
     245 -> 248        0.19975
     246 -> 247        0.67940
     245 <- 248        0.11728
 This state for optimization and/or second-order correction.
 Total Energy, E(TD-HF/TD-DFT) =  -3007.79249476
 Copying the excited state density for this state as the 1-particle RhoCI density.

 Excited State   2:      Singlet-A      2.1484 eV  577.11 nm  f=0.1215  <S**2>=0.000
     245 -> 247        0.64632
     246 -> 248       -0.27318

 Excited State   3:      Singlet-A      3.4556 eV  358.80 nm  f=0.0229  <S**2>=0.000
     243 -> 247        0.65936
     246 -> 248        0.16998

 Excited State   4:      Singlet-A      3.5494 eV  349.31 nm  f=0.2707  <S**2>=0.000
     242 -> 247        0.42176
     243 -> 247       -0.14442
     245 -> 247        0.16435
     246 -> 248        0.48431

 Excited State   5:      Singlet-A      3.6070 eV  343.73 nm  f=0.0045  <S**2>=0.000
     240 -> 247        0.43994
     240 -> 249       -0.31459
     240 -> 250        0.14926
     241 -> 247        0.30858
     241 -> 249        0.12128
     241 -> 250        0.13911

 The electronic state is 1-A.
 Alpha  occ. eigenvalues --  -46.94943 -19.30862 -19.30724 -19.25655 -19.24006
 Alpha  occ. eigenvalues --  -19.23709 -19.23283 -14.46607 -14.46450 -14.43905
 Alpha  occ. eigenvalues --  -14.43290 -10.43822 -10.42646 -10.38923 -10.38544
 Alpha  occ. eigenvalues --  -10.35873 -10.35667 -10.35654 -10.34754 -10.34713
 Alpha  occ. eigenvalues --  -10.34115 -10.34098 -10.33622 -10.33358 -10.33323
 Alpha  occ. eigenvalues --  -10.32939 -10.32856 -10.32421 -10.32179 -10.31972
 Alpha  occ. eigenvalues --  -10.31920 -10.31792 -10.31710 -10.31694 -10.31514
 Alpha  occ. eigenvalues --  -10.31470 -10.31016 -10.30649 -10.30641 -10.30623
 Alpha  occ. eigenvalues --  -10.30468 -10.30430 -10.30408 -10.30334 -10.30152
 Alpha  occ. eigenvalues --  -10.30014 -10.29894 -10.29826 -10.29765 -10.29612
 Alpha  occ. eigenvalues --  -10.29557 -10.29554 -10.29474 -10.29390 -10.29329
 Alpha  occ. eigenvalues --  -10.29160 -10.29153 -10.29136 -10.29100 -10.29051
 Alpha  occ. eigenvalues --  -10.28713 -10.28681 -10.28653 -10.28636 -10.28361
 Alpha  occ. eigenvalues --  -10.27950  -3.20859  -1.94469  -1.93958  -1.93848
 Alpha  occ. eigenvalues --   -1.19543  -1.17260  -1.12339  -1.11533  -1.09926
 Alpha  occ. eigenvalues --   -1.08814  -1.07751  -1.06726  -1.04595  -1.02928
 Alpha  occ. eigenvalues --   -0.95432  -0.92058  -0.91417  -0.91145  -0.91041
 Alpha  occ. eigenvalues --   -0.90523  -0.89650  -0.89218  -0.89080  -0.88296
 Alpha  occ. eigenvalues --   -0.87873  -0.87553  -0.86164  -0.85718  -0.84932
 Alpha  occ. eigenvalues --   -0.84387  -0.84127  -0.83470  -0.83148  -0.82216
 Alpha  occ. eigenvalues --   -0.81490  -0.80247  -0.79755  -0.79548  -0.78328
 Alpha  occ. eigenvalues --   -0.77824  -0.77567  -0.77171  -0.76776  -0.76366
 Alpha  occ. eigenvalues --   -0.75594  -0.74975  -0.73550  -0.72157  -0.71093
 Alpha  occ. eigenvalues --   -0.70791  -0.70390  -0.69499  -0.69216  -0.67299
 Alpha  occ. eigenvalues --   -0.67138  -0.67012  -0.66646  -0.66225  -0.65582
 Alpha  occ. eigenvalues --   -0.65509  -0.64276  -0.64014  -0.63933  -0.62118
 Alpha  occ. eigenvalues --   -0.62067  -0.61582  -0.61497  -0.60647  -0.59877
 Alpha  occ. eigenvalues --   -0.59386  -0.58685  -0.58301  -0.57915  -0.57335
 Alpha  occ. eigenvalues --   -0.57190  -0.56995  -0.56574  -0.56359  -0.56058
 Alpha  occ. eigenvalues --   -0.55877  -0.55437  -0.55148  -0.55015  -0.54707
 Alpha  occ. eigenvalues --   -0.54655  -0.54334  -0.54207  -0.53894  -0.53816
 Alpha  occ. eigenvalues --   -0.53461  -0.53310  -0.53005  -0.52800  -0.52726
 Alpha  occ. eigenvalues --   -0.52252  -0.51997  -0.51892  -0.51721  -0.51668
 Alpha  occ. eigenvalues --   -0.51348  -0.51166  -0.50815  -0.50785  -0.50770
 Alpha  occ. eigenvalues --   -0.50387  -0.50329  -0.50086  -0.49823  -0.49703
 Alpha  occ. eigenvalues --   -0.49506  -0.49221  -0.48809  -0.48587  -0.48514
 Alpha  occ. eigenvalues --   -0.48228  -0.47978  -0.47877  -0.47473  -0.47359
 Alpha  occ. eigenvalues --   -0.47175  -0.46960  -0.46861  -0.46701  -0.46626
 Alpha  occ. eigenvalues --   -0.46374  -0.46252  -0.45957  -0.45884  -0.45660
 Alpha  occ. eigenvalues --   -0.45551  -0.45478  -0.45200  -0.45177  -0.45020
 Alpha  occ. eigenvalues --   -0.44828  -0.44776  -0.44569  -0.44338  -0.44076
 Alpha  occ. eigenvalues --   -0.43804  -0.43499  -0.43351  -0.43224  -0.43153
 Alpha  occ. eigenvalues --   -0.42917  -0.42819  -0.42584  -0.42494  -0.42021
 Alpha  occ. eigenvalues --   -0.41883  -0.41800  -0.41149  -0.41055  -0.40600
 Alpha  occ. eigenvalues --   -0.40223  -0.39970  -0.39748  -0.39551  -0.39270
 Alpha  occ. eigenvalues --   -0.39233  -0.39043  -0.38819  -0.38742  -0.38238
 Alpha  occ. eigenvalues --   -0.37994  -0.37364  -0.37096  -0.36857  -0.36591
 Alpha  occ. eigenvalues --   -0.36326  -0.35574  -0.35185  -0.33604  -0.32949
 Alpha  occ. eigenvalues --   -0.32729  -0.32440  -0.31987  -0.31538  -0.25657
 Alpha  occ. eigenvalues --   -0.23174
 Alpha virt. eigenvalues --   -0.06951   0.00206   0.02554   0.04631   0.06393
 Alpha virt. eigenvalues --    0.06697   0.07252   0.07679   0.08771   0.09364
 Alpha virt. eigenvalues --    0.10473   0.10621   0.11728   0.11751   0.12117

 Mulliken charges:
               1
     1  Mg   0.957888
     2  C   -0.055634
     3  C   -0.096884
     4  C   -0.032371
     5  C   -0.085054
     6  N   -0.393812
     7  C    0.015904
     8  C   -0.017757
     9  C   -0.128369
    10  C    0.053090
    11  C    0.040745
    12  C    0.034400
    13  C    0.007801
    14  C    0.174559
    15  O   -0.295859
    16  O   -0.334805
    17  N   -0.488558
    18  C    0.161401
    19  C   -0.127495
    20  C   -0.100205
    21  C    0.127372
    22  C    0.054312
    23  C    0.057843
    24  O   -0.254832
    25  C   -0.002110
    26  N   -0.301369
    27  C    0.039423
    28  C   -0.135111
    29  C   -0.053764
    30  C    0.026683
    31  C    0.016934
    32  C   -0.014527
    33  C   -0.049505
    34  N   -0.376110
    35  C    0.122235
    36  C   -0.185297
    37  C   -0.033488
    38  C    0.159753
    39  C    0.080899
    40  C    0.078137
    41  O   -0.201596
    42  C   -0.042912
    43  C    0.296239
    44  O   -0.244263
    45  O   -0.389787
    46  C    0.130049
    47  C    0.229341
    48  C   -0.135316
    49  C   -0.180259
    50  C    0.018792
    51  C    0.007357
    52  C   -0.062311
    53  C    0.001707
    54  C   -0.175635
    55  C   -0.005622
    56  C    0.011978
    57  C   -0.022722
    58  C    0.019590
    59  C   -0.199974
    60  C   -0.003865
    61  C    0.017978
    62  C   -0.028400
    63  C    0.025393
    64  C   -0.224203
    65  C    0.010529
    66  C   -0.019974
    67  H   -0.003399
    68  H    0.030527
    69  H   -0.008060
    70  H    0.037117
    71  H    0.033097
    72  H    0.026794
    73  H    0.043411
    74  H    0.040051
    75  H    0.050546
    76  H    0.051639
    77  H    0.061754
    78  H    0.042881
    79  H    0.050065
    80  H    0.051070
    81  H    0.033431
    82  H    0.065608
    83  H    0.049411
    84  H    0.048499
    85  H    0.047292
    86  H    0.019908
    87  H    0.040608
    88  H    0.033904
    89  H    0.055430
    90  H    0.028355
    91  H    0.029316
    92  H    0.035860
    93  H    0.049339
    94  H    0.045309
    95  H    0.065666
    96  H    0.060411
    97  H    0.036166
    98  H    0.072322
    99  H    0.053493
   100  H    0.072823
   101  H    0.051607
   102  H    0.067873
   103  H    0.050654
   104  H    0.028945
   105  H    0.052912
   106  H    0.057413
   107  H    0.038250
   108  H    0.017645
   109  H    0.024253
   110  H    0.025687
   111  H    0.032336
   112  H    0.008720
   113  H    0.037745
   114  H    0.019339
   115  H    0.036009
   116  H    0.028338
   117  H    0.027728
   118  H    0.027359
   119  H    0.009707
   120  H    0.025509
   121  H    0.021702
   122  H    0.024211
   123  H    0.005718
   124  H    0.015941
   125  H    0.028826
   126  H    0.022107
   127  H    0.017489
   128  H    0.009090
   129  H   -0.001005
   130  H    0.005791
   131  H    0.021979
   132  H    0.020956
   133  H    0.018341
   134  H    0.020719
   135  H    0.027760
   136  H    0.034798
   137  H    0.018491
   138  H    0.026700
   139  H    0.044087
   140  H    0.019048
 Sum of Mulliken charges =  -0.00000

 Dipole moment (field-independent basis, Debye):
    X=              3.5723    Y=              3.9011    Z=              1.3533  Tot=              5.4600
 Quadrupole moment (field-independent basis, Debye-Ang):
   XX=           -364.4364   YY=           -416.6116   ZZ=           -408.1924
   XY=              6.2984   XZ=             16.2631   YZ=             -5.3224

 Normal termination of Gaussian 16 at Wed Apr 27 00:10:58 2022.
