 Gaussian 16, Revision A.03,
 Gaussian 16:  ES64L-G16RevA.03 25-Dec-2016

 --------------------
 #p ZINDO=(nstates=5)
 --------------------

 -----------------------------
 step_101_chromophore_13 ZINDO
 -----------------------------
 Symbolic Z-matrix:
 Charge =  0 Multiplicity = 1

                         Standard orientation:
 ---------------------------------------------------------------------
 Center     Atomic      Atomic             Coordinates (Angstroms)
 Number     Number       Type             X           Y           Z
 ---------------------------------------------------------------------
      1         12           0       -5.628519    0.518234   -0.096932
      2          6           0       -3.684819   -2.441612    0.043846
      3          6           0       -2.885715    2.353243    0.582018
      4          6           0       -7.680023    3.120681    0.296722
      5          6           0       -8.330579   -1.608683   -0.480324
      6          7           0       -3.504196    0.015664    0.223066
      7          6           0       -2.912751   -1.275137    0.269164
      8          6           0       -1.351597   -1.128317    0.347142
      9          6           0       -1.121243    0.397786    0.625417
     10          6           0       -2.568970    1.014890    0.424284
     11          6           0       -0.477732    0.910150    1.904358
     12          6           0       -0.618180   -1.675517   -0.964596
     13          6           0        0.304810   -2.842751   -0.725581
     14          6           0        1.676897   -2.765260   -1.441027
     15          8           0        1.869693   -2.997606   -2.643308
     16          8           0        2.639988   -2.413923   -0.599100
     17          7           0       -5.286040    2.505818    0.256282
     18          6           0       -4.094490    3.111400    0.517893
     19          6           0       -4.212369    4.517313    0.615543
     20          6           0       -5.612939    4.749240    0.548412
     21          6           0       -6.294864    3.475771    0.293218
     22          6           0       -2.951486    5.479968    0.747866
     23          6           0       -6.390922    6.070012    0.546065
     24          8           0       -7.618018    6.088491    0.408077
     25          6           0       -5.749186    7.350419    0.692969
     26          7           0       -7.749452    0.701313   -0.096735
     27          6           0       -8.298505    1.871275    0.111934
     28          6           0       -9.912287    1.809748    0.025627
     29          6           0       -9.969447    0.314323   -0.577763
     30          6           0       -8.628726   -0.248735   -0.390404
     31          6           0      -10.578997    1.995599    1.471427
     32          6           0      -10.358663    0.338242   -2.072288
     33          6           0       -9.336018    0.958880   -2.994560
     34          7           0       -5.979931   -1.607153   -0.266659
     35          6           0       -7.151166   -2.297838   -0.305321
     36          6           0       -6.927313   -3.737095   -0.276703
     37          6           0       -5.521857   -3.810364   -0.178205
     38          6           0       -5.033574   -2.534240   -0.176380
     39          6           0       -7.983383   -4.871864   -0.245396
     40          6           0       -4.362005   -4.715598   -0.096797
     41          8           0       -4.273555   -5.932629   -0.135971
     42          6           0       -3.118800   -3.870116    0.094980
     43          6           0       -2.549609   -4.243002    1.406406
     44          8           0       -2.985870   -3.870540    2.494771
     45          8           0       -1.330231   -4.904614    1.148034
     46          6           0       -0.590719   -5.279848    2.396921
     47          6           0        3.978667   -2.272658   -1.176406
     48          6           0        4.877264   -1.402069   -0.351191
     49          6           0        6.227376   -1.473602   -0.438212
     50          6           0        7.127092   -2.329010   -1.343809
     51          6           0        7.093476   -0.637046    0.505425
     52          6           0        7.144632    0.957947    0.372857
     53          6           0        8.562404    1.642000    0.252038
     54          6           0        8.535891    2.703534   -0.843903
     55          6           0        7.256744    3.629776   -0.849310
     56          6           0        8.780966    1.977589   -2.296838
     57          6           0       10.184857    2.030928   -2.756321
     58          6           0       11.093157    0.708971   -2.468532
     59          6           0       12.441580    1.047960   -1.790276
     60          6           0       13.507368    1.317107   -2.875139
     61          6           0       12.975225    0.057348   -0.685351
     62          6           0       13.542395    0.551932    0.628660
     63          6           0       13.339120   -0.359921    1.899398
     64          6           0       12.647414    0.426491    3.040294
     65          6           0       12.704963   -0.147582    4.476058
     66          6           0       11.217132    0.833572    2.651207
     67          1           0       -1.962244    2.934162    0.528602
     68          1           0       -8.317179    3.964192    0.574017
     69          1           0       -9.240258   -2.212366   -0.462859
     70          1           0       -0.995905   -1.579700    1.274124
     71          1           0       -0.520435    0.882184   -0.144755
     72          1           0        0.583428    1.049312    1.696299
     73          1           0       -0.567822    0.123492    2.654270
     74          1           0       -0.839935    1.908634    2.147312
     75          1           0       -0.069733   -0.864785   -1.446801
     76          1           0       -1.307426   -2.113898   -1.685881
     77          1           0       -0.141480   -3.729146   -1.176130
     78          1           0        0.449905   -3.019936    0.340127
     79          1           0       -3.173436    6.382349    1.316977
     80          1           0       -2.473420    5.752522   -0.192794
     81          1           0       -2.099969    4.965720    1.195005
     82          1           0       -5.665539    7.538346    1.763406
     83          1           0       -6.347780    8.191146    0.342300
     84          1           0       -4.795241    7.450050    0.175394
     85          1           0      -10.388357    2.514000   -0.657633
     86          1           0      -10.657460   -0.284203    0.018825
     87          1           0       -9.788610    1.930883    2.219428
     88          1           0      -11.236576    1.179408    1.768250
     89          1           0      -11.098084    2.953859    1.495366
     90          1           0      -11.280634    0.916335   -2.126939
     91          1           0      -10.566629   -0.660980   -2.454152
     92          1           0       -9.813511    1.488738   -3.818609
     93          1           0       -8.737233    0.131045   -3.375523
     94          1           0       -8.810820    1.757009   -2.469006
     95          1           0       -7.696421   -5.602823    0.510787
     96          1           0       -7.932557   -5.299641   -1.246166
     97          1           0       -9.013349   -4.585993   -0.031504
     98          1           0       -2.455941   -4.149812   -0.724347
     99          1           0        0.042232   -6.135916    2.159509
    100          1           0       -1.228808   -5.588812    3.224870
    101          1           0        0.106451   -4.493198    2.685305
    102          1           0        3.910941   -1.849148   -2.178008
    103          1           0        4.374741   -3.286284   -1.229696
    104          1           0        4.349897   -0.702931    0.297061
    105          1           0        7.566989   -3.099562   -0.709661
    106          1           0        7.925980   -1.697178   -1.732399
    107          1           0        6.605692   -2.854540   -2.143563
    108          1           0        8.074230   -1.093813    0.638425
    109          1           0        6.628729   -0.703415    1.488365
    110          1           0        6.690042    1.305239    1.300319
    111          1           0        6.494062    1.221663   -0.460972
    112          1           0        9.209110    0.803270   -0.002786
    113          1           0        8.911893    2.017703    1.214358
    114          1           0        9.377391    3.322943   -0.532858
    115          1           0        6.443501    3.429141   -0.152250
    116          1           0        6.851228    3.621970   -1.861241
    117          1           0        7.556238    4.649146   -0.605554
    118          1           0        8.203547    2.294896   -3.165102
    119          1           0        8.542213    0.940359   -2.067124
    120          1           0       10.618633    2.946599   -2.353587
    121          1           0       10.173818    2.098898   -3.844639
    122          1           0       11.379945    0.160015   -3.365082
    123          1           0       10.508770    0.030566   -1.848256
    124          1           0       12.411113    2.023177   -1.304110
    125          1           0       14.423586    0.858826   -2.501894
    126          1           0       13.656840    2.371367   -3.110585
    127          1           0       13.249212    0.994502   -3.883522
    128          1           0       13.763872   -0.537061   -1.147758
    129          1           0       12.203024   -0.701568   -0.566144
    130          1           0       13.082444    1.527562    0.782777
    131          1           0       14.597325    0.818229    0.556585
    132          1           0       14.310525   -0.657987    2.295562
    133          1           0       12.739136   -1.221347    1.607471
    134          1           0       13.232835    1.340207    2.936470
    135          1           0       13.415548   -0.970362    4.548443
    136          1           0       11.811012   -0.263192    5.089154
    137          1           0       13.163794    0.644267    5.068134
    138          1           0       10.705533   -0.100180    2.416007
    139          1           0       11.140353    1.642593    1.924866
    140          1           0       10.737546    1.164121    3.572116
 ---------------------------------------------------------------------

 SCF Done:  E(RZINDO/S) =  -474.176669088     A.U. after   20 cycles

 Excitation energies and oscillator strengths:

 Excited State   1:      Singlet-A      1.2872 eV  963.19 nm  f=0.6164  <S**2>=0.000
     175 ->178         0.20110
     176 ->177         0.66023
 This state for optimization and/or second-order correction.
 Total Energy, E(CIS/TDA) =  -474.129364250
 Copying the excited state density for this state as the 1-particle RhoCI density.

 Excited State   2:      Singlet-A      1.9293 eV  642.63 nm  f=0.0592  <S**2>=0.000
     175 ->177         0.56113
     176 ->178        -0.40441

 Excited State   3:      Singlet-A      2.9182 eV  424.86 nm  f=0.0152  <S**2>=0.000
     170 ->177         0.27534
     170 ->178        -0.13931
     170 ->179         0.23939
     170 ->180         0.30852
     170 ->181         0.18464
     170 ->182        -0.22357
     170 ->186         0.18320
     170 ->187        -0.17142

 Excited State   4:      Singlet-A      2.9559 eV  419.45 nm  f=0.0016  <S**2>=0.000
     168 ->177         0.33481
     168 ->178        -0.12526
     168 ->179        -0.43832
     168 ->182        -0.20188
     168 ->186        -0.23394
     168 ->200        -0.10162

 Excited State   5:      Singlet-A      3.0682 eV  404.09 nm  f=1.2430  <S**2>=0.000
     175 ->177         0.38067
     176 ->178         0.54732

 The electronic state is 1-A.
 Alpha  occ. eigenvalues --   -1.87198  -1.83026  -1.78569  -1.74993  -1.71455
 Alpha  occ. eigenvalues --   -1.69537  -1.64377  -1.59997  -1.59626  -1.59326
 Alpha  occ. eigenvalues --   -1.54394  -1.50712  -1.49222  -1.47651  -1.46252
 Alpha  occ. eigenvalues --   -1.44115  -1.42911  -1.39381  -1.38378  -1.38164
 Alpha  occ. eigenvalues --   -1.35020  -1.33100  -1.31932  -1.30983  -1.29398
 Alpha  occ. eigenvalues --   -1.27249  -1.24914  -1.22087  -1.21436  -1.18874
 Alpha  occ. eigenvalues --   -1.17851  -1.16410  -1.15320  -1.14429  -1.13420
 Alpha  occ. eigenvalues --   -1.12934  -1.11299  -1.09801  -1.05351  -1.04054
 Alpha  occ. eigenvalues --   -1.03001  -1.01413  -0.99364  -0.97814  -0.97420
 Alpha  occ. eigenvalues --   -0.96851  -0.95328  -0.93908  -0.92842  -0.92430
 Alpha  occ. eigenvalues --   -0.91759  -0.89172  -0.87956  -0.86070  -0.85355
 Alpha  occ. eigenvalues --   -0.84918  -0.84140  -0.83947  -0.81323  -0.80956
 Alpha  occ. eigenvalues --   -0.80533  -0.78841  -0.77663  -0.77090  -0.76616
 Alpha  occ. eigenvalues --   -0.75605  -0.75256  -0.74968  -0.74786  -0.74052
 Alpha  occ. eigenvalues --   -0.73182  -0.72791  -0.72593  -0.71940  -0.71253
 Alpha  occ. eigenvalues --   -0.70475  -0.69841  -0.68878  -0.68537  -0.68328
 Alpha  occ. eigenvalues --   -0.67597  -0.67144  -0.66413  -0.66311  -0.65301
 Alpha  occ. eigenvalues --   -0.64717  -0.64599  -0.64468  -0.63796  -0.63665
 Alpha  occ. eigenvalues --   -0.63390  -0.62928  -0.62746  -0.62513  -0.61500
 Alpha  occ. eigenvalues --   -0.61279  -0.61158  -0.60747  -0.60269  -0.59995
 Alpha  occ. eigenvalues --   -0.59604  -0.59209  -0.58287  -0.57893  -0.57689
 Alpha  occ. eigenvalues --   -0.57582  -0.57117  -0.56735  -0.56448  -0.56407
 Alpha  occ. eigenvalues --   -0.55955  -0.55441  -0.54833  -0.54572  -0.54500
 Alpha  occ. eigenvalues --   -0.54048  -0.53935  -0.53879  -0.53180  -0.52896
 Alpha  occ. eigenvalues --   -0.52782  -0.52695  -0.51876  -0.51747  -0.51603
 Alpha  occ. eigenvalues --   -0.51071  -0.50935  -0.50704  -0.50566  -0.50338
 Alpha  occ. eigenvalues --   -0.50281  -0.49853  -0.49707  -0.49229  -0.49182
 Alpha  occ. eigenvalues --   -0.48870  -0.48777  -0.48542  -0.48365  -0.47708
 Alpha  occ. eigenvalues --   -0.47577  -0.47491  -0.47305  -0.46861  -0.46519
 Alpha  occ. eigenvalues --   -0.46364  -0.46230  -0.45836  -0.45699  -0.45254
 Alpha  occ. eigenvalues --   -0.45073  -0.44657  -0.44575  -0.44299  -0.43831
 Alpha  occ. eigenvalues --   -0.43694  -0.43178  -0.43008  -0.42952  -0.42534
 Alpha  occ. eigenvalues --   -0.42371  -0.42300  -0.41811  -0.39311  -0.39071
 Alpha  occ. eigenvalues --   -0.38559  -0.37158  -0.35386  -0.35087  -0.34370
 Alpha  occ. eigenvalues --   -0.33523  -0.32774  -0.32418  -0.32175  -0.26515
 Alpha  occ. eigenvalues --   -0.22018
 Alpha virt. eigenvalues --   -0.08545  -0.02130  -0.00696   0.01248   0.01997
 Alpha virt. eigenvalues --    0.02153   0.02823   0.03188   0.04410   0.04829
 Alpha virt. eigenvalues --    0.06364   0.06865   0.07495   0.07615   0.07647

 Mulliken charges:
               1
     1  Mg   0.423693
     2  C   -0.047771
     3  C   -0.085348
     4  C   -0.046926
     5  C   -0.062921
     6  N   -0.303940
     7  C    0.121833
     8  C    0.010623
     9  C   -0.001146
    10  C    0.114260
    11  C   -0.047814
    12  C   -0.015601
    13  C    0.004365
    14  C    0.467453
    15  O   -0.540376
    16  O   -0.258909
    17  N   -0.322626
    18  C    0.118329
    19  C   -0.014113
    20  C   -0.038332
    21  C    0.104505
    22  C   -0.047443
    23  C    0.332492
    24  O   -0.541687
    25  C   -0.022340
    26  N   -0.237350
    27  C    0.120364
    28  C   -0.020742
    29  C    0.009318
    30  C    0.151394
    31  C   -0.056069
    32  C   -0.019871
    33  C   -0.054328
    34  N   -0.336228
    35  C    0.114453
    36  C    0.034581
    37  C   -0.044735
    38  C    0.148387
    39  C   -0.035176
    40  C    0.339213
    41  O   -0.522268
    42  C    0.051733
    43  C    0.495129
    44  O   -0.516621
    45  O   -0.274698
    46  C    0.071282
    47  C    0.104423
    48  C   -0.084125
    49  C   -0.008763
    50  C   -0.039281
    51  C   -0.040232
    52  C   -0.039912
    53  C   -0.032621
    54  C   -0.012093
    55  C   -0.060201
    56  C   -0.035258
    57  C   -0.035857
    58  C   -0.037051
    59  C   -0.014981
    60  C   -0.064489
    61  C   -0.033435
    62  C   -0.032408
    63  C   -0.030889
    64  C   -0.012061
    65  C   -0.062058
    66  C   -0.060214
    67  H    0.012644
    68  H    0.051654
    69  H    0.014333
    70  H    0.039010
    71  H    0.023374
    72  H    0.009262
    73  H    0.028863
    74  H    0.034605
    75  H    0.034279
    76  H    0.031831
    77  H    0.039877
    78  H    0.036750
    79  H    0.026208
    80  H    0.031143
    81  H    0.022794
    82  H    0.044610
    83  H    0.033007
    84  H    0.026967
    85  H    0.041078
    86  H    0.023145
    87  H    0.023743
    88  H    0.020812
    89  H    0.029711
    90  H    0.013399
    91  H    0.016586
    92  H    0.014409
    93  H    0.027275
    94  H    0.029630
    95  H    0.038276
    96  H    0.037054
    97  H    0.027744
    98  H    0.060446
    99  H    0.028841
   100  H    0.056122
   101  H    0.037998
   102  H    0.057682
   103  H    0.045662
   104  H    0.041426
   105  H    0.028837
   106  H    0.031441
   107  H    0.022704
   108  H    0.022081
   109  H    0.011223
   110  H    0.016341
   111  H    0.026670
   112  H    0.018415
   113  H    0.022637
   114  H    0.018518
   115  H    0.026010
   116  H    0.019020
   117  H    0.012498
   118  H    0.027736
   119  H    0.018650
   120  H    0.025775
   121  H    0.011523
   122  H    0.025734
   123  H    0.016975
   124  H    0.015993
   125  H    0.021436
   126  H    0.012851
   127  H    0.017965
   128  H    0.009518
   129  H    0.013860
   130  H    0.014971
   131  H    0.018112
   132  H    0.018107
   133  H    0.021654
   134  H    0.015237
   135  H    0.022018
   136  H    0.033430
   137  H    0.005904
   138  H    0.020333
   139  H    0.029761
   140  H    0.007291
 Sum of Mulliken charges =  -0.00000

 Dipole moment (field-independent basis, Debye):
    X=              3.8653    Y=              3.2634    Z=              0.9724  Tot=              5.1513
 N-N= 4.332869607538D+03 E-N= 0.000000000000D+00  KE=-9.339738464928D+03
 Leave Link  601 at Wed Apr 27 00:25:28 2022, MaxMem=  6710886400 cpu:               0.8 elap:               0.0
 (Enter /sw/apps/gaussian-16.0/g16/l9999.exe)
 1\1\GINC-BP1-COMPUTE134\SP\RZINDO CIS\STO-3G\C55H74Mg1N4O6\OF15641\27-
 Apr-2022\0\\#p ZINDO=(nstates=5)\\step_101_chromophore_13 ZINDO\\0,1\M
 g,0,46.946,24.975,29.183\C,0,47.721,27.39,31.658\C,0,46.034,22.8,31.58
 9\C,0,46.811,22.653,26.79\C,0,48.222,27.277,26.937\N,0,46.836,25.1,31.
 383\C,0,47.232,26.182,32.214\C,0,46.806,25.882,33.695\C,0,46.369,24.37
 6,33.673\C,0,46.348,24.038,32.123\C,0,47.098,23.299,34.461\C,0,45.679,
 26.886,34.224\C,0,46.101,27.744,35.389\C,0,45.064,27.872,36.533\O,0,44

 Normal termination of Gaussian 16 at Wed Apr 27 00:25:28 2022.
