 Gaussian 16, Revision A.03,
 Gaussian 16:  ES64L-G16RevA.03 25-Dec-2016

 ------------------------------
 #p blyp/Def2SVP td=(nstates=5)
 ------------------------------

 ------------------------------------------------
 step_1_chromophore_18 TDDFT with blyp functional
 ------------------------------------------------
 Symbolic Z-matrix:
 Charge =  0 Multiplicity = 1

                         Standard orientation:
 ---------------------------------------------------------------------
 Center     Atomic      Atomic             Coordinates (Angstroms)
 Number     Number       Type             X           Y           Z
 ---------------------------------------------------------------------
      1         12           0        5.322567    1.088604    0.154651
      2          6           0        4.500049   -2.322266   -0.114420
      3          6           0        1.920774    1.784565   -0.029836
      4          6           0        6.166612    4.299499    0.081787
      5          6           0        8.746453    0.258435   -0.536947
      6          7           0        3.456843   -0.110253   -0.070418
      7          6           0        3.385735   -1.509891   -0.032555
      8          6           0        1.968926   -1.926541    0.316489
      9          6           0        1.103611   -0.658282    0.068583
     10          6           0        2.231675    0.414074   -0.011209
     11          6           0        0.115981   -0.716875   -1.138849
     12          6           0        1.803518   -2.550737    1.745409
     13          6           0        0.648260   -3.641172    1.850551
     14          6           0       -0.190333   -3.917074    0.599692
     15          8           0        0.041917   -4.749557   -0.255377
     16          8           0       -1.290277   -3.107078    0.477049
     17          7           0        4.225913    2.742359    0.170510
     18          6           0        2.844649    2.833246    0.170067
     19          6           0        2.425082    4.196887    0.318977
     20          6           0        3.627570    4.968253    0.226215
     21          6           0        4.716790    4.008563    0.194500
     22          6           0        0.931358    4.641380    0.368146
     23          6           0        3.785495    6.452792    0.175685
     24          8           0        4.894975    6.986150   -0.064229
     25          6           0        2.700093    7.561621    0.305831
     26          7           0        7.130335    2.162228   -0.446449
     27          6           0        7.239389    3.493919   -0.280345
     28          6           0        8.726018    3.927160   -0.334214
     29          6           0        9.551556    2.654282   -0.553382
     30          6           0        8.374209    1.586663   -0.457754
     31          6           0        8.940114    5.073363   -1.275140
     32          6           0       10.710033    2.387783    0.431628
     33          6           0       10.300462    2.276167    1.920915
     34          7           0        6.463619   -0.657129   -0.316461
     35          6           0        7.804139   -0.824124   -0.399526
     36          6           0        8.049710   -2.265034   -0.365306
     37          6           0        6.806646   -2.943778   -0.227293
     38          6           0        5.838188   -1.910848   -0.250798
     39          6           0        9.421343   -2.933951   -0.332564
     40          6           0        6.171432   -4.217731   -0.113341
     41          8           0        6.583204   -5.366106    0.028239
     42          6           0        4.547095   -3.853471   -0.096815
     43          6           0        3.848874   -4.640763   -1.189655
     44          8           0        3.850029   -4.312991   -2.360028
     45          8           0        3.144424   -5.697359   -0.658783
     46          6           0        2.728107   -6.782778   -1.540882
     47          6           0       -2.250582   -3.509565   -0.610237
     48          6           0       -3.519053   -2.769891   -0.504687
     49          6           0       -4.743688   -3.291757   -0.301055
     50          6           0       -5.085034   -4.752202   -0.153380
     51          6           0       -5.869439   -2.367851   -0.015980
     52          6           0       -6.019603   -1.873180    1.461457
     53          6           0       -6.652385   -0.503071    1.517259
     54          6           0       -8.096785   -0.620059    2.007423
     55          6           0       -8.178246   -0.509905    3.613639
     56          6           0       -9.134367    0.421688    1.398573
     57          6           0      -10.246857   -0.199350    0.399897
     58          6           0      -11.650183   -0.216301    1.011269
     59          6           0      -12.186993    1.208511    1.218033
     60          6           0      -12.370200    1.523173    2.740952
     61          6           0      -13.439689    1.336032    0.405733
     62          6           0      -13.119305    1.702437   -1.058186
     63          6           0      -14.448133    1.395861   -1.801827
     64          6           0      -15.224755    2.647770   -2.322819
     65          6           0      -16.705153    2.457878   -2.170606
     66          6           0      -14.772353    3.030327   -3.739079
     67          1           0        0.834761    1.877843    0.033086
     68          1           0        6.387858    5.365744    0.159639
     69          1           0        9.821067    0.080500   -0.610462
     70          1           0        1.643922   -2.707269   -0.371061
     71          1           0        0.528255   -0.485589    0.977655
     72          1           0        0.414675    0.151629   -1.724902
     73          1           0       -0.905746   -0.523450   -0.809896
     74          1           0        0.117553   -1.585243   -1.797621
     75          1           0        1.500210   -1.800405    2.474892
     76          1           0        2.766474   -2.948260    2.063437
     77          1           0       -0.099035   -3.254248    2.543503
     78          1           0        1.107293   -4.563502    2.205663
     79          1           0        0.849049    5.575150   -0.189430
     80          1           0        0.588556    4.847201    1.381600
     81          1           0        0.134178    3.991938    0.006756
     82          1           0        2.145576    7.449081    1.237896
     83          1           0        2.029908    7.592777   -0.553186
     84          1           0        3.092582    8.545950    0.558315
     85          1           0        8.915638    4.424846    0.615947
     86          1           0        9.796585    2.664903   -1.616017
     87          1           0        9.046836    6.028755   -0.761051
     88          1           0        8.134848    5.106373   -2.009182
     89          1           0        9.822649    4.973271   -1.907953
     90          1           0       11.336892    3.272686    0.319769
     91          1           0       11.266740    1.501327    0.126250
     92          1           0       10.609577    1.276875    2.226781
     93          1           0        9.218044    2.399189    1.958533
     94          1           0       10.688259    3.073719    2.554845
     95          1           0        9.471147   -3.753292    0.384020
     96          1           0       10.187654   -2.254761    0.039924
     97          1           0        9.688813   -3.205477   -1.354126
     98          1           0        4.197585   -4.244454    0.859077
     99          1           0        2.403946   -6.317063   -2.471915
    100          1           0        1.897458   -7.382461   -1.168560
    101          1           0        3.593753   -7.440547   -1.619360
    102          1           0       -2.372788   -4.590629   -0.550479
    103          1           0       -1.836044   -3.275915   -1.590944
    104          1           0       -3.466966   -1.681752   -0.525426
    105          1           0       -5.917223   -5.063210   -0.784571
    106          1           0       -5.523110   -4.969493    0.820095
    107          1           0       -4.303587   -5.465156   -0.418346
    108          1           0       -6.820482   -2.886381   -0.133990
    109          1           0       -5.872607   -1.551609   -0.738434
    110          1           0       -5.006078   -1.807624    1.859024
    111          1           0       -6.555331   -2.556348    2.120283
    112          1           0       -6.508371   -0.018827    0.551379
    113          1           0       -6.033343    0.116041    2.167461
    114          1           0       -8.515252   -1.600546    1.780422
    115          1           0       -8.651670    0.401221    3.978222
    116          1           0       -7.171213   -0.578925    4.025069
    117          1           0       -8.628169   -1.383960    4.084783
    118          1           0       -8.558829    1.110665    0.778866
    119          1           0       -9.639476    1.019541    2.156911
    120          1           0       -9.980418   -1.106940   -0.142355
    121          1           0      -10.298840    0.500301   -0.434171
    122          1           0      -11.383502   -0.630266    1.983860
    123          1           0      -12.166030   -0.847537    0.288013
    124          1           0      -11.492521    1.993461    0.917083
    125          1           0      -11.962413    0.788797    3.435493
    126          1           0      -13.442657    1.569424    2.926181
    127          1           0      -11.898188    2.479643    2.962939
    128          1           0      -14.014263    2.147399    0.851056
    129          1           0      -14.053898    0.436442    0.446802
    130          1           0      -12.182174    1.235418   -1.363151
    131          1           0      -12.912667    2.771287   -1.117697
    132          1           0      -15.150660    0.883181   -1.144765
    133          1           0      -14.221225    0.636515   -2.549717
    134          1           0      -14.828372    3.476934   -1.736857
    135          1           0      -16.948003    3.119925   -1.338717
    136          1           0      -17.058523    1.455804   -1.925926
    137          1           0      -17.161261    2.678300   -3.135917
    138          1           0      -15.464653    2.629837   -4.480275
    139          1           0      -13.733708    2.793251   -3.968667
    140          1           0      -14.761848    4.106574   -3.907583
 ---------------------------------------------------------------------

 SCF Done:  E(RB-LYP) =  -3007.38121896     A.U. after   21 cycles

 Excitation energies and oscillator strengths:

 Excited State   1:      Singlet-A      1.5979 eV  775.92 nm  f=0.0080  <S**2>=0.000
     244 -> 247        0.55717
     245 -> 247       -0.40652
     246 -> 247        0.15195
 This state for optimization and/or second-order correction.
 Total Energy, E(TD-HF/TD-DFT) =  -3007.32249755
 Copying the excited state density for this state as the 1-particle RhoCI density.

 Excited State   2:      Singlet-A      1.7836 eV  695.14 nm  f=0.3048  <S**2>=0.000
     244 -> 247       -0.11531
     245 -> 248        0.16018
     246 -> 247        0.67765
     246 <- 247       -0.15913

 Excited State   3:      Singlet-A      1.9103 eV  649.03 nm  f=0.0037  <S**2>=0.000
     243 -> 247        0.70482

 Excited State   4:      Singlet-A      1.9930 eV  622.08 nm  f=0.0981  <S**2>=0.000
     244 -> 247        0.39807
     245 -> 247        0.52360
     246 -> 248       -0.19369

 Excited State   5:      Singlet-A      2.3839 eV  520.09 nm  f=0.0015  <S**2>=0.000
     241 -> 247        0.66570
     242 -> 247       -0.18779

 The electronic state is 1-A.
 Alpha  occ. eigenvalues --  -46.27275 -18.82013 -18.80381 -18.76628 -18.76045
 Alpha  occ. eigenvalues --  -18.75374 -18.74922 -14.03362 -14.02749 -14.01635
 Alpha  occ. eigenvalues --  -14.00938 -10.04110 -10.02898 -10.00009  -9.99944
 Alpha  occ. eigenvalues --   -9.97908  -9.96733  -9.96395  -9.96279  -9.96231
 Alpha  occ. eigenvalues --   -9.96143  -9.95983  -9.95844  -9.95694  -9.94754
 Alpha  occ. eigenvalues --   -9.94459  -9.94190  -9.94165  -9.93948  -9.93681
 Alpha  occ. eigenvalues --   -9.93669  -9.93640  -9.93616  -9.93614  -9.93520
 Alpha  occ. eigenvalues --   -9.93435  -9.93367  -9.93002  -9.92978  -9.92975
 Alpha  occ. eigenvalues --   -9.92883  -9.92756  -9.92688  -9.92231  -9.92185
 Alpha  occ. eigenvalues --   -9.92103  -9.92035  -9.92033  -9.92012  -9.91990
 Alpha  occ. eigenvalues --   -9.91932  -9.91786  -9.91612  -9.91578  -9.91399
 Alpha  occ. eigenvalues --   -9.91340  -9.91241  -9.91218  -9.91203  -9.91201
 Alpha  occ. eigenvalues --   -9.90882  -9.90865  -9.90776  -9.90769  -9.90680
 Alpha  occ. eigenvalues --   -9.90653  -2.91943  -1.72338  -1.71841  -1.71660
 Alpha  occ. eigenvalues --   -0.97810  -0.95995  -0.90901  -0.89857  -0.89302
 Alpha  occ. eigenvalues --   -0.88644  -0.86438  -0.85727  -0.85529  -0.84622
 Alpha  occ. eigenvalues --   -0.74941  -0.74603  -0.73735  -0.72648  -0.72515
 Alpha  occ. eigenvalues --   -0.72087  -0.71457  -0.71281  -0.70731  -0.69926
 Alpha  occ. eigenvalues --   -0.69015  -0.68832  -0.68146  -0.67364  -0.66949
 Alpha  occ. eigenvalues --   -0.66237  -0.65526  -0.65171  -0.64419  -0.64218
 Alpha  occ. eigenvalues --   -0.63790  -0.62728  -0.62444  -0.61335  -0.61128
 Alpha  occ. eigenvalues --   -0.60535  -0.60143  -0.59578  -0.59548  -0.58772
 Alpha  occ. eigenvalues --   -0.58374  -0.57483  -0.56326  -0.55867  -0.55106
 Alpha  occ. eigenvalues --   -0.54041  -0.53861  -0.53261  -0.52755  -0.51495
 Alpha  occ. eigenvalues --   -0.51374  -0.50861  -0.50525  -0.50261  -0.49996
 Alpha  occ. eigenvalues --   -0.49719  -0.49276  -0.48572  -0.47370  -0.47222
 Alpha  occ. eigenvalues --   -0.47083  -0.45939  -0.45398  -0.44738  -0.43893
 Alpha  occ. eigenvalues --   -0.43304  -0.43175  -0.42784  -0.42643  -0.42407
 Alpha  occ. eigenvalues --   -0.42160  -0.42029  -0.41484  -0.41300  -0.40964
 Alpha  occ. eigenvalues --   -0.40667  -0.40456  -0.40237  -0.40106  -0.39910
 Alpha  occ. eigenvalues --   -0.39762  -0.39490  -0.39444  -0.39304  -0.39074
 Alpha  occ. eigenvalues --   -0.39027  -0.38848  -0.38418  -0.38152  -0.38002
 Alpha  occ. eigenvalues --   -0.37768  -0.37607  -0.37417  -0.37203  -0.36960
 Alpha  occ. eigenvalues --   -0.36875  -0.36736  -0.36635  -0.36488  -0.36450
 Alpha  occ. eigenvalues --   -0.36153  -0.35903  -0.35804  -0.35577  -0.35505
 Alpha  occ. eigenvalues --   -0.35422  -0.35271  -0.35123  -0.34903  -0.34561
 Alpha  occ. eigenvalues --   -0.34401  -0.34190  -0.34123  -0.33905  -0.33787
 Alpha  occ. eigenvalues --   -0.33611  -0.33454  -0.33307  -0.33179  -0.33123
 Alpha  occ. eigenvalues --   -0.32743  -0.32704  -0.32610  -0.32459  -0.32182
 Alpha  occ. eigenvalues --   -0.32137  -0.31992  -0.31590  -0.31434  -0.31387
 Alpha  occ. eigenvalues --   -0.31132  -0.31041  -0.30957  -0.30925  -0.30779
 Alpha  occ. eigenvalues --   -0.30667  -0.30609  -0.30350  -0.30175  -0.29851
 Alpha  occ. eigenvalues --   -0.29639  -0.29449  -0.29252  -0.29049  -0.28795
 Alpha  occ. eigenvalues --   -0.28600  -0.28592  -0.28391  -0.28062  -0.27678
 Alpha  occ. eigenvalues --   -0.27494  -0.27404  -0.27054  -0.26723  -0.26381
 Alpha  occ. eigenvalues --   -0.26166  -0.26005  -0.25661  -0.25386  -0.25282
 Alpha  occ. eigenvalues --   -0.25112  -0.24338  -0.23952  -0.23745  -0.23381
 Alpha  occ. eigenvalues --   -0.22944  -0.22253  -0.21892  -0.21198  -0.20829
 Alpha  occ. eigenvalues --   -0.20550  -0.20297  -0.18795  -0.17854  -0.17176
 Alpha  occ. eigenvalues --   -0.15924
 Alpha virt. eigenvalues --   -0.11862  -0.06727  -0.06410  -0.04665  -0.03630
 Alpha virt. eigenvalues --   -0.03412  -0.02988  -0.01772  -0.01381   0.00496
 Alpha virt. eigenvalues --    0.01530   0.02071   0.02453   0.02654   0.02970

 Mulliken charges:
               1
     1  Mg   0.705147
     2  C    0.058964
     3  C   -0.050476
     4  C   -0.030723
     5  C   -0.050416
     6  N   -0.203073
     7  C   -0.069650
     8  C   -0.004628
     9  C    0.005851
    10  C   -0.031635
    11  C    0.132284
    12  C    0.113659
    13  C    0.176324
    14  C    0.046501
    15  O   -0.194695
    16  O   -0.292734
    17  N   -0.313707
    18  C    0.171239
    19  C   -0.122195
    20  C    0.079530
    21  C    0.076409
    22  C    0.152347
    23  C   -0.074114
    24  O   -0.204938
    25  C    0.121958
    26  N   -0.196645
    27  C    0.027292
    28  C   -0.023542
    29  C    0.085203
    30  C   -0.026524
    31  C    0.132329
    32  C    0.085928
    33  C    0.070552
    34  N   -0.258657
    35  C    0.132546
    36  C   -0.194215
    37  C    0.132633
    38  C    0.052208
    39  C    0.165169
    40  C   -0.056317
    41  O   -0.129659
    42  C   -0.001902
    43  C    0.129018
    44  O   -0.175082
    45  O   -0.277911
    46  C    0.219630
    47  C    0.335829
    48  C   -0.091711
    49  C   -0.109483
    50  C    0.148378
    51  C    0.113296
    52  C    0.065887
    53  C    0.140122
    54  C   -0.058967
    55  C    0.078143
    56  C    0.089361
    57  C    0.017084
    58  C    0.158266
    59  C   -0.085224
    60  C    0.111910
    61  C    0.085256
    62  C    0.062329
    63  C    0.105128
    64  C   -0.093093
    65  C    0.135576
    66  C    0.101082
    67  H   -0.063302
    68  H   -0.044856
    69  H   -0.063160
    70  H    0.005100
    71  H   -0.028091
    72  H   -0.020879
    73  H   -0.008330
    74  H    0.017167
    75  H   -0.025457
    76  H   -0.014934
    77  H   -0.014373
    78  H    0.008188
    79  H   -0.009014
    80  H   -0.000515
    81  H   -0.005198
    82  H   -0.019568
    83  H    0.027357
    84  H   -0.012860
    85  H   -0.025289
    86  H   -0.027049
    87  H   -0.003553
    88  H   -0.007221
    89  H   -0.027141
    90  H   -0.021257
    91  H   -0.011750
    92  H    0.001047
    93  H    0.000409
    94  H   -0.004427
    95  H    0.009500
    96  H   -0.026298
    97  H    0.010992
    98  H   -0.008208
    99  H    0.017534
   100  H    0.015414
   101  H    0.016166
   102  H   -0.010572
   103  H    0.000780
   104  H   -0.042641
   105  H   -0.015943
   106  H   -0.005577
   107  H   -0.012595
   108  H   -0.045100
   109  H   -0.015211
   110  H   -0.041305
   111  H   -0.021676
   112  H   -0.042285
   113  H   -0.037192
   114  H   -0.025870
   115  H   -0.001934
   116  H   -0.030291
   117  H   -0.018488
   118  H   -0.040787
   119  H   -0.029782
   120  H   -0.038454
   121  H   -0.048590
   122  H   -0.032868
   123  H   -0.023678
   124  H   -0.036558
   125  H   -0.017752
   126  H   -0.025145
   127  H   -0.017610
   128  H   -0.048361
   129  H   -0.022852
   130  H   -0.029612
   131  H   -0.034716
   132  H   -0.038314
   133  H   -0.038185
   134  H   -0.037024
   135  H   -0.006205
   136  H   -0.011580
   137  H   -0.022723
   138  H   -0.018180
   139  H   -0.021056
   140  H   -0.028656
 Sum of Mulliken charges =  -0.00000

 Dipole moment (field-independent basis, Debye):
    X=             -4.7319    Y=              2.0655    Z=              3.6867  Tot=              6.3442
 Quadrupole moment (field-independent basis, Debye-Ang):
   XX=           -378.8851   YY=           -431.9331   ZZ=           -409.0489
   XY=             22.3156   XZ=             14.9630   YZ=             -2.2065

 Normal termination of Gaussian 16 at Fri Apr 29 05:53:59 2022.
