 Gaussian 16, Revision A.03,
 Gaussian 16:  ES64L-G16RevA.03 25-Dec-2016

 -----------------------------------
 #p cam-b3lyp/Def2SVP td=(nstates=5)
 -----------------------------------

 -----------------------------------------------------
 step_1_chromophore_18 TDDFT with cam-b3lyp functional
 -----------------------------------------------------
 Symbolic Z-matrix:
 Charge =  0 Multiplicity = 1

                         Standard orientation:
 ---------------------------------------------------------------------
 Center     Atomic      Atomic             Coordinates (Angstroms)
 Number     Number       Type             X           Y           Z
 ---------------------------------------------------------------------
      1         12           0        5.322567    1.088604    0.154651
      2          6           0        4.500049   -2.322266   -0.114420
      3          6           0        1.920774    1.784565   -0.029836
      4          6           0        6.166612    4.299499    0.081787
      5          6           0        8.746453    0.258435   -0.536947
      6          7           0        3.456843   -0.110253   -0.070418
      7          6           0        3.385735   -1.509891   -0.032555
      8          6           0        1.968926   -1.926541    0.316489
      9          6           0        1.103611   -0.658282    0.068583
     10          6           0        2.231675    0.414074   -0.011209
     11          6           0        0.115981   -0.716875   -1.138849
     12          6           0        1.803518   -2.550737    1.745409
     13          6           0        0.648260   -3.641172    1.850551
     14          6           0       -0.190333   -3.917074    0.599692
     15          8           0        0.041917   -4.749557   -0.255377
     16          8           0       -1.290277   -3.107078    0.477049
     17          7           0        4.225913    2.742359    0.170510
     18          6           0        2.844649    2.833246    0.170067
     19          6           0        2.425082    4.196887    0.318977
     20          6           0        3.627570    4.968253    0.226215
     21          6           0        4.716790    4.008563    0.194500
     22          6           0        0.931358    4.641380    0.368146
     23          6           0        3.785495    6.452792    0.175685
     24          8           0        4.894975    6.986150   -0.064229
     25          6           0        2.700093    7.561621    0.305831
     26          7           0        7.130335    2.162228   -0.446449
     27          6           0        7.239389    3.493919   -0.280345
     28          6           0        8.726018    3.927160   -0.334214
     29          6           0        9.551556    2.654282   -0.553382
     30          6           0        8.374209    1.586663   -0.457754
     31          6           0        8.940114    5.073363   -1.275140
     32          6           0       10.710033    2.387783    0.431628
     33          6           0       10.300462    2.276167    1.920915
     34          7           0        6.463619   -0.657129   -0.316461
     35          6           0        7.804139   -0.824124   -0.399526
     36          6           0        8.049710   -2.265034   -0.365306
     37          6           0        6.806646   -2.943778   -0.227293
     38          6           0        5.838188   -1.910848   -0.250798
     39          6           0        9.421343   -2.933951   -0.332564
     40          6           0        6.171432   -4.217731   -0.113341
     41          8           0        6.583204   -5.366106    0.028239
     42          6           0        4.547095   -3.853471   -0.096815
     43          6           0        3.848874   -4.640763   -1.189655
     44          8           0        3.850029   -4.312991   -2.360028
     45          8           0        3.144424   -5.697359   -0.658783
     46          6           0        2.728107   -6.782778   -1.540882
     47          6           0       -2.250582   -3.509565   -0.610237
     48          6           0       -3.519053   -2.769891   -0.504687
     49          6           0       -4.743688   -3.291757   -0.301055
     50          6           0       -5.085034   -4.752202   -0.153380
     51          6           0       -5.869439   -2.367851   -0.015980
     52          6           0       -6.019603   -1.873180    1.461457
     53          6           0       -6.652385   -0.503071    1.517259
     54          6           0       -8.096785   -0.620059    2.007423
     55          6           0       -8.178246   -0.509905    3.613639
     56          6           0       -9.134367    0.421688    1.398573
     57          6           0      -10.246857   -0.199350    0.399897
     58          6           0      -11.650183   -0.216301    1.011269
     59          6           0      -12.186993    1.208511    1.218033
     60          6           0      -12.370200    1.523173    2.740952
     61          6           0      -13.439689    1.336032    0.405733
     62          6           0      -13.119305    1.702437   -1.058186
     63          6           0      -14.448133    1.395861   -1.801827
     64          6           0      -15.224755    2.647770   -2.322819
     65          6           0      -16.705153    2.457878   -2.170606
     66          6           0      -14.772353    3.030327   -3.739079
     67          1           0        0.834761    1.877843    0.033086
     68          1           0        6.387858    5.365744    0.159639
     69          1           0        9.821067    0.080500   -0.610462
     70          1           0        1.643922   -2.707269   -0.371061
     71          1           0        0.528255   -0.485589    0.977655
     72          1           0        0.414675    0.151629   -1.724902
     73          1           0       -0.905746   -0.523450   -0.809896
     74          1           0        0.117553   -1.585243   -1.797621
     75          1           0        1.500210   -1.800405    2.474892
     76          1           0        2.766474   -2.948260    2.063437
     77          1           0       -0.099035   -3.254248    2.543503
     78          1           0        1.107293   -4.563502    2.205663
     79          1           0        0.849049    5.575150   -0.189430
     80          1           0        0.588556    4.847201    1.381600
     81          1           0        0.134178    3.991938    0.006756
     82          1           0        2.145576    7.449081    1.237896
     83          1           0        2.029908    7.592777   -0.553186
     84          1           0        3.092582    8.545950    0.558315
     85          1           0        8.915638    4.424846    0.615947
     86          1           0        9.796585    2.664903   -1.616017
     87          1           0        9.046836    6.028755   -0.761051
     88          1           0        8.134848    5.106373   -2.009182
     89          1           0        9.822649    4.973271   -1.907953
     90          1           0       11.336892    3.272686    0.319769
     91          1           0       11.266740    1.501327    0.126250
     92          1           0       10.609577    1.276875    2.226781
     93          1           0        9.218044    2.399189    1.958533
     94          1           0       10.688259    3.073719    2.554845
     95          1           0        9.471147   -3.753292    0.384020
     96          1           0       10.187654   -2.254761    0.039924
     97          1           0        9.688813   -3.205477   -1.354126
     98          1           0        4.197585   -4.244454    0.859077
     99          1           0        2.403946   -6.317063   -2.471915
    100          1           0        1.897458   -7.382461   -1.168560
    101          1           0        3.593753   -7.440547   -1.619360
    102          1           0       -2.372788   -4.590629   -0.550479
    103          1           0       -1.836044   -3.275915   -1.590944
    104          1           0       -3.466966   -1.681752   -0.525426
    105          1           0       -5.917223   -5.063210   -0.784571
    106          1           0       -5.523110   -4.969493    0.820095
    107          1           0       -4.303587   -5.465156   -0.418346
    108          1           0       -6.820482   -2.886381   -0.133990
    109          1           0       -5.872607   -1.551609   -0.738434
    110          1           0       -5.006078   -1.807624    1.859024
    111          1           0       -6.555331   -2.556348    2.120283
    112          1           0       -6.508371   -0.018827    0.551379
    113          1           0       -6.033343    0.116041    2.167461
    114          1           0       -8.515252   -1.600546    1.780422
    115          1           0       -8.651670    0.401221    3.978222
    116          1           0       -7.171213   -0.578925    4.025069
    117          1           0       -8.628169   -1.383960    4.084783
    118          1           0       -8.558829    1.110665    0.778866
    119          1           0       -9.639476    1.019541    2.156911
    120          1           0       -9.980418   -1.106940   -0.142355
    121          1           0      -10.298840    0.500301   -0.434171
    122          1           0      -11.383502   -0.630266    1.983860
    123          1           0      -12.166030   -0.847537    0.288013
    124          1           0      -11.492521    1.993461    0.917083
    125          1           0      -11.962413    0.788797    3.435493
    126          1           0      -13.442657    1.569424    2.926181
    127          1           0      -11.898188    2.479643    2.962939
    128          1           0      -14.014263    2.147399    0.851056
    129          1           0      -14.053898    0.436442    0.446802
    130          1           0      -12.182174    1.235418   -1.363151
    131          1           0      -12.912667    2.771287   -1.117697
    132          1           0      -15.150660    0.883181   -1.144765
    133          1           0      -14.221225    0.636515   -2.549717
    134          1           0      -14.828372    3.476934   -1.736857
    135          1           0      -16.948003    3.119925   -1.338717
    136          1           0      -17.058523    1.455804   -1.925926
    137          1           0      -17.161261    2.678300   -3.135917
    138          1           0      -15.464653    2.629837   -4.480275
    139          1           0      -13.733708    2.793251   -3.968667
    140          1           0      -14.761848    4.106574   -3.907583
 ---------------------------------------------------------------------

 SCF Done:  E(RCAM-B3LYP) =  -3007.17057799     A.U. after   17 cycles

 Excitation energies and oscillator strengths:

 Excited State   1:      Singlet-A      1.6583 eV  747.67 nm  f=0.3922  <S**2>=0.000
     245 -> 248        0.16728
     246 -> 247        0.68824
     245 <- 248        0.10527
 This state for optimization and/or second-order correction.
 Total Energy, E(TD-HF/TD-DFT) =  -3007.10963723
 Copying the excited state density for this state as the 1-particle RhoCI density.

 Excited State   2:      Singlet-A      2.1908 eV  565.93 nm  f=0.1654  <S**2>=0.000
     245 -> 247        0.65727
     246 -> 248       -0.24465

 Excited State   3:      Singlet-A      3.2852 eV  377.40 nm  f=0.0033  <S**2>=0.000
     243 -> 247        0.53102
     243 -> 248        0.13495
     243 -> 249       -0.31608
     243 -> 251        0.19514

 Excited State   4:      Singlet-A      3.2993 eV  375.79 nm  f=0.0006  <S**2>=0.000
     241 -> 247       -0.12286
     244 -> 247        0.66405
     246 -> 248        0.10128

 Excited State   5:      Singlet-A      3.4949 eV  354.76 nm  f=0.0101  <S**2>=0.000
     239 -> 247        0.11511
     240 -> 247       -0.22162
     241 -> 247        0.22196
     242 -> 247        0.49834
     242 -> 249        0.20751
     242 -> 251        0.14505
     246 -> 248        0.16557

 The electronic state is 1-A.
 Alpha  occ. eigenvalues --  -46.88801 -19.24904 -19.23238 -19.19602 -19.19110
 Alpha  occ. eigenvalues --  -19.18483 -19.18277 -14.42464 -14.41317 -14.40167
 Alpha  occ. eigenvalues --  -14.39246 -10.39360 -10.38368 -10.35395 -10.35322
 Alpha  occ. eigenvalues --  -10.32076 -10.31430 -10.30813 -10.30771 -10.30619
 Alpha  occ. eigenvalues --  -10.30353 -10.30244 -10.30208 -10.29729 -10.29412
 Alpha  occ. eigenvalues --  -10.28885 -10.28150 -10.28142 -10.28062 -10.28029
 Alpha  occ. eigenvalues --  -10.27903 -10.27873 -10.27839 -10.27800 -10.27782
 Alpha  occ. eigenvalues --  -10.27652 -10.27409 -10.27360 -10.26789 -10.26710
 Alpha  occ. eigenvalues --  -10.26638 -10.26476 -10.26432 -10.26272 -10.26051
 Alpha  occ. eigenvalues --  -10.25963 -10.25958 -10.25955 -10.25668 -10.25535
 Alpha  occ. eigenvalues --  -10.25467 -10.25462 -10.25417 -10.25240 -10.25129
 Alpha  occ. eigenvalues --  -10.25077 -10.25055 -10.24944 -10.24888 -10.24821
 Alpha  occ. eigenvalues --  -10.24522 -10.24457 -10.24422 -10.24416 -10.24327
 Alpha  occ. eigenvalues --  -10.24251  -3.17371  -1.92242  -1.91827  -1.91685
 Alpha  occ. eigenvalues --   -1.16273  -1.14507  -1.09184  -1.08329  -1.07103
 Alpha  occ. eigenvalues --   -1.06567  -1.04230  -1.03376  -1.03101  -1.01986
 Alpha  occ. eigenvalues --   -0.92004  -0.91551  -0.90614  -0.89422  -0.89113
 Alpha  occ. eigenvalues --   -0.88797  -0.88079  -0.88027  -0.87250  -0.86696
 Alpha  occ. eigenvalues --   -0.85377  -0.85153  -0.84436  -0.83418  -0.83021
 Alpha  occ. eigenvalues --   -0.82326  -0.81476  -0.81107  -0.80263  -0.80041
 Alpha  occ. eigenvalues --   -0.79891  -0.78621  -0.78067  -0.76705  -0.76519
 Alpha  occ. eigenvalues --   -0.75919  -0.75511  -0.74903  -0.74816  -0.73984
 Alpha  occ. eigenvalues --   -0.73438  -0.72430  -0.71211  -0.70682  -0.69700
 Alpha  occ. eigenvalues --   -0.68739  -0.68457  -0.67782  -0.67189  -0.65753
 Alpha  occ. eigenvalues --   -0.65589  -0.64930  -0.64613  -0.64053  -0.63937
 Alpha  occ. eigenvalues --   -0.63727  -0.62978  -0.62455  -0.60991  -0.60831
 Alpha  occ. eigenvalues --   -0.60743  -0.59475  -0.58824  -0.57961  -0.57158
 Alpha  occ. eigenvalues --   -0.56770  -0.56380  -0.55948  -0.55805  -0.55521
 Alpha  occ. eigenvalues --   -0.55188  -0.54963  -0.54605  -0.54426  -0.53921
 Alpha  occ. eigenvalues --   -0.53385  -0.53210  -0.52869  -0.52775  -0.52616
 Alpha  occ. eigenvalues --   -0.52478  -0.52339  -0.52274  -0.52065  -0.51853
 Alpha  occ. eigenvalues --   -0.51689  -0.51482  -0.50860  -0.50747  -0.50422
 Alpha  occ. eigenvalues --   -0.50142  -0.49867  -0.49809  -0.49439  -0.49354
 Alpha  occ. eigenvalues --   -0.49088  -0.48975  -0.48828  -0.48796  -0.48623
 Alpha  occ. eigenvalues --   -0.48488  -0.48314  -0.48167  -0.47909  -0.47665
 Alpha  occ. eigenvalues --   -0.47503  -0.47423  -0.47300  -0.46867  -0.46426
 Alpha  occ. eigenvalues --   -0.46312  -0.46140  -0.45851  -0.45689  -0.45566
 Alpha  occ. eigenvalues --   -0.45554  -0.45235  -0.45100  -0.44971  -0.44813
 Alpha  occ. eigenvalues --   -0.44402  -0.44224  -0.44115  -0.44084  -0.43955
 Alpha  occ. eigenvalues --   -0.43911  -0.43604  -0.43305  -0.43082  -0.42920
 Alpha  occ. eigenvalues --   -0.42759  -0.42550  -0.42406  -0.42305  -0.42180
 Alpha  occ. eigenvalues --   -0.41916  -0.41811  -0.41668  -0.41495  -0.41386
 Alpha  occ. eigenvalues --   -0.41108  -0.40668  -0.40587  -0.40210  -0.39817
 Alpha  occ. eigenvalues --   -0.39607  -0.39601  -0.39514  -0.39399  -0.39122
 Alpha  occ. eigenvalues --   -0.38561  -0.38254  -0.37878  -0.37566  -0.37462
 Alpha  occ. eigenvalues --   -0.36974  -0.36710  -0.36662  -0.36309  -0.36213
 Alpha  occ. eigenvalues --   -0.35760  -0.35028  -0.34807  -0.34389  -0.33833
 Alpha  occ. eigenvalues --   -0.33710  -0.33345  -0.32784  -0.31332  -0.30687
 Alpha  occ. eigenvalues --   -0.30634  -0.30488  -0.30209  -0.29336  -0.24003
 Alpha  occ. eigenvalues --   -0.21270
 Alpha virt. eigenvalues --   -0.09126  -0.01299   0.00088   0.01455   0.02311
 Alpha virt. eigenvalues --    0.03832   0.04713   0.05816   0.06077   0.07515
 Alpha virt. eigenvalues --    0.07979   0.08514   0.08727   0.09131   0.09260

 Mulliken charges:
               1
     1  Mg   0.835374
     2  C    0.027344
     3  C   -0.056742
     4  C   -0.053841
     5  C   -0.059040
     6  N   -0.268860
     7  C   -0.026476
     8  C   -0.059313
     9  C   -0.042983
    10  C   -0.015295
    11  C    0.075714
    12  C    0.066961
    13  C    0.108198
    14  C    0.119191
    15  O   -0.233593
    16  O   -0.355646
    17  N   -0.405741
    18  C    0.178066
    19  C   -0.125360
    20  C   -0.001001
    21  C    0.109671
    22  C    0.101993
    23  C   -0.004366
    24  O   -0.244248
    25  C    0.051107
    26  N   -0.270175
    27  C    0.053221
    28  C   -0.078151
    29  C    0.027890
    30  C   -0.007741
    31  C    0.069659
    32  C    0.031323
    33  C    0.009351
    34  N   -0.344058
    35  C    0.135752
    36  C   -0.189494
    37  C    0.049707
    38  C    0.087502
    39  C    0.114123
    40  C    0.042008
    41  O   -0.170123
    42  C   -0.066806
    43  C    0.215218
    44  O   -0.211473
    45  O   -0.342161
    46  C    0.180363
    47  C    0.300731
    48  C   -0.106261
    49  C   -0.135688
    50  C    0.085090
    51  C    0.051908
    52  C    0.014166
    53  C    0.080003
    54  C   -0.114534
    55  C    0.024006
    56  C    0.041239
    57  C   -0.030996
    58  C    0.100027
    59  C   -0.146025
    60  C    0.054857
    61  C    0.032541
    62  C    0.011515
    63  C    0.046693
    64  C   -0.148613
    65  C    0.069401
    66  C    0.042768
    67  H   -0.027503
    68  H   -0.004364
    69  H   -0.028397
    70  H    0.035662
    71  H    0.007816
    72  H    0.005473
    73  H    0.013454
    74  H    0.040598
    75  H    0.005095
    76  H    0.014498
    77  H    0.019634
    78  H    0.040435
    79  H    0.015661
    80  H    0.027392
    81  H    0.023221
    82  H    0.009196
    83  H    0.052290
    84  H    0.022745
    85  H    0.010168
    86  H    0.009968
    87  H    0.021042
    88  H    0.019800
    89  H   -0.000468
    90  H    0.007087
    91  H    0.015372
    92  H    0.024391
    93  H    0.019953
    94  H    0.019627
    95  H    0.034802
    96  H   -0.002601
    97  H    0.036136
    98  H    0.033564
    99  H    0.043343
   100  H    0.037929
   101  H    0.037793
   102  H    0.019884
   103  H    0.027493
   104  H   -0.010619
   105  H    0.010508
   106  H    0.018907
   107  H    0.012777
   108  H   -0.015104
   109  H    0.014775
   110  H   -0.009892
   111  H    0.004582
   112  H   -0.012634
   113  H   -0.006083
   114  H    0.004370
   115  H    0.020234
   116  H   -0.006279
   117  H    0.005494
   118  H   -0.011170
   119  H   -0.005111
   120  H   -0.009386
   121  H   -0.022306
   122  H   -0.005657
   123  H    0.005549
   124  H   -0.004383
   125  H    0.005527
   126  H    0.000711
   127  H    0.006376
   128  H   -0.018521
   129  H    0.005151
   130  H   -0.003169
   131  H   -0.006936
   132  H   -0.009142
   133  H   -0.008403
   134  H   -0.005638
   135  H    0.017633
   136  H    0.013065
   137  H    0.002110
   138  H    0.004768
   139  H    0.003081
   140  H   -0.003252
 Sum of Mulliken charges =  -0.00000

 Dipole moment (field-independent basis, Debye):
    X=             -5.4395    Y=              2.6912    Z=              3.9578  Tot=              7.2454
 Quadrupole moment (field-independent basis, Debye-Ang):
   XX=           -383.8746   YY=           -426.7844   ZZ=           -409.1260
   XY=             24.0422   XZ=             15.9822   YZ=             -1.8583

 Normal termination of Gaussian 16 at Fri Apr 29 04:56:10 2022.
