 Gaussian 16, Revision A.03,
 Gaussian 16:  ES64L-G16RevA.03 25-Dec-2016

 ---------------------------------
 #p PBE1PBE/Def2SVP td=(nstates=5)
 ---------------------------------

 ---------------------------------------------------
 step_1_chromophore_18 TDDFT with PBE1PBE functional
 ---------------------------------------------------
 Symbolic Z-matrix:
 Charge =  0 Multiplicity = 1

                         Standard orientation:
 ---------------------------------------------------------------------
 Center     Atomic      Atomic             Coordinates (Angstroms)
 Number     Number       Type             X           Y           Z
 ---------------------------------------------------------------------
      1         12           0        5.322567    1.088604    0.154651
      2          6           0        4.500049   -2.322266   -0.114420
      3          6           0        1.920774    1.784565   -0.029836
      4          6           0        6.166612    4.299499    0.081787
      5          6           0        8.746453    0.258435   -0.536947
      6          7           0        3.456843   -0.110253   -0.070418
      7          6           0        3.385735   -1.509891   -0.032555
      8          6           0        1.968926   -1.926541    0.316489
      9          6           0        1.103611   -0.658282    0.068583
     10          6           0        2.231675    0.414074   -0.011209
     11          6           0        0.115981   -0.716875   -1.138849
     12          6           0        1.803518   -2.550737    1.745409
     13          6           0        0.648260   -3.641172    1.850551
     14          6           0       -0.190333   -3.917074    0.599692
     15          8           0        0.041917   -4.749557   -0.255377
     16          8           0       -1.290277   -3.107078    0.477049
     17          7           0        4.225913    2.742359    0.170510
     18          6           0        2.844649    2.833246    0.170067
     19          6           0        2.425082    4.196887    0.318977
     20          6           0        3.627570    4.968253    0.226215
     21          6           0        4.716790    4.008563    0.194500
     22          6           0        0.931358    4.641380    0.368146
     23          6           0        3.785495    6.452792    0.175685
     24          8           0        4.894975    6.986150   -0.064229
     25          6           0        2.700093    7.561621    0.305831
     26          7           0        7.130335    2.162228   -0.446449
     27          6           0        7.239389    3.493919   -0.280345
     28          6           0        8.726018    3.927160   -0.334214
     29          6           0        9.551556    2.654282   -0.553382
     30          6           0        8.374209    1.586663   -0.457754
     31          6           0        8.940114    5.073363   -1.275140
     32          6           0       10.710033    2.387783    0.431628
     33          6           0       10.300462    2.276167    1.920915
     34          7           0        6.463619   -0.657129   -0.316461
     35          6           0        7.804139   -0.824124   -0.399526
     36          6           0        8.049710   -2.265034   -0.365306
     37          6           0        6.806646   -2.943778   -0.227293
     38          6           0        5.838188   -1.910848   -0.250798
     39          6           0        9.421343   -2.933951   -0.332564
     40          6           0        6.171432   -4.217731   -0.113341
     41          8           0        6.583204   -5.366106    0.028239
     42          6           0        4.547095   -3.853471   -0.096815
     43          6           0        3.848874   -4.640763   -1.189655
     44          8           0        3.850029   -4.312991   -2.360028
     45          8           0        3.144424   -5.697359   -0.658783
     46          6           0        2.728107   -6.782778   -1.540882
     47          6           0       -2.250582   -3.509565   -0.610237
     48          6           0       -3.519053   -2.769891   -0.504687
     49          6           0       -4.743688   -3.291757   -0.301055
     50          6           0       -5.085034   -4.752202   -0.153380
     51          6           0       -5.869439   -2.367851   -0.015980
     52          6           0       -6.019603   -1.873180    1.461457
     53          6           0       -6.652385   -0.503071    1.517259
     54          6           0       -8.096785   -0.620059    2.007423
     55          6           0       -8.178246   -0.509905    3.613639
     56          6           0       -9.134367    0.421688    1.398573
     57          6           0      -10.246857   -0.199350    0.399897
     58          6           0      -11.650183   -0.216301    1.011269
     59          6           0      -12.186993    1.208511    1.218033
     60          6           0      -12.370200    1.523173    2.740952
     61          6           0      -13.439689    1.336032    0.405733
     62          6           0      -13.119305    1.702437   -1.058186
     63          6           0      -14.448133    1.395861   -1.801827
     64          6           0      -15.224755    2.647770   -2.322819
     65          6           0      -16.705153    2.457878   -2.170606
     66          6           0      -14.772353    3.030327   -3.739079
     67          1           0        0.834761    1.877843    0.033086
     68          1           0        6.387858    5.365744    0.159639
     69          1           0        9.821067    0.080500   -0.610462
     70          1           0        1.643922   -2.707269   -0.371061
     71          1           0        0.528255   -0.485589    0.977655
     72          1           0        0.414675    0.151629   -1.724902
     73          1           0       -0.905746   -0.523450   -0.809896
     74          1           0        0.117553   -1.585243   -1.797621
     75          1           0        1.500210   -1.800405    2.474892
     76          1           0        2.766474   -2.948260    2.063437
     77          1           0       -0.099035   -3.254248    2.543503
     78          1           0        1.107293   -4.563502    2.205663
     79          1           0        0.849049    5.575150   -0.189430
     80          1           0        0.588556    4.847201    1.381600
     81          1           0        0.134178    3.991938    0.006756
     82          1           0        2.145576    7.449081    1.237896
     83          1           0        2.029908    7.592777   -0.553186
     84          1           0        3.092582    8.545950    0.558315
     85          1           0        8.915638    4.424846    0.615947
     86          1           0        9.796585    2.664903   -1.616017
     87          1           0        9.046836    6.028755   -0.761051
     88          1           0        8.134848    5.106373   -2.009182
     89          1           0        9.822649    4.973271   -1.907953
     90          1           0       11.336892    3.272686    0.319769
     91          1           0       11.266740    1.501327    0.126250
     92          1           0       10.609577    1.276875    2.226781
     93          1           0        9.218044    2.399189    1.958533
     94          1           0       10.688259    3.073719    2.554845
     95          1           0        9.471147   -3.753292    0.384020
     96          1           0       10.187654   -2.254761    0.039924
     97          1           0        9.688813   -3.205477   -1.354126
     98          1           0        4.197585   -4.244454    0.859077
     99          1           0        2.403946   -6.317063   -2.471915
    100          1           0        1.897458   -7.382461   -1.168560
    101          1           0        3.593753   -7.440547   -1.619360
    102          1           0       -2.372788   -4.590629   -0.550479
    103          1           0       -1.836044   -3.275915   -1.590944
    104          1           0       -3.466966   -1.681752   -0.525426
    105          1           0       -5.917223   -5.063210   -0.784571
    106          1           0       -5.523110   -4.969493    0.820095
    107          1           0       -4.303587   -5.465156   -0.418346
    108          1           0       -6.820482   -2.886381   -0.133990
    109          1           0       -5.872607   -1.551609   -0.738434
    110          1           0       -5.006078   -1.807624    1.859024
    111          1           0       -6.555331   -2.556348    2.120283
    112          1           0       -6.508371   -0.018827    0.551379
    113          1           0       -6.033343    0.116041    2.167461
    114          1           0       -8.515252   -1.600546    1.780422
    115          1           0       -8.651670    0.401221    3.978222
    116          1           0       -7.171213   -0.578925    4.025069
    117          1           0       -8.628169   -1.383960    4.084783
    118          1           0       -8.558829    1.110665    0.778866
    119          1           0       -9.639476    1.019541    2.156911
    120          1           0       -9.980418   -1.106940   -0.142355
    121          1           0      -10.298840    0.500301   -0.434171
    122          1           0      -11.383502   -0.630266    1.983860
    123          1           0      -12.166030   -0.847537    0.288013
    124          1           0      -11.492521    1.993461    0.917083
    125          1           0      -11.962413    0.788797    3.435493
    126          1           0      -13.442657    1.569424    2.926181
    127          1           0      -11.898188    2.479643    2.962939
    128          1           0      -14.014263    2.147399    0.851056
    129          1           0      -14.053898    0.436442    0.446802
    130          1           0      -12.182174    1.235418   -1.363151
    131          1           0      -12.912667    2.771287   -1.117697
    132          1           0      -15.150660    0.883181   -1.144765
    133          1           0      -14.221225    0.636515   -2.549717
    134          1           0      -14.828372    3.476934   -1.736857
    135          1           0      -16.948003    3.119925   -1.338717
    136          1           0      -17.058523    1.455804   -1.925926
    137          1           0      -17.161261    2.678300   -3.135917
    138          1           0      -15.464653    2.629837   -4.480275
    139          1           0      -13.733708    2.793251   -3.968667
    140          1           0      -14.761848    4.106574   -3.907583
 ---------------------------------------------------------------------

 SCF Done:  E(RPBE1PBE) =  -3005.35843482     A.U. after   15 cycles

 Excitation energies and oscillator strengths:

 Excited State   1:      Singlet-A      1.8173 eV  682.23 nm  f=0.3747  <S**2>=0.000
     245 -> 248       -0.16223
     246 -> 247        0.69669
     246 <- 247       -0.11860
 This state for optimization and/or second-order correction.
 Total Energy, E(TD-HF/TD-DFT) =  -3005.29164935
 Copying the excited state density for this state as the 1-particle RhoCI density.

 Excited State   2:      Singlet-A      2.1891 eV  566.37 nm  f=0.1516  <S**2>=0.000
     245 -> 247        0.66519
     246 -> 248        0.21931

 Excited State   3:      Singlet-A      2.7579 eV  449.57 nm  f=0.0017  <S**2>=0.000
     244 -> 247        0.66768
     244 -> 249       -0.16279

 Excited State   4:      Singlet-A      2.9301 eV  423.14 nm  f=0.0032  <S**2>=0.000
     242 -> 247        0.34067
     242 -> 249        0.10900
     243 -> 247        0.59213

 Excited State   5:      Singlet-A      2.9945 eV  414.05 nm  f=0.0021  <S**2>=0.000
     242 -> 247        0.58943
     243 -> 247       -0.34922

 The electronic state is 1-A.
 Alpha  occ. eigenvalues --  -46.92222 -19.25552 -19.23913 -19.19860 -19.19440
 Alpha  occ. eigenvalues --  -19.18696 -19.18446 -14.41844 -14.40972 -14.39785
 Alpha  occ. eigenvalues --  -14.39005 -10.36412 -10.35369 -10.32550 -10.32476
 Alpha  occ. eigenvalues --  -10.29438 -10.28990 -10.28609 -10.28422 -10.28283
 Alpha  occ. eigenvalues --  -10.28115 -10.27906 -10.27606 -10.27431 -10.26882
 Alpha  occ. eigenvalues --  -10.26775 -10.25803 -10.25791 -10.25775 -10.25737
 Alpha  occ. eigenvalues --  -10.25655 -10.25580 -10.25470 -10.25469 -10.25465
 Alpha  occ. eigenvalues --  -10.25249 -10.25065 -10.24853 -10.24601 -10.24445
 Alpha  occ. eigenvalues --  -10.24325 -10.24300 -10.23816 -10.23753 -10.23580
 Alpha  occ. eigenvalues --  -10.23514 -10.23457 -10.23383 -10.23237 -10.23120
 Alpha  occ. eigenvalues --  -10.23020 -10.23017 -10.22996 -10.22990 -10.22805
 Alpha  occ. eigenvalues --  -10.22753 -10.22519 -10.22505 -10.22441 -10.22303
 Alpha  occ. eigenvalues --  -10.22087 -10.22041 -10.21886 -10.21837 -10.21793
 Alpha  occ. eigenvalues --  -10.21622  -3.14371  -1.87180  -1.86745  -1.86607
 Alpha  occ. eigenvalues --   -1.11054  -1.09279  -1.04017  -1.02962  -1.01955
 Alpha  occ. eigenvalues --   -1.01402  -0.98792  -0.97977  -0.97775  -0.96758
 Alpha  occ. eigenvalues --   -0.86406  -0.85690  -0.84701  -0.83623  -0.83430
 Alpha  occ. eigenvalues --   -0.82913  -0.82293  -0.82204  -0.81609  -0.80901
 Alpha  occ. eigenvalues --   -0.79625  -0.79517  -0.78595  -0.77716  -0.77275
 Alpha  occ. eigenvalues --   -0.76619  -0.75740  -0.75330  -0.74529  -0.74177
 Alpha  occ. eigenvalues --   -0.74040  -0.72778  -0.72328  -0.71049  -0.70696
 Alpha  occ. eigenvalues --   -0.70006  -0.69854  -0.69180  -0.69017  -0.68160
 Alpha  occ. eigenvalues --   -0.67739  -0.66908  -0.65541  -0.65060  -0.64076
 Alpha  occ. eigenvalues --   -0.63195  -0.62693  -0.62261  -0.61409  -0.60091
 Alpha  occ. eigenvalues --   -0.59881  -0.59483  -0.58750  -0.58617  -0.58462
 Alpha  occ. eigenvalues --   -0.57881  -0.57508  -0.56630  -0.55561  -0.55318
 Alpha  occ. eigenvalues --   -0.55148  -0.54023  -0.53434  -0.52652  -0.51838
 Alpha  occ. eigenvalues --   -0.51198  -0.50755  -0.50427  -0.50381  -0.50040
 Alpha  occ. eigenvalues --   -0.49725  -0.49320  -0.49195  -0.48915  -0.48434
 Alpha  occ. eigenvalues --   -0.47892  -0.47720  -0.47327  -0.47316  -0.47162
 Alpha  occ. eigenvalues --   -0.47076  -0.46823  -0.46785  -0.46540  -0.46329
 Alpha  occ. eigenvalues --   -0.46260  -0.46031  -0.45488  -0.45344  -0.45032
 Alpha  occ. eigenvalues --   -0.44664  -0.44415  -0.44309  -0.44010  -0.43986
 Alpha  occ. eigenvalues --   -0.43735  -0.43636  -0.43455  -0.43403  -0.43252
 Alpha  occ. eigenvalues --   -0.43120  -0.42917  -0.42743  -0.42471  -0.42348
 Alpha  occ. eigenvalues --   -0.42050  -0.42005  -0.41965  -0.41543  -0.41142
 Alpha  occ. eigenvalues --   -0.40948  -0.40840  -0.40494  -0.40400  -0.40277
 Alpha  occ. eigenvalues --   -0.40186  -0.39973  -0.39739  -0.39702  -0.39521
 Alpha  occ. eigenvalues --   -0.39144  -0.38897  -0.38853  -0.38823  -0.38771
 Alpha  occ. eigenvalues --   -0.38678  -0.38329  -0.38096  -0.37875  -0.37603
 Alpha  occ. eigenvalues --   -0.37477  -0.37364  -0.37258  -0.37157  -0.36902
 Alpha  occ. eigenvalues --   -0.36693  -0.36627  -0.36540  -0.36409  -0.36188
 Alpha  occ. eigenvalues --   -0.35896  -0.35436  -0.35418  -0.35137  -0.34606
 Alpha  occ. eigenvalues --   -0.34529  -0.34367  -0.34365  -0.34164  -0.34056
 Alpha  occ. eigenvalues --   -0.33551  -0.33033  -0.32662  -0.32587  -0.32376
 Alpha  occ. eigenvalues --   -0.31985  -0.31720  -0.31515  -0.31282  -0.31126
 Alpha  occ. eigenvalues --   -0.30587  -0.29930  -0.29732  -0.29331  -0.29063
 Alpha  occ. eigenvalues --   -0.28742  -0.28571  -0.27884  -0.26889  -0.26188
 Alpha  occ. eigenvalues --   -0.25996  -0.25547  -0.25106  -0.24886  -0.20950
 Alpha  occ. eigenvalues --   -0.18880
 Alpha virt. eigenvalues --   -0.11521  -0.04922  -0.04141  -0.02181  -0.01181
 Alpha virt. eigenvalues --   -0.00659   0.00142   0.01239   0.01529   0.03580
 Alpha virt. eigenvalues --    0.04547   0.04759   0.05425   0.05611   0.05793

 Mulliken charges:
               1
     1  Mg   0.980377
     2  C   -0.004319
     3  C   -0.042718
     4  C   -0.042899
     5  C   -0.042497
     6  N   -0.375220
     7  C    0.053033
     8  C   -0.136381
     9  C   -0.113370
    10  C    0.026021
    11  C    0.015312
    12  C    0.018272
    13  C    0.038468
    14  C    0.176757
    15  O   -0.265000
    16  O   -0.383378
    17  N   -0.526425
    18  C    0.190911
    19  C   -0.141818
    20  C   -0.068205
    21  C    0.146188
    22  C    0.046069
    23  C    0.040833
    24  O   -0.276960
    25  C   -0.016411
    26  N   -0.371392
    27  C    0.084042
    28  C   -0.149301
    29  C   -0.051581
    30  C    0.023659
    31  C    0.014272
    32  C   -0.034034
    33  C   -0.064228
    34  N   -0.465196
    35  C    0.161009
    36  C   -0.208094
    37  C    0.002622
    38  C    0.140614
    39  C    0.061729
    40  C    0.130274
    41  O   -0.215267
    42  C   -0.160858
    43  C    0.304314
    44  O   -0.247316
    45  O   -0.376035
    46  C    0.127411
    47  C    0.256732
    48  C   -0.118433
    49  C   -0.179345
    50  C    0.024016
    51  C   -0.013482
    52  C   -0.048038
    53  C    0.025166
    54  C   -0.200069
    55  C   -0.032643
    56  C   -0.009873
    57  C   -0.094799
    58  C    0.038397
    59  C   -0.231187
    60  C   -0.004017
    61  C   -0.026578
    62  C   -0.048268
    63  C   -0.009671
    64  C   -0.240275
    65  C    0.007321
    66  C   -0.016289
    67  H    0.002850
    68  H    0.028692
    69  H    0.003750
    70  H    0.080807
    71  H    0.044592
    72  H    0.034725
    73  H    0.042261
    74  H    0.065944
    75  H    0.037522
    76  H    0.047583
    77  H    0.052143
    78  H    0.071467
    79  H    0.044097
    80  H    0.054099
    81  H    0.047849
    82  H    0.035591
    83  H    0.076431
    84  H    0.049060
    85  H    0.048384
    86  H    0.048980
    87  H    0.047534
    88  H    0.048283
    89  H    0.027681
    90  H    0.042316
    91  H    0.046670
    92  H    0.051683
    93  H    0.050893
    94  H    0.047381
    95  H    0.062046
    96  H    0.025031
    97  H    0.065033
    98  H    0.072167
    99  H    0.063689
   100  H    0.059135
   101  H    0.059899
   102  H    0.046461
   103  H    0.054829
   104  H    0.019066
   105  H    0.038738
   106  H    0.046889
   107  H    0.039323
   108  H    0.019309
   109  H    0.045518
   110  H    0.024646
   111  H    0.036095
   112  H    0.018885
   113  H    0.026607
   114  H    0.042585
   115  H    0.046149
   116  H    0.021328
   117  H    0.032528
   118  H    0.021938
   119  H    0.029935
   120  H    0.021794
   121  H    0.012659
   122  H    0.031021
   123  H    0.037498
   124  H    0.032588
   125  H    0.031603
   126  H    0.028605
   127  H    0.033441
   128  H    0.016333
   129  H    0.037181
   130  H    0.030830
   131  H    0.025887
   132  H    0.023633
   133  H    0.024244
   134  H    0.032122
   135  H    0.045089
   136  H    0.039329
   137  H    0.029399
   138  H    0.031993
   139  H    0.030803
   140  H    0.024902
 Sum of Mulliken charges =  -0.00000

 Dipole moment (field-independent basis, Debye):
    X=             -5.1500    Y=              2.5001    Z=              3.9908  Tot=              6.9785
 Quadrupole moment (field-independent basis, Debye-Ang):
   XX=           -375.3029   YY=           -424.4253   ZZ=           -406.8463
   XY=             23.8638   XZ=             15.7846   YZ=             -2.0265

 Normal termination of Gaussian 16 at Fri Apr 29 05:12:33 2022.
