 Gaussian 16, Revision A.03,
 Gaussian 16:  ES64L-G16RevA.03 25-Dec-2016

 --------------------------------
 #p wB97XD/Def2SVP td=(nstates=5)
 --------------------------------

 --------------------------------------------------
 step_1_chromophore_18 TDDFT with wB97XD functional
 --------------------------------------------------
 Symbolic Z-matrix:
 Charge =  0 Multiplicity = 1

                         Standard orientation:
 ---------------------------------------------------------------------
 Center     Atomic      Atomic             Coordinates (Angstroms)
 Number     Number       Type             X           Y           Z
 ---------------------------------------------------------------------
      1         12           0        5.322567    1.088604    0.154651
      2          6           0        4.500049   -2.322266   -0.114420
      3          6           0        1.920774    1.784565   -0.029836
      4          6           0        6.166612    4.299499    0.081787
      5          6           0        8.746453    0.258435   -0.536947
      6          7           0        3.456843   -0.110253   -0.070418
      7          6           0        3.385735   -1.509891   -0.032555
      8          6           0        1.968926   -1.926541    0.316489
      9          6           0        1.103611   -0.658282    0.068583
     10          6           0        2.231675    0.414074   -0.011209
     11          6           0        0.115981   -0.716875   -1.138849
     12          6           0        1.803518   -2.550737    1.745409
     13          6           0        0.648260   -3.641172    1.850551
     14          6           0       -0.190333   -3.917074    0.599692
     15          8           0        0.041917   -4.749557   -0.255377
     16          8           0       -1.290277   -3.107078    0.477049
     17          7           0        4.225913    2.742359    0.170510
     18          6           0        2.844649    2.833246    0.170067
     19          6           0        2.425082    4.196887    0.318977
     20          6           0        3.627570    4.968253    0.226215
     21          6           0        4.716790    4.008563    0.194500
     22          6           0        0.931358    4.641380    0.368146
     23          6           0        3.785495    6.452792    0.175685
     24          8           0        4.894975    6.986150   -0.064229
     25          6           0        2.700093    7.561621    0.305831
     26          7           0        7.130335    2.162228   -0.446449
     27          6           0        7.239389    3.493919   -0.280345
     28          6           0        8.726018    3.927160   -0.334214
     29          6           0        9.551556    2.654282   -0.553382
     30          6           0        8.374209    1.586663   -0.457754
     31          6           0        8.940114    5.073363   -1.275140
     32          6           0       10.710033    2.387783    0.431628
     33          6           0       10.300462    2.276167    1.920915
     34          7           0        6.463619   -0.657129   -0.316461
     35          6           0        7.804139   -0.824124   -0.399526
     36          6           0        8.049710   -2.265034   -0.365306
     37          6           0        6.806646   -2.943778   -0.227293
     38          6           0        5.838188   -1.910848   -0.250798
     39          6           0        9.421343   -2.933951   -0.332564
     40          6           0        6.171432   -4.217731   -0.113341
     41          8           0        6.583204   -5.366106    0.028239
     42          6           0        4.547095   -3.853471   -0.096815
     43          6           0        3.848874   -4.640763   -1.189655
     44          8           0        3.850029   -4.312991   -2.360028
     45          8           0        3.144424   -5.697359   -0.658783
     46          6           0        2.728107   -6.782778   -1.540882
     47          6           0       -2.250582   -3.509565   -0.610237
     48          6           0       -3.519053   -2.769891   -0.504687
     49          6           0       -4.743688   -3.291757   -0.301055
     50          6           0       -5.085034   -4.752202   -0.153380
     51          6           0       -5.869439   -2.367851   -0.015980
     52          6           0       -6.019603   -1.873180    1.461457
     53          6           0       -6.652385   -0.503071    1.517259
     54          6           0       -8.096785   -0.620059    2.007423
     55          6           0       -8.178246   -0.509905    3.613639
     56          6           0       -9.134367    0.421688    1.398573
     57          6           0      -10.246857   -0.199350    0.399897
     58          6           0      -11.650183   -0.216301    1.011269
     59          6           0      -12.186993    1.208511    1.218033
     60          6           0      -12.370200    1.523173    2.740952
     61          6           0      -13.439689    1.336032    0.405733
     62          6           0      -13.119305    1.702437   -1.058186
     63          6           0      -14.448133    1.395861   -1.801827
     64          6           0      -15.224755    2.647770   -2.322819
     65          6           0      -16.705153    2.457878   -2.170606
     66          6           0      -14.772353    3.030327   -3.739079
     67          1           0        0.834761    1.877843    0.033086
     68          1           0        6.387858    5.365744    0.159639
     69          1           0        9.821067    0.080500   -0.610462
     70          1           0        1.643922   -2.707269   -0.371061
     71          1           0        0.528255   -0.485589    0.977655
     72          1           0        0.414675    0.151629   -1.724902
     73          1           0       -0.905746   -0.523450   -0.809896
     74          1           0        0.117553   -1.585243   -1.797621
     75          1           0        1.500210   -1.800405    2.474892
     76          1           0        2.766474   -2.948260    2.063437
     77          1           0       -0.099035   -3.254248    2.543503
     78          1           0        1.107293   -4.563502    2.205663
     79          1           0        0.849049    5.575150   -0.189430
     80          1           0        0.588556    4.847201    1.381600
     81          1           0        0.134178    3.991938    0.006756
     82          1           0        2.145576    7.449081    1.237896
     83          1           0        2.029908    7.592777   -0.553186
     84          1           0        3.092582    8.545950    0.558315
     85          1           0        8.915638    4.424846    0.615947
     86          1           0        9.796585    2.664903   -1.616017
     87          1           0        9.046836    6.028755   -0.761051
     88          1           0        8.134848    5.106373   -2.009182
     89          1           0        9.822649    4.973271   -1.907953
     90          1           0       11.336892    3.272686    0.319769
     91          1           0       11.266740    1.501327    0.126250
     92          1           0       10.609577    1.276875    2.226781
     93          1           0        9.218044    2.399189    1.958533
     94          1           0       10.688259    3.073719    2.554845
     95          1           0        9.471147   -3.753292    0.384020
     96          1           0       10.187654   -2.254761    0.039924
     97          1           0        9.688813   -3.205477   -1.354126
     98          1           0        4.197585   -4.244454    0.859077
     99          1           0        2.403946   -6.317063   -2.471915
    100          1           0        1.897458   -7.382461   -1.168560
    101          1           0        3.593753   -7.440547   -1.619360
    102          1           0       -2.372788   -4.590629   -0.550479
    103          1           0       -1.836044   -3.275915   -1.590944
    104          1           0       -3.466966   -1.681752   -0.525426
    105          1           0       -5.917223   -5.063210   -0.784571
    106          1           0       -5.523110   -4.969493    0.820095
    107          1           0       -4.303587   -5.465156   -0.418346
    108          1           0       -6.820482   -2.886381   -0.133990
    109          1           0       -5.872607   -1.551609   -0.738434
    110          1           0       -5.006078   -1.807624    1.859024
    111          1           0       -6.555331   -2.556348    2.120283
    112          1           0       -6.508371   -0.018827    0.551379
    113          1           0       -6.033343    0.116041    2.167461
    114          1           0       -8.515252   -1.600546    1.780422
    115          1           0       -8.651670    0.401221    3.978222
    116          1           0       -7.171213   -0.578925    4.025069
    117          1           0       -8.628169   -1.383960    4.084783
    118          1           0       -8.558829    1.110665    0.778866
    119          1           0       -9.639476    1.019541    2.156911
    120          1           0       -9.980418   -1.106940   -0.142355
    121          1           0      -10.298840    0.500301   -0.434171
    122          1           0      -11.383502   -0.630266    1.983860
    123          1           0      -12.166030   -0.847537    0.288013
    124          1           0      -11.492521    1.993461    0.917083
    125          1           0      -11.962413    0.788797    3.435493
    126          1           0      -13.442657    1.569424    2.926181
    127          1           0      -11.898188    2.479643    2.962939
    128          1           0      -14.014263    2.147399    0.851056
    129          1           0      -14.053898    0.436442    0.446802
    130          1           0      -12.182174    1.235418   -1.363151
    131          1           0      -12.912667    2.771287   -1.117697
    132          1           0      -15.150660    0.883181   -1.144765
    133          1           0      -14.221225    0.636515   -2.549717
    134          1           0      -14.828372    3.476934   -1.736857
    135          1           0      -16.948003    3.119925   -1.338717
    136          1           0      -17.058523    1.455804   -1.925926
    137          1           0      -17.161261    2.678300   -3.135917
    138          1           0      -15.464653    2.629837   -4.480275
    139          1           0      -13.733708    2.793251   -3.968667
    140          1           0      -14.761848    4.106574   -3.907583
 ---------------------------------------------------------------------

 SCF Done:  E(RwB97XD) =  -3007.86997473     A.U. after   17 cycles

 Excitation energies and oscillator strengths:

 Excited State   1:      Singlet-A      1.6011 eV  774.36 nm  f=0.3917  <S**2>=0.000
     245 -> 248        0.17292
     246 -> 247        0.68562
     245 <- 248        0.11412
 This state for optimization and/or second-order correction.
 Total Energy, E(TD-HF/TD-DFT) =  -3007.81113473
 Copying the excited state density for this state as the 1-particle RhoCI density.

 Excited State   2:      Singlet-A      2.1354 eV  580.61 nm  f=0.1604  <S**2>=0.000
     245 -> 247        0.65494
     246 -> 248       -0.24789

 Excited State   3:      Singlet-A      3.3009 eV  375.60 nm  f=0.0035  <S**2>=0.000
     243 -> 247        0.52250
     243 -> 248        0.13935
     243 -> 249       -0.34802
     243 -> 250       -0.19273

 Excited State   4:      Singlet-A      3.3355 eV  371.71 nm  f=0.0002  <S**2>=0.000
     240 -> 247       -0.17909
     244 -> 247        0.65480
     246 -> 248        0.10222

 Excited State   5:      Singlet-A      3.5176 eV  352.47 nm  f=0.0436  <S**2>=0.000
     239 -> 247        0.16481
     240 -> 247        0.52953
     242 -> 247        0.20115
     246 -> 248        0.30739

 The electronic state is 1-A.
 Alpha  occ. eigenvalues --  -46.95157 -19.30112 -19.28455 -19.24494 -19.24161
 Alpha  occ. eigenvalues --  -19.23412 -19.23345 -14.47102 -14.45878 -14.44800
 Alpha  occ. eigenvalues --  -14.43834 -10.43157 -10.42210 -10.39415 -10.39348
 Alpha  occ. eigenvalues --  -10.35984 -10.35539 -10.34843 -10.34781 -10.34662
 Alpha  occ. eigenvalues --  -10.34441 -10.34245 -10.33919 -10.33722 -10.33636
 Alpha  occ. eigenvalues --  -10.32874 -10.32193 -10.32129 -10.32088 -10.32047
 Alpha  occ. eigenvalues --  -10.32010 -10.31974 -10.31904 -10.31848 -10.31757
 Alpha  occ. eigenvalues --  -10.31711 -10.31524 -10.31386 -10.30806 -10.30738
 Alpha  occ. eigenvalues --  -10.30569 -10.30474 -10.30282 -10.30155 -10.30020
 Alpha  occ. eigenvalues --  -10.29985 -10.29906 -10.29853 -10.29613 -10.29407
 Alpha  occ. eigenvalues --  -10.29393 -10.29346 -10.29309 -10.29186 -10.29161
 Alpha  occ. eigenvalues --  -10.29039 -10.28939 -10.28881 -10.28821 -10.28664
 Alpha  occ. eigenvalues --  -10.28445 -10.28396 -10.28270 -10.28261 -10.28221
 Alpha  occ. eigenvalues --  -10.28064  -3.21170  -1.94729  -1.94292  -1.94149
 Alpha  occ. eigenvalues --   -1.18414  -1.16668  -1.11423  -1.10562  -1.09281
 Alpha  occ. eigenvalues --   -1.08757  -1.06265  -1.05397  -1.05124  -1.04008
 Alpha  occ. eigenvalues --   -0.93969  -0.93376  -0.92372  -0.91269  -0.90953
 Alpha  occ. eigenvalues --   -0.90590  -0.89999  -0.89869  -0.89168  -0.88684
 Alpha  occ. eigenvalues --   -0.87257  -0.87080  -0.86269  -0.85286  -0.84903
 Alpha  occ. eigenvalues --   -0.84254  -0.83375  -0.82996  -0.82189  -0.81879
 Alpha  occ. eigenvalues --   -0.81826  -0.80590  -0.79963  -0.78606  -0.78377
 Alpha  occ. eigenvalues --   -0.77705  -0.77464  -0.76764  -0.76724  -0.75831
 Alpha  occ. eigenvalues --   -0.75356  -0.74400  -0.73147  -0.72630  -0.71609
 Alpha  occ. eigenvalues --   -0.70750  -0.70338  -0.69803  -0.69063  -0.67643
 Alpha  occ. eigenvalues --   -0.67511  -0.66943  -0.66441  -0.66001  -0.65918
 Alpha  occ. eigenvalues --   -0.65545  -0.64958  -0.64285  -0.62975  -0.62847
 Alpha  occ. eigenvalues --   -0.62678  -0.61437  -0.60825  -0.59947  -0.59149
 Alpha  occ. eigenvalues --   -0.58702  -0.58269  -0.57888  -0.57769  -0.57439
 Alpha  occ. eigenvalues --   -0.57115  -0.56820  -0.56569  -0.56356  -0.55830
 Alpha  occ. eigenvalues --   -0.55277  -0.55100  -0.54733  -0.54675  -0.54508
 Alpha  occ. eigenvalues --   -0.54431  -0.54295  -0.54175  -0.53988  -0.53765
 Alpha  occ. eigenvalues --   -0.53590  -0.53388  -0.52791  -0.52685  -0.52316
 Alpha  occ. eigenvalues --   -0.52048  -0.51809  -0.51724  -0.51335  -0.51327
 Alpha  occ. eigenvalues --   -0.51008  -0.50875  -0.50722  -0.50695  -0.50523
 Alpha  occ. eigenvalues --   -0.50387  -0.50260  -0.50050  -0.49830  -0.49614
 Alpha  occ. eigenvalues --   -0.49408  -0.49325  -0.49224  -0.48786  -0.48356
 Alpha  occ. eigenvalues --   -0.48195  -0.48098  -0.47726  -0.47614  -0.47496
 Alpha  occ. eigenvalues --   -0.47431  -0.47156  -0.46974  -0.46911  -0.46709
 Alpha  occ. eigenvalues --   -0.46275  -0.46093  -0.46028  -0.45979  -0.45876
 Alpha  occ. eigenvalues --   -0.45805  -0.45518  -0.45236  -0.45050  -0.44838
 Alpha  occ. eigenvalues --   -0.44628  -0.44466  -0.44326  -0.44187  -0.44040
 Alpha  occ. eigenvalues --   -0.43782  -0.43766  -0.43594  -0.43416  -0.43401
 Alpha  occ. eigenvalues --   -0.43003  -0.42537  -0.42482  -0.42092  -0.41684
 Alpha  occ. eigenvalues --   -0.41530  -0.41438  -0.41415  -0.41246  -0.41029
 Alpha  occ. eigenvalues --   -0.40454  -0.40113  -0.39734  -0.39494  -0.39335
 Alpha  occ. eigenvalues --   -0.39025  -0.38728  -0.38535  -0.38192  -0.38161
 Alpha  occ. eigenvalues --   -0.37616  -0.37015  -0.36655  -0.36223  -0.35799
 Alpha  occ. eigenvalues --   -0.35664  -0.35450  -0.34854  -0.33536  -0.32861
 Alpha  occ. eigenvalues --   -0.32694  -0.32493  -0.32166  -0.31497  -0.25922
 Alpha  occ. eigenvalues --   -0.23081
 Alpha virt. eigenvalues --   -0.07492   0.00624   0.02140   0.04218   0.04766
 Alpha virt. eigenvalues --    0.06000   0.06975   0.08011   0.08333   0.10322
 Alpha virt. eigenvalues --    0.10875   0.11500   0.12181   0.12375   0.12543

 Mulliken charges:
               1
     1  Mg   0.971635
     2  C    0.002902
     3  C   -0.061258
     4  C   -0.063343
     5  C   -0.063098
     6  N   -0.337791
     7  C    0.017730
     8  C   -0.099565
     9  C   -0.091254
    10  C    0.010278
    11  C    0.026739
    12  C    0.026532
    13  C    0.050855
    14  C    0.165932
    15  O   -0.261578
    16  O   -0.381225
    17  N   -0.494930
    18  C    0.189440
    19  C   -0.137042
    20  C   -0.054621
    21  C    0.137705
    22  C    0.059164
    23  C    0.036189
    24  O   -0.271839
    25  C   -0.007046
    26  N   -0.340771
    27  C    0.077668
    28  C   -0.129537
    29  C   -0.020123
    30  C    0.012748
    31  C    0.021452
    32  C   -0.019594
    33  C   -0.045828
    34  N   -0.428832
    35  C    0.150773
    36  C   -0.205488
    37  C    0.005856
    38  C    0.121933
    39  C    0.072462
    40  C    0.115755
    41  O   -0.206793
    42  C   -0.125475
    43  C    0.280323
    44  O   -0.241478
    45  O   -0.373882
    46  C    0.141773
    47  C    0.270487
    48  C   -0.126356
    49  C   -0.164178
    50  C    0.035694
    51  C    0.006538
    52  C   -0.031762
    53  C    0.039297
    54  C   -0.171022
    55  C   -0.020536
    56  C    0.006995
    57  C   -0.072682
    58  C    0.057507
    59  C   -0.201094
    60  C    0.006888
    61  C   -0.005481
    62  C   -0.033833
    63  C    0.008498
    64  C   -0.209549
    65  C    0.018738
    66  C   -0.005993
    67  H   -0.003112
    68  H    0.022739
    69  H   -0.004507
    70  H    0.058834
    71  H    0.034040
    72  H    0.027607
    73  H    0.035822
    74  H    0.061442
    75  H    0.030109
    76  H    0.037921
    77  H    0.046540
    78  H    0.067812
    79  H    0.036838
    80  H    0.050700
    81  H    0.045260
    82  H    0.030733
    83  H    0.073309
    84  H    0.048368
    85  H    0.036969
    86  H    0.038748
    87  H    0.043254
    88  H    0.041851
    89  H    0.022128
    90  H    0.033100
    91  H    0.039447
    92  H    0.046904
    93  H    0.038562
    94  H    0.042787
    95  H    0.057610
    96  H    0.018068
    97  H    0.059573
    98  H    0.062909
    99  H    0.060024
   100  H    0.056296
   101  H    0.056043
   102  H    0.039155
   103  H    0.049883
   104  H    0.015548
   105  H    0.032926
   106  H    0.041159
   107  H    0.034510
   108  H    0.009396
   109  H    0.037805
   110  H    0.015216
   111  H    0.027291
   112  H    0.009367
   113  H    0.019045
   114  H    0.027381
   115  H    0.040684
   116  H    0.014153
   117  H    0.027365
   118  H    0.013638
   119  H    0.013650
   120  H    0.015187
   121  H   -0.001470
   122  H    0.015935
   123  H    0.029833
   124  H    0.018384
   125  H    0.025320
   126  H    0.022858
   127  H    0.028873
   128  H    0.005686
   129  H    0.026217
   130  H    0.019854
   131  H    0.016106
   132  H    0.009968
   133  H    0.017019
   134  H    0.019466
   135  H    0.039791
   136  H    0.033948
   137  H    0.023387
   138  H    0.025217
   139  H    0.024580
   140  H    0.019341
 Sum of Mulliken charges =  -0.00000

 Dipole moment (field-independent basis, Debye):
    X=             -5.5667    Y=              2.8052    Z=              4.0827  Tot=              7.4516
 Quadrupole moment (field-independent basis, Debye-Ang):
   XX=           -379.6205   YY=           -422.2115   ZZ=           -406.4273
   XY=             24.3646   XZ=             16.3886   YZ=             -1.8715

 Normal termination of Gaussian 16 at Fri Apr 29 05:41:28 2022.
