 Gaussian 16, Revision A.03,
 Gaussian 16:  ES64L-G16RevA.03 25-Dec-2016

 --------------------
 #p ZINDO=(nstates=5)
 --------------------

 ---------------------------
 step_1_chromophore_18 ZINDO
 ---------------------------
 Symbolic Z-matrix:
 Charge =  0 Multiplicity = 1

                         Standard orientation:
 ---------------------------------------------------------------------
 Center     Atomic      Atomic             Coordinates (Angstroms)
 Number     Number       Type             X           Y           Z
 ---------------------------------------------------------------------
      1         12           0        5.322567    1.088604    0.154651
      2          6           0        4.500049   -2.322266   -0.114420
      3          6           0        1.920774    1.784565   -0.029836
      4          6           0        6.166612    4.299499    0.081787
      5          6           0        8.746453    0.258435   -0.536947
      6          7           0        3.456843   -0.110253   -0.070418
      7          6           0        3.385735   -1.509891   -0.032555
      8          6           0        1.968926   -1.926541    0.316489
      9          6           0        1.103611   -0.658282    0.068583
     10          6           0        2.231675    0.414074   -0.011209
     11          6           0        0.115981   -0.716875   -1.138849
     12          6           0        1.803518   -2.550737    1.745409
     13          6           0        0.648260   -3.641172    1.850551
     14          6           0       -0.190333   -3.917074    0.599692
     15          8           0        0.041917   -4.749557   -0.255377
     16          8           0       -1.290277   -3.107078    0.477049
     17          7           0        4.225913    2.742359    0.170510
     18          6           0        2.844649    2.833246    0.170067
     19          6           0        2.425082    4.196887    0.318977
     20          6           0        3.627570    4.968253    0.226215
     21          6           0        4.716790    4.008563    0.194500
     22          6           0        0.931358    4.641380    0.368146
     23          6           0        3.785495    6.452792    0.175685
     24          8           0        4.894975    6.986150   -0.064229
     25          6           0        2.700093    7.561621    0.305831
     26          7           0        7.130335    2.162228   -0.446449
     27          6           0        7.239389    3.493919   -0.280345
     28          6           0        8.726018    3.927160   -0.334214
     29          6           0        9.551556    2.654282   -0.553382
     30          6           0        8.374209    1.586663   -0.457754
     31          6           0        8.940114    5.073363   -1.275140
     32          6           0       10.710033    2.387783    0.431628
     33          6           0       10.300462    2.276167    1.920915
     34          7           0        6.463619   -0.657129   -0.316461
     35          6           0        7.804139   -0.824124   -0.399526
     36          6           0        8.049710   -2.265034   -0.365306
     37          6           0        6.806646   -2.943778   -0.227293
     38          6           0        5.838188   -1.910848   -0.250798
     39          6           0        9.421343   -2.933951   -0.332564
     40          6           0        6.171432   -4.217731   -0.113341
     41          8           0        6.583204   -5.366106    0.028239
     42          6           0        4.547095   -3.853471   -0.096815
     43          6           0        3.848874   -4.640763   -1.189655
     44          8           0        3.850029   -4.312991   -2.360028
     45          8           0        3.144424   -5.697359   -0.658783
     46          6           0        2.728107   -6.782778   -1.540882
     47          6           0       -2.250582   -3.509565   -0.610237
     48          6           0       -3.519053   -2.769891   -0.504687
     49          6           0       -4.743688   -3.291757   -0.301055
     50          6           0       -5.085034   -4.752202   -0.153380
     51          6           0       -5.869439   -2.367851   -0.015980
     52          6           0       -6.019603   -1.873180    1.461457
     53          6           0       -6.652385   -0.503071    1.517259
     54          6           0       -8.096785   -0.620059    2.007423
     55          6           0       -8.178246   -0.509905    3.613639
     56          6           0       -9.134367    0.421688    1.398573
     57          6           0      -10.246857   -0.199350    0.399897
     58          6           0      -11.650183   -0.216301    1.011269
     59          6           0      -12.186993    1.208511    1.218033
     60          6           0      -12.370200    1.523173    2.740952
     61          6           0      -13.439689    1.336032    0.405733
     62          6           0      -13.119305    1.702437   -1.058186
     63          6           0      -14.448133    1.395861   -1.801827
     64          6           0      -15.224755    2.647770   -2.322819
     65          6           0      -16.705153    2.457878   -2.170606
     66          6           0      -14.772353    3.030327   -3.739079
     67          1           0        0.834761    1.877843    0.033086
     68          1           0        6.387858    5.365744    0.159639
     69          1           0        9.821067    0.080500   -0.610462
     70          1           0        1.643922   -2.707269   -0.371061
     71          1           0        0.528255   -0.485589    0.977655
     72          1           0        0.414675    0.151629   -1.724902
     73          1           0       -0.905746   -0.523450   -0.809896
     74          1           0        0.117553   -1.585243   -1.797621
     75          1           0        1.500210   -1.800405    2.474892
     76          1           0        2.766474   -2.948260    2.063437
     77          1           0       -0.099035   -3.254248    2.543503
     78          1           0        1.107293   -4.563502    2.205663
     79          1           0        0.849049    5.575150   -0.189430
     80          1           0        0.588556    4.847201    1.381600
     81          1           0        0.134178    3.991938    0.006756
     82          1           0        2.145576    7.449081    1.237896
     83          1           0        2.029908    7.592777   -0.553186
     84          1           0        3.092582    8.545950    0.558315
     85          1           0        8.915638    4.424846    0.615947
     86          1           0        9.796585    2.664903   -1.616017
     87          1           0        9.046836    6.028755   -0.761051
     88          1           0        8.134848    5.106373   -2.009182
     89          1           0        9.822649    4.973271   -1.907953
     90          1           0       11.336892    3.272686    0.319769
     91          1           0       11.266740    1.501327    0.126250
     92          1           0       10.609577    1.276875    2.226781
     93          1           0        9.218044    2.399189    1.958533
     94          1           0       10.688259    3.073719    2.554845
     95          1           0        9.471147   -3.753292    0.384020
     96          1           0       10.187654   -2.254761    0.039924
     97          1           0        9.688813   -3.205477   -1.354126
     98          1           0        4.197585   -4.244454    0.859077
     99          1           0        2.403946   -6.317063   -2.471915
    100          1           0        1.897458   -7.382461   -1.168560
    101          1           0        3.593753   -7.440547   -1.619360
    102          1           0       -2.372788   -4.590629   -0.550479
    103          1           0       -1.836044   -3.275915   -1.590944
    104          1           0       -3.466966   -1.681752   -0.525426
    105          1           0       -5.917223   -5.063210   -0.784571
    106          1           0       -5.523110   -4.969493    0.820095
    107          1           0       -4.303587   -5.465156   -0.418346
    108          1           0       -6.820482   -2.886381   -0.133990
    109          1           0       -5.872607   -1.551609   -0.738434
    110          1           0       -5.006078   -1.807624    1.859024
    111          1           0       -6.555331   -2.556348    2.120283
    112          1           0       -6.508371   -0.018827    0.551379
    113          1           0       -6.033343    0.116041    2.167461
    114          1           0       -8.515252   -1.600546    1.780422
    115          1           0       -8.651670    0.401221    3.978222
    116          1           0       -7.171213   -0.578925    4.025069
    117          1           0       -8.628169   -1.383960    4.084783
    118          1           0       -8.558829    1.110665    0.778866
    119          1           0       -9.639476    1.019541    2.156911
    120          1           0       -9.980418   -1.106940   -0.142355
    121          1           0      -10.298840    0.500301   -0.434171
    122          1           0      -11.383502   -0.630266    1.983860
    123          1           0      -12.166030   -0.847537    0.288013
    124          1           0      -11.492521    1.993461    0.917083
    125          1           0      -11.962413    0.788797    3.435493
    126          1           0      -13.442657    1.569424    2.926181
    127          1           0      -11.898188    2.479643    2.962939
    128          1           0      -14.014263    2.147399    0.851056
    129          1           0      -14.053898    0.436442    0.446802
    130          1           0      -12.182174    1.235418   -1.363151
    131          1           0      -12.912667    2.771287   -1.117697
    132          1           0      -15.150660    0.883181   -1.144765
    133          1           0      -14.221225    0.636515   -2.549717
    134          1           0      -14.828372    3.476934   -1.736857
    135          1           0      -16.948003    3.119925   -1.338717
    136          1           0      -17.058523    1.455804   -1.925926
    137          1           0      -17.161261    2.678300   -3.135917
    138          1           0      -15.464653    2.629837   -4.480275
    139          1           0      -13.733708    2.793251   -3.968667
    140          1           0      -14.761848    4.106574   -3.907583
 ---------------------------------------------------------------------

 SCF Done:  E(RZINDO/S) =  -474.152263781     A.U. after   20 cycles

 Excitation energies and oscillator strengths:

 Excited State   1:      Singlet-A      1.2071 eV 1027.15 nm  f=0.6272  <S**2>=0.000
     175 ->178         0.17826
     176 ->177         0.66363
 This state for optimization and/or second-order correction.
 Total Energy, E(CIS/TDA) =  -474.107904569
 Copying the excited state density for this state as the 1-particle RhoCI density.

 Excited State   2:      Singlet-A      1.8973 eV  653.47 nm  f=0.0977  <S**2>=0.000
     175 ->177         0.57870
     176 ->178        -0.37325

 Excited State   3:      Singlet-A      2.7103 eV  457.45 nm  f=0.0083  <S**2>=0.000
     168 ->179        -0.13435
     169 ->177         0.18862
     169 ->179        -0.27167
     169 ->180        -0.14860
     169 ->186        -0.12568
     170 ->177         0.23889
     170 ->179        -0.33449
     170 ->180        -0.17436
     170 ->181         0.11066
     170 ->186        -0.14998

 Excited State   4:      Singlet-A      2.9493 eV  420.38 nm  f=0.7093  <S**2>=0.000
     175 ->177         0.29181
     176 ->178         0.51632
     176 ->179         0.28200
     176 ->180        -0.12899

 Excited State   5:      Singlet-A      3.0616 eV  404.96 nm  f=0.0004  <S**2>=0.000
     168 ->177         0.29462
     168 ->178         0.24822
     168 ->179         0.26869
     168 ->180        -0.29470
     168 ->181         0.15234
     168 ->186         0.17350
     168 ->187         0.11865
     169 ->177        -0.11396
     169 ->179        -0.10863
     169 ->180         0.11182

 The electronic state is 1-A.
 Alpha  occ. eigenvalues --   -1.82315  -1.80739  -1.80132  -1.73617  -1.70524
 Alpha  occ. eigenvalues --   -1.69687  -1.67611  -1.61902  -1.57324  -1.56957
 Alpha  occ. eigenvalues --   -1.56447  -1.51109  -1.47788  -1.47672  -1.46260
 Alpha  occ. eigenvalues --   -1.43753  -1.43220  -1.40046  -1.39343  -1.37764
 Alpha  occ. eigenvalues --   -1.35517  -1.32407  -1.31677  -1.31192  -1.28347
 Alpha  occ. eigenvalues --   -1.28087  -1.23990  -1.21979  -1.19873  -1.18551
 Alpha  occ. eigenvalues --   -1.16890  -1.16640  -1.14981  -1.14242  -1.13372
 Alpha  occ. eigenvalues --   -1.12255  -1.11470  -1.10084  -1.04020  -1.03149
 Alpha  occ. eigenvalues --   -1.02615  -1.00600  -0.98959  -0.98406  -0.97058
 Alpha  occ. eigenvalues --   -0.95907  -0.94580  -0.93888  -0.93333  -0.93031
 Alpha  occ. eigenvalues --   -0.91255  -0.90818  -0.89756  -0.87786  -0.87534
 Alpha  occ. eigenvalues --   -0.85557  -0.83845  -0.83235  -0.82117  -0.81693
 Alpha  occ. eigenvalues --   -0.80525  -0.78331  -0.78032  -0.76876  -0.76212
 Alpha  occ. eigenvalues --   -0.75425  -0.75201  -0.74983  -0.74053  -0.73141
 Alpha  occ. eigenvalues --   -0.72971  -0.72350  -0.72298  -0.71781  -0.70794
 Alpha  occ. eigenvalues --   -0.70285  -0.68960  -0.68650  -0.68100  -0.68061
 Alpha  occ. eigenvalues --   -0.67056  -0.66199  -0.65976  -0.65809  -0.65411
 Alpha  occ. eigenvalues --   -0.64787  -0.64290  -0.64066  -0.63858  -0.63539
 Alpha  occ. eigenvalues --   -0.63234  -0.62660  -0.62547  -0.62156  -0.61516
 Alpha  occ. eigenvalues --   -0.61420  -0.61319  -0.60855  -0.60400  -0.60061
 Alpha  occ. eigenvalues --   -0.59680  -0.59227  -0.58614  -0.58468  -0.58137
 Alpha  occ. eigenvalues --   -0.57194  -0.57042  -0.56923  -0.56811  -0.56546
 Alpha  occ. eigenvalues --   -0.56485  -0.55910  -0.55354  -0.55092  -0.54581
 Alpha  occ. eigenvalues --   -0.54053  -0.53399  -0.53332  -0.53117  -0.52727
 Alpha  occ. eigenvalues --   -0.52385  -0.52327  -0.51885  -0.51471  -0.51337
 Alpha  occ. eigenvalues --   -0.51235  -0.50937  -0.50791  -0.50490  -0.49968
 Alpha  occ. eigenvalues --   -0.49657  -0.49491  -0.49209  -0.49104  -0.48919
 Alpha  occ. eigenvalues --   -0.48721  -0.48448  -0.48139  -0.47995  -0.47933
 Alpha  occ. eigenvalues --   -0.47713  -0.47470  -0.46970  -0.46704  -0.46588
 Alpha  occ. eigenvalues --   -0.46115  -0.45977  -0.45477  -0.45349  -0.45087
 Alpha  occ. eigenvalues --   -0.44770  -0.44749  -0.44511  -0.44468  -0.43764
 Alpha  occ. eigenvalues --   -0.43421  -0.43406  -0.42475  -0.42239  -0.42165
 Alpha  occ. eigenvalues --   -0.41848  -0.41612  -0.40790  -0.38837  -0.38658
 Alpha  occ. eigenvalues --   -0.37763  -0.36921  -0.35012  -0.34949  -0.34645
 Alpha  occ. eigenvalues --   -0.33746  -0.32731  -0.32571  -0.32013  -0.26617
 Alpha  occ. eigenvalues --   -0.21936
 Alpha virt. eigenvalues --   -0.09036  -0.01870  -0.00544   0.01195   0.01541
 Alpha virt. eigenvalues --    0.02072   0.02932   0.03288   0.04134   0.04937
 Alpha virt. eigenvalues --    0.06375   0.06701   0.07090   0.07986   0.08295

 Mulliken charges:
               1
     1  Mg   0.433003
     2  C   -0.010175
     3  C   -0.077482
     4  C   -0.089372
     5  C   -0.081279
     6  N   -0.270680
     7  C    0.102047
     8  C    0.005182
     9  C    0.000929
    10  C    0.142642
    11  C   -0.050913
    12  C   -0.020596
    13  C    0.002460
    14  C    0.471224
    15  O   -0.519226
    16  O   -0.281643
    17  N   -0.315639
    18  C    0.113721
    19  C    0.011395
    20  C   -0.031916
    21  C    0.159344
    22  C   -0.044808
    23  C    0.316571
    24  O   -0.536419
    25  C   -0.027978
    26  N   -0.282143
    27  C    0.159935
    28  C    0.012931
    29  C   -0.003299
    30  C    0.117446
    31  C   -0.048648
    32  C   -0.023261
    33  C   -0.057128
    34  N   -0.324587
    35  C    0.108662
    36  C    0.014302
    37  C   -0.045679
    38  C    0.092691
    39  C   -0.043493
    40  C    0.333258
    41  O   -0.515762
    42  C    0.044949
    43  C    0.492577
    44  O   -0.513900
    45  O   -0.272487
    46  C    0.077645
    47  C    0.110991
    48  C   -0.088494
    49  C    0.005198
    50  C   -0.043237
    51  C   -0.021113
    52  C   -0.027901
    53  C   -0.022696
    54  C   -0.009503
    55  C   -0.067624
    56  C   -0.047059
    57  C   -0.051918
    58  C   -0.038886
    59  C   -0.010801
    60  C   -0.066382
    61  C   -0.028445
    62  C   -0.042989
    63  C   -0.037600
    64  C   -0.005841
    65  C   -0.053105
    66  C   -0.058333
    67  H    0.032757
    68  H    0.044337
    69  H    0.036599
    70  H    0.040743
    71  H    0.025500
    72  H    0.016481
    73  H    0.019871
    74  H    0.040412
    75  H    0.021867
    76  H    0.030097
    77  H    0.031688
    78  H    0.046689
    79  H    0.022935
    80  H    0.028747
    81  H    0.031613
    82  H    0.018191
    83  H    0.043074
    84  H    0.040658
    85  H    0.028064
    86  H    0.035378
    87  H    0.024258
    88  H    0.022255
    89  H    0.011535
    90  H    0.013096
    91  H    0.025347
    92  H    0.025382
    93  H    0.021984
    94  H    0.024686
    95  H    0.034356
    96  H    0.012559
    97  H    0.038132
    98  H    0.045603
    99  H    0.050337
   100  H    0.037788
   101  H    0.041104
   102  H    0.050691
   103  H    0.046596
   104  H    0.027947
   105  H    0.020140
   106  H    0.029367
   107  H    0.024642
   108  H    0.008743
   109  H    0.027777
   110  H    0.009464
   111  H    0.026417
   112  H    0.018922
   113  H    0.014152
   114  H    0.023638
   115  H    0.027369
   116  H    0.010912
   117  H    0.016994
   118  H    0.010837
   119  H    0.029281
   120  H    0.021659
   121  H    0.002117
   122  H    0.026584
   123  H    0.030374
   124  H    0.022773
   125  H    0.019761
   126  H    0.015978
   127  H    0.016452
   128  H    0.009474
   129  H    0.023752
   130  H    0.029169
   131  H    0.016083
   132  H    0.014978
   133  H    0.014902
   134  H    0.020197
   135  H    0.021888
   136  H    0.021154
   137  H    0.021106
   138  H    0.019149
   139  H    0.017093
   140  H    0.008678
 Sum of Mulliken charges =  -0.00000

 Dipole moment (field-independent basis, Debye):
    X=             -7.0766    Y=              4.2259    Z=              6.6294  Tot=             10.5776
 N-N= 4.296879889815D+03 E-N= 0.000000000000D+00  KE=-9.268218428444D+03
 Leave Link  601 at Fri Apr 29 05:54:07 2022, MaxMem=  6710886400 cpu:               0.8 elap:               0.1
 (Enter /sw/apps/gaussian-16.0/g16/l9999.exe)
 1\1\GINC-BP1-COMPUTE156\SP\RZINDO CIS\STO-3G\C55H74Mg1N4O6\OF15641\29-
 Apr-2022\0\\#p ZINDO=(nstates=5)\\step_1_chromophore_18 ZINDO\\0,1\Mg,
 0,35.496,50.254,25.27\C,0,35.177,48.233,28.133\C,0,33.951,52.802,27.06
 2\C,0,35.524,52.009,22.451\C,0,36.255,47.316,23.351\N,0,34.65,50.479,2
 7.32\C,0,34.759,49.532,28.348\C,0,34.558,50.223,29.684\C,0,33.901,51.5
 89,29.336\C,0,34.189,51.633,27.805\C,0,32.412,51.773,29.767\C,0,35.851
 ,50.335,30.564\C,0,35.577,50.303,32.132\C,0,34.122,50.225,32.602\O,0,3

 Normal termination of Gaussian 16 at Fri Apr 29 05:54:07 2022.
