 Gaussian 16, Revision A.03,
 Gaussian 16:  ES64L-G16RevA.03 25-Dec-2016

 ------------------------------
 #p blyp/Def2SVP td=(nstates=5)
 ------------------------------

 ---------------------------------------------------
 step_1651_chromophore_27 TDDFT with blyp functional
 ---------------------------------------------------
 Symbolic Z-matrix:
 Charge =  0 Multiplicity = 1

                         Standard orientation:
 ---------------------------------------------------------------------
 Center     Atomic      Atomic             Coordinates (Angstroms)
 Number     Number       Type             X           Y           Z
 ---------------------------------------------------------------------
      1         12           0       -4.873307    0.841873   -0.139870
      2          6           0       -4.353214   -2.607634    0.349127
      3          6           0       -1.382179    1.200676    0.257587
      4          6           0       -5.152234    4.185031    0.000365
      5          6           0       -8.320358    0.387228   -0.023580
      6          7           0       -3.079372   -0.531266    0.291133
      7          6           0       -3.127066   -1.940554    0.234016
      8          6           0       -1.782657   -2.638849    0.257493
      9          6           0       -0.825966   -1.330412    0.389252
     10          6           0       -1.771487   -0.143762    0.354507
     11          6           0       -0.131281   -1.373299    1.804258
     12          6           0       -1.384213   -3.420823   -1.068058
     13          6           0       -0.121063   -4.295123   -0.959168
     14          6           0        1.058209   -3.824539   -1.823099
     15          8           0        1.086760   -3.816132   -3.020899
     16          8           0        2.156583   -3.667089   -1.021682
     17          7           0       -3.443203    2.525977   -0.070843
     18          6           0       -2.086971    2.407581    0.080855
     19          6           0       -1.510975    3.723329    0.042173
     20          6           0       -2.586667    4.641908   -0.054402
     21          6           0       -3.809291    3.790247   -0.090048
     22          6           0       -0.037927    3.960809    0.125497
     23          6           0       -2.609960    6.178744   -0.186378
     24          8           0       -3.629050    6.788601   -0.458701
     25          6           0       -1.337246    6.961474   -0.197470
     26          7           0       -6.458417    2.103549   -0.101523
     27          6           0       -6.335960    3.477467   -0.027994
     28          6           0       -7.770395    4.094988    0.121312
     29          6           0       -8.733456    2.880893   -0.023291
     30          6           0       -7.816942    1.704660   -0.113089
     31          6           0       -7.960562    5.098682    1.321334
     32          6           0       -9.690680    2.994123   -1.238361
     33          6           0      -11.203817    3.094128   -0.825754
     34          7           0       -6.136716   -0.821625    0.014722
     35          6           0       -7.503766   -0.837160    0.113552
     36          6           0       -7.958813   -2.258425    0.251571
     37          6           0       -6.699194   -2.958740    0.335045
     38          6           0       -5.618690   -2.049078    0.239985
     39          6           0       -9.334023   -2.682854    0.410739
     40          6           0       -6.088751   -4.225525    0.614319
     41          8           0       -6.627105   -5.335705    0.875207
     42          6           0       -4.562332   -4.092609    0.384964
     43          6           0       -3.821785   -4.746433    1.614319
     44          8           0       -4.035671   -4.667356    2.804973
     45          8           0       -2.883044   -5.592639    1.062024
     46          6           0       -2.057239   -6.259456    2.028297
     47          6           0        3.476387   -3.969429   -1.569699
     48          6           0        4.183500   -2.683307   -1.930202
     49          6           0        5.485313   -2.266270   -1.752060
     50          6           0        6.608040   -3.067006   -1.208332
     51          6           0        5.959573   -0.869001   -2.280416
     52          6           0        6.893256   -0.912791   -3.455917
     53          6           0        8.336614   -0.515344   -3.331962
     54          6           0        8.736099    0.773702   -4.041856
     55          6           0        9.162645    0.467993   -5.499163
     56          6           0        9.799858    1.535601   -3.283604
     57          6           0        9.399540    2.469039   -2.195111
     58          6           0       10.426116    2.474107   -0.993919
     59          6           0       10.020382    1.641915    0.215877
     60          6           0       10.097330    0.130218    0.020511
     61          6           0       10.871677    2.062226    1.485553
     62          6           0       10.146628    1.783610    2.830820
     63          6           0       10.986300    1.012332    3.840192
     64          6           0       10.700605    1.210792    5.360684
     65          6           0       11.960045    0.592418    6.032069
     66          6           0        9.395072    0.490068    5.762400
     67          1           0       -0.302748    1.295037    0.398252
     68          1           0       -5.295193    5.266662    0.055195
     69          1           0       -9.394215    0.252152    0.124338
     70          1           0       -1.677617   -3.317363    1.104101
     71          1           0       -0.093860   -1.259249   -0.415390
     72          1           0       -0.229861   -2.368786    2.236898
     73          1           0       -0.606129   -0.662235    2.481143
     74          1           0        0.933531   -1.159494    1.706728
     75          1           0       -1.141689   -2.797242   -1.928506
     76          1           0       -2.201626   -4.039410   -1.439496
     77          1           0       -0.434367   -5.279221   -1.308929
     78          1           0        0.134356   -4.371196    0.097640
     79          1           0        0.315116    4.294192    1.100713
     80          1           0        0.221923    4.894479   -0.373895
     81          1           0        0.656285    3.198149   -0.229752
     82          1           0       -0.738638    6.574880   -1.022544
     83          1           0       -0.778165    6.807893    0.725512
     84          1           0       -1.436155    8.039342   -0.319974
     85          1           0       -7.750999    4.683582   -0.795296
     86          1           0       -9.247830    2.830838    0.936006
     87          1           0       -6.951195    5.374429    1.627118
     88          1           0       -8.388022    4.611434    2.198212
     89          1           0       -8.470560    6.007348    1.003161
     90          1           0       -9.538231    2.160562   -1.923719
     91          1           0       -9.352203    3.863668   -1.799936
     92          1           0      -11.769188    3.821682   -1.407468
     93          1           0      -11.210608    3.251707    0.252447
     94          1           0      -11.582732    2.097303   -1.052856
     95          1           0      -10.111388   -1.950925    0.194139
     96          1           0       -9.430394   -3.021308    1.442046
     97          1           0       -9.559441   -3.610230   -0.114956
     98          1           0       -4.446197   -4.680494   -0.525799
     99          1           0       -2.395581   -7.294837    2.080009
    100          1           0       -1.863957   -5.842814    3.016016
    101          1           0       -1.096244   -6.287188    1.515542
    102          1           0        3.549972   -4.476610   -2.531242
    103          1           0        4.149079   -4.448593   -0.859122
    104          1           0        3.579292   -1.847777   -2.283071
    105          1           0        6.905401   -2.599531   -0.269924
    106          1           0        7.558577   -3.074313   -1.741046
    107          1           0        6.281469   -4.024465   -0.801931
    108          1           0        6.430855   -0.427684   -1.402647
    109          1           0        5.111611   -0.242476   -2.556915
    110          1           0        6.430689   -0.238837   -4.177214
    111          1           0        6.957189   -1.953789   -3.772299
    112          1           0        8.969281   -1.296373   -3.754321
    113          1           0        8.586588   -0.373854   -2.281224
    114          1           0        7.790576    1.316109   -4.052411
    115          1           0        8.295886    0.510248   -6.158712
    116          1           0        9.577511   -0.540228   -5.517992
    117          1           0        9.857594    1.208948   -5.892895
    118          1           0       10.327517    2.210045   -3.957642
    119          1           0       10.491818    0.804077   -2.865473
    120          1           0        8.491378    2.004980   -1.811708
    121          1           0        9.134252    3.437048   -2.618660
    122          1           0       10.521488    3.526383   -0.723620
    123          1           0       11.462368    2.164656   -1.124328
    124          1           0        9.008080    2.032258    0.318721
    125          1           0       10.998454   -0.232514    0.515509
    126          1           0       10.324058   -0.091909   -1.022857
    127          1           0        9.227572   -0.374314    0.442074
    128          1           0       11.026817    3.136439    1.375487
    129          1           0       11.835118    1.553727    1.464404
    130          1           0        9.408800    1.030201    2.555663
    131          1           0        9.888438    2.702480    3.357332
    132          1           0       12.045017    1.230493    3.698959
    133          1           0       10.827011   -0.034415    3.580938
    134          1           0       10.630932    2.273308    5.592875
    135          1           0       12.377389    1.493864    6.480609
    136          1           0       12.634677    0.077264    5.347073
    137          1           0       11.804833   -0.120539    6.840724
    138          1           0        8.606114    0.538157    5.011189
    139          1           0        9.056105    0.891464    6.717372
    140          1           0        9.533667   -0.589025    5.823826
 ---------------------------------------------------------------------

 SCF Done:  E(RB-LYP) =  -3007.36824430     A.U. after   23 cycles

 Excitation energies and oscillator strengths:

 Excited State   1:      Singlet-A      1.6021 eV  773.90 nm  f=0.0029  <S**2>=0.000
     244 -> 247        0.54370
     245 -> 247       -0.44631
 This state for optimization and/or second-order correction.
 Total Energy, E(TD-HF/TD-DFT) =  -3007.30936965
 Copying the excited state density for this state as the 1-particle RhoCI density.

 Excited State   2:      Singlet-A      1.7981 eV  689.55 nm  f=0.3157  <S**2>=0.000
     245 -> 248        0.16704
     246 -> 247        0.68820
     246 <- 247       -0.15267

 Excited State   3:      Singlet-A      1.9571 eV  633.51 nm  f=0.0244  <S**2>=0.000
     243 -> 247        0.59734
     244 -> 247        0.23137
     245 -> 247        0.26786
     246 -> 248       -0.11050

 Excited State   4:      Singlet-A      2.0387 eV  608.15 nm  f=0.0635  <S**2>=0.000
     243 -> 247       -0.36944
     244 -> 247        0.35075
     245 -> 247        0.42390
     246 -> 248       -0.21976

 Excited State   5:      Singlet-A      2.2919 eV  540.96 nm  f=0.0001  <S**2>=0.000
     241 -> 247        0.70709

 The electronic state is 1-A.
 Alpha  occ. eigenvalues --  -46.27469 -18.82649 -18.82554 -18.77897 -18.77402
 Alpha  occ. eigenvalues --  -18.75750 -18.74287 -14.03638 -14.03088 -14.00923
 Alpha  occ. eigenvalues --  -14.00900 -10.04830 -10.04300 -10.00221  -9.99004
 Alpha  occ. eigenvalues --   -9.98384  -9.97543  -9.96738  -9.96661  -9.96637
 Alpha  occ. eigenvalues --   -9.96500  -9.96202  -9.95679  -9.95617  -9.94998
 Alpha  occ. eigenvalues --   -9.94646  -9.94323  -9.94151  -9.94067  -9.94055
 Alpha  occ. eigenvalues --   -9.93805  -9.93723  -9.93586  -9.93498  -9.93427
 Alpha  occ. eigenvalues --   -9.93416  -9.93357  -9.93141  -9.93068  -9.93054
 Alpha  occ. eigenvalues --   -9.92588  -9.92581  -9.92573  -9.92434  -9.92405
 Alpha  occ. eigenvalues --   -9.92224  -9.92185  -9.92121  -9.92090  -9.92011
 Alpha  occ. eigenvalues --   -9.91823  -9.91653  -9.91498  -9.91486  -9.91418
 Alpha  occ. eigenvalues --   -9.91237  -9.91225  -9.91191  -9.91028  -9.90956
 Alpha  occ. eigenvalues --   -9.90933  -9.90919  -9.90782  -9.90779  -9.90674
 Alpha  occ. eigenvalues --   -9.90456  -2.91992  -1.72431  -1.71844  -1.71725
 Alpha  occ. eigenvalues --   -0.99010  -0.98515  -0.92078  -0.91548  -0.90633
 Alpha  occ. eigenvalues --   -0.88291  -0.86542  -0.85643  -0.84808  -0.84132
 Alpha  occ. eigenvalues --   -0.75839  -0.74490  -0.73395  -0.72793  -0.72447
 Alpha  occ. eigenvalues --   -0.72380  -0.71542  -0.71396  -0.70416  -0.70266
 Alpha  occ. eigenvalues --   -0.69698  -0.69547  -0.68571  -0.67386  -0.67002
 Alpha  occ. eigenvalues --   -0.66757  -0.66040  -0.65795  -0.65480  -0.64734
 Alpha  occ. eigenvalues --   -0.64619  -0.62691  -0.62340  -0.62009  -0.61051
 Alpha  occ. eigenvalues --   -0.60635  -0.60608  -0.60406  -0.59997  -0.58781
 Alpha  occ. eigenvalues --   -0.58542  -0.57672  -0.56740  -0.55773  -0.54404
 Alpha  occ. eigenvalues --   -0.54247  -0.53766  -0.52822  -0.52145  -0.51521
 Alpha  occ. eigenvalues --   -0.51369  -0.51002  -0.50783  -0.50446  -0.50341
 Alpha  occ. eigenvalues --   -0.49789  -0.49257  -0.49060  -0.48859  -0.46931
 Alpha  occ. eigenvalues --   -0.46585  -0.46168  -0.45635  -0.45262  -0.45070
 Alpha  occ. eigenvalues --   -0.44430  -0.43827  -0.43384  -0.43250  -0.42572
 Alpha  occ. eigenvalues --   -0.42369  -0.42215  -0.42044  -0.41568  -0.41448
 Alpha  occ. eigenvalues --   -0.41287  -0.41056  -0.40597  -0.40474  -0.40233
 Alpha  occ. eigenvalues --   -0.39979  -0.39882  -0.39709  -0.39586  -0.39376
 Alpha  occ. eigenvalues --   -0.39320  -0.39177  -0.38865  -0.38620  -0.38286
 Alpha  occ. eigenvalues --   -0.38123  -0.37623  -0.37595  -0.37581  -0.37080
 Alpha  occ. eigenvalues --   -0.37058  -0.36871  -0.36821  -0.36746  -0.36595
 Alpha  occ. eigenvalues --   -0.36300  -0.36111  -0.36037  -0.35768  -0.35724
 Alpha  occ. eigenvalues --   -0.35689  -0.35273  -0.35160  -0.35008  -0.34828
 Alpha  occ. eigenvalues --   -0.34729  -0.34542  -0.34522  -0.34349  -0.34295
 Alpha  occ. eigenvalues --   -0.34164  -0.34007  -0.33959  -0.33613  -0.33408
 Alpha  occ. eigenvalues --   -0.32887  -0.32629  -0.32625  -0.32615  -0.32085
 Alpha  occ. eigenvalues --   -0.31977  -0.31940  -0.31869  -0.31751  -0.31659
 Alpha  occ. eigenvalues --   -0.31653  -0.31364  -0.31277  -0.30896  -0.30848
 Alpha  occ. eigenvalues --   -0.30774  -0.30651  -0.30375  -0.30303  -0.30013
 Alpha  occ. eigenvalues --   -0.29622  -0.29391  -0.29281  -0.29015  -0.28942
 Alpha  occ. eigenvalues --   -0.28807  -0.28741  -0.28244  -0.27901  -0.27575
 Alpha  occ. eigenvalues --   -0.27540  -0.27418  -0.26997  -0.26569  -0.26512
 Alpha  occ. eigenvalues --   -0.26345  -0.26030  -0.25934  -0.25805  -0.25525
 Alpha  occ. eigenvalues --   -0.25497  -0.25228  -0.24979  -0.23851  -0.23595
 Alpha  occ. eigenvalues --   -0.23331  -0.23015  -0.22591  -0.21953  -0.20764
 Alpha  occ. eigenvalues --   -0.20104  -0.19783  -0.18853  -0.17626  -0.17182
 Alpha  occ. eigenvalues --   -0.15890
 Alpha virt. eigenvalues --   -0.11682  -0.06677  -0.06125  -0.04719  -0.04085
 Alpha virt. eigenvalues --   -0.02502  -0.02259  -0.01969  -0.01473  -0.00103
 Alpha virt. eigenvalues --    0.00887   0.01458   0.01781   0.02446   0.02793

 Mulliken charges:
               1
     1  Mg   0.692201
     2  C    0.022976
     3  C   -0.060217
     4  C   -0.044431
     5  C   -0.052237
     6  N   -0.216072
     7  C   -0.072671
     8  C    0.034361
     9  C   -0.019960
    10  C    0.011436
    11  C    0.111871
    12  C    0.085391
    13  C    0.129336
    14  C    0.066223
    15  O   -0.153132
    16  O   -0.270019
    17  N   -0.210081
    18  C    0.127018
    19  C   -0.099964
    20  C    0.017516
    21  C    0.063007
    22  C    0.174317
    23  C   -0.054060
    24  O   -0.157082
    25  C    0.119862
    26  N   -0.306565
    27  C    0.018534
    28  C    0.014068
    29  C    0.034127
    30  C    0.054874
    31  C    0.144838
    32  C    0.100544
    33  C    0.066842
    34  N   -0.265171
    35  C    0.065090
    36  C   -0.143971
    37  C    0.097303
    38  C    0.099496
    39  C    0.176578
    40  C   -0.078421
    41  O   -0.185036
    42  C    0.062627
    43  C    0.102259
    44  O   -0.148801
    45  O   -0.273339
    46  C    0.206635
    47  C    0.370968
    48  C   -0.127998
    49  C   -0.177740
    50  C    0.157573
    51  C    0.136418
    52  C    0.085838
    53  C    0.088594
    54  C   -0.075848
    55  C    0.119878
    56  C    0.097426
    57  C    0.114884
    58  C    0.070242
    59  C   -0.110995
    60  C    0.149629
    61  C    0.098431
    62  C    0.152428
    63  C   -0.008355
    64  C   -0.068764
    65  C    0.105416
    66  C    0.107043
    67  H   -0.073565
    68  H   -0.044595
    69  H   -0.054364
    70  H   -0.001541
    71  H   -0.005295
    72  H   -0.010961
    73  H    0.004944
    74  H   -0.000362
    75  H   -0.021069
    76  H   -0.022896
    77  H    0.014026
    78  H   -0.015597
    79  H   -0.009297
    80  H   -0.046275
    81  H    0.004304
    82  H    0.026585
    83  H   -0.002157
    84  H   -0.008343
    85  H   -0.020004
    86  H   -0.019675
    87  H   -0.011847
    88  H   -0.009762
    89  H    0.001097
    90  H   -0.018879
    91  H   -0.029102
    92  H    0.001690
    93  H   -0.003134
    94  H   -0.004102
    95  H   -0.009970
    96  H    0.008426
    97  H   -0.001064
    98  H    0.024096
    99  H    0.017484
   100  H    0.028858
   101  H   -0.008956
   102  H    0.015595
   103  H   -0.010203
   104  H   -0.040078
   105  H   -0.023871
   106  H    0.007011
   107  H   -0.030697
   108  H   -0.029315
   109  H   -0.039703
   110  H   -0.025315
   111  H   -0.021740
   112  H   -0.039871
   113  H   -0.044587
   114  H   -0.052478
   115  H   -0.018638
   116  H   -0.017595
   117  H   -0.018491
   118  H   -0.045261
   119  H   -0.032778
   120  H   -0.045154
   121  H   -0.025703
   122  H   -0.044460
   123  H   -0.041300
   124  H   -0.042813
   125  H   -0.032603
   126  H   -0.013288
   127  H    0.002855
   128  H   -0.047657
   129  H   -0.031777
   130  H   -0.031964
   131  H   -0.028192
   132  H   -0.029199
   133  H   -0.036971
   134  H   -0.031019
   135  H   -0.014157
   136  H   -0.007033
   137  H   -0.025984
   138  H   -0.021975
   139  H   -0.010251
   140  H   -0.025208
 Sum of Mulliken charges =  -0.00000

 Dipole moment (field-independent basis, Debye):
    X=              4.7623    Y=              2.3492    Z=             -0.0448  Tot=              5.3104
 Quadrupole moment (field-independent basis, Debye-Ang):
   XX=           -384.5942   YY=           -424.8820   ZZ=           -419.9290
   XY=            -31.1173   XZ=             12.9106   YZ=              5.6371

 Normal termination of Gaussian 16 at Wed May  4 11:52:49 2022.
