 Gaussian 16, Revision A.03,
 Gaussian 16:  ES64L-G16RevA.03 25-Dec-2016

 -----------------------------------
 #p cam-b3lyp/Def2SVP td=(nstates=5)
 -----------------------------------

 --------------------------------------------------------
 step_1651_chromophore_27 TDDFT with cam-b3lyp functional
 --------------------------------------------------------
 Symbolic Z-matrix:
 Charge =  0 Multiplicity = 1

                         Standard orientation:
 ---------------------------------------------------------------------
 Center     Atomic      Atomic             Coordinates (Angstroms)
 Number     Number       Type             X           Y           Z
 ---------------------------------------------------------------------
      1         12           0       -4.873307    0.841873   -0.139870
      2          6           0       -4.353214   -2.607634    0.349127
      3          6           0       -1.382179    1.200676    0.257587
      4          6           0       -5.152234    4.185031    0.000365
      5          6           0       -8.320358    0.387228   -0.023580
      6          7           0       -3.079372   -0.531266    0.291133
      7          6           0       -3.127066   -1.940554    0.234016
      8          6           0       -1.782657   -2.638849    0.257493
      9          6           0       -0.825966   -1.330412    0.389252
     10          6           0       -1.771487   -0.143762    0.354507
     11          6           0       -0.131281   -1.373299    1.804258
     12          6           0       -1.384213   -3.420823   -1.068058
     13          6           0       -0.121063   -4.295123   -0.959168
     14          6           0        1.058209   -3.824539   -1.823099
     15          8           0        1.086760   -3.816132   -3.020899
     16          8           0        2.156583   -3.667089   -1.021682
     17          7           0       -3.443203    2.525977   -0.070843
     18          6           0       -2.086971    2.407581    0.080855
     19          6           0       -1.510975    3.723329    0.042173
     20          6           0       -2.586667    4.641908   -0.054402
     21          6           0       -3.809291    3.790247   -0.090048
     22          6           0       -0.037927    3.960809    0.125497
     23          6           0       -2.609960    6.178744   -0.186378
     24          8           0       -3.629050    6.788601   -0.458701
     25          6           0       -1.337246    6.961474   -0.197470
     26          7           0       -6.458417    2.103549   -0.101523
     27          6           0       -6.335960    3.477467   -0.027994
     28          6           0       -7.770395    4.094988    0.121312
     29          6           0       -8.733456    2.880893   -0.023291
     30          6           0       -7.816942    1.704660   -0.113089
     31          6           0       -7.960562    5.098682    1.321334
     32          6           0       -9.690680    2.994123   -1.238361
     33          6           0      -11.203817    3.094128   -0.825754
     34          7           0       -6.136716   -0.821625    0.014722
     35          6           0       -7.503766   -0.837160    0.113552
     36          6           0       -7.958813   -2.258425    0.251571
     37          6           0       -6.699194   -2.958740    0.335045
     38          6           0       -5.618690   -2.049078    0.239985
     39          6           0       -9.334023   -2.682854    0.410739
     40          6           0       -6.088751   -4.225525    0.614319
     41          8           0       -6.627105   -5.335705    0.875207
     42          6           0       -4.562332   -4.092609    0.384964
     43          6           0       -3.821785   -4.746433    1.614319
     44          8           0       -4.035671   -4.667356    2.804973
     45          8           0       -2.883044   -5.592639    1.062024
     46          6           0       -2.057239   -6.259456    2.028297
     47          6           0        3.476387   -3.969429   -1.569699
     48          6           0        4.183500   -2.683307   -1.930202
     49          6           0        5.485313   -2.266270   -1.752060
     50          6           0        6.608040   -3.067006   -1.208332
     51          6           0        5.959573   -0.869001   -2.280416
     52          6           0        6.893256   -0.912791   -3.455917
     53          6           0        8.336614   -0.515344   -3.331962
     54          6           0        8.736099    0.773702   -4.041856
     55          6           0        9.162645    0.467993   -5.499163
     56          6           0        9.799858    1.535601   -3.283604
     57          6           0        9.399540    2.469039   -2.195111
     58          6           0       10.426116    2.474107   -0.993919
     59          6           0       10.020382    1.641915    0.215877
     60          6           0       10.097330    0.130218    0.020511
     61          6           0       10.871677    2.062226    1.485553
     62          6           0       10.146628    1.783610    2.830820
     63          6           0       10.986300    1.012332    3.840192
     64          6           0       10.700605    1.210792    5.360684
     65          6           0       11.960045    0.592418    6.032069
     66          6           0        9.395072    0.490068    5.762400
     67          1           0       -0.302748    1.295037    0.398252
     68          1           0       -5.295193    5.266662    0.055195
     69          1           0       -9.394215    0.252152    0.124338
     70          1           0       -1.677617   -3.317363    1.104101
     71          1           0       -0.093860   -1.259249   -0.415390
     72          1           0       -0.229861   -2.368786    2.236898
     73          1           0       -0.606129   -0.662235    2.481143
     74          1           0        0.933531   -1.159494    1.706728
     75          1           0       -1.141689   -2.797242   -1.928506
     76          1           0       -2.201626   -4.039410   -1.439496
     77          1           0       -0.434367   -5.279221   -1.308929
     78          1           0        0.134356   -4.371196    0.097640
     79          1           0        0.315116    4.294192    1.100713
     80          1           0        0.221923    4.894479   -0.373895
     81          1           0        0.656285    3.198149   -0.229752
     82          1           0       -0.738638    6.574880   -1.022544
     83          1           0       -0.778165    6.807893    0.725512
     84          1           0       -1.436155    8.039342   -0.319974
     85          1           0       -7.750999    4.683582   -0.795296
     86          1           0       -9.247830    2.830838    0.936006
     87          1           0       -6.951195    5.374429    1.627118
     88          1           0       -8.388022    4.611434    2.198212
     89          1           0       -8.470560    6.007348    1.003161
     90          1           0       -9.538231    2.160562   -1.923719
     91          1           0       -9.352203    3.863668   -1.799936
     92          1           0      -11.769188    3.821682   -1.407468
     93          1           0      -11.210608    3.251707    0.252447
     94          1           0      -11.582732    2.097303   -1.052856
     95          1           0      -10.111388   -1.950925    0.194139
     96          1           0       -9.430394   -3.021308    1.442046
     97          1           0       -9.559441   -3.610230   -0.114956
     98          1           0       -4.446197   -4.680494   -0.525799
     99          1           0       -2.395581   -7.294837    2.080009
    100          1           0       -1.863957   -5.842814    3.016016
    101          1           0       -1.096244   -6.287188    1.515542
    102          1           0        3.549972   -4.476610   -2.531242
    103          1           0        4.149079   -4.448593   -0.859122
    104          1           0        3.579292   -1.847777   -2.283071
    105          1           0        6.905401   -2.599531   -0.269924
    106          1           0        7.558577   -3.074313   -1.741046
    107          1           0        6.281469   -4.024465   -0.801931
    108          1           0        6.430855   -0.427684   -1.402647
    109          1           0        5.111611   -0.242476   -2.556915
    110          1           0        6.430689   -0.238837   -4.177214
    111          1           0        6.957189   -1.953789   -3.772299
    112          1           0        8.969281   -1.296373   -3.754321
    113          1           0        8.586588   -0.373854   -2.281224
    114          1           0        7.790576    1.316109   -4.052411
    115          1           0        8.295886    0.510248   -6.158712
    116          1           0        9.577511   -0.540228   -5.517992
    117          1           0        9.857594    1.208948   -5.892895
    118          1           0       10.327517    2.210045   -3.957642
    119          1           0       10.491818    0.804077   -2.865473
    120          1           0        8.491378    2.004980   -1.811708
    121          1           0        9.134252    3.437048   -2.618660
    122          1           0       10.521488    3.526383   -0.723620
    123          1           0       11.462368    2.164656   -1.124328
    124          1           0        9.008080    2.032258    0.318721
    125          1           0       10.998454   -0.232514    0.515509
    126          1           0       10.324058   -0.091909   -1.022857
    127          1           0        9.227572   -0.374314    0.442074
    128          1           0       11.026817    3.136439    1.375487
    129          1           0       11.835118    1.553727    1.464404
    130          1           0        9.408800    1.030201    2.555663
    131          1           0        9.888438    2.702480    3.357332
    132          1           0       12.045017    1.230493    3.698959
    133          1           0       10.827011   -0.034415    3.580938
    134          1           0       10.630932    2.273308    5.592875
    135          1           0       12.377389    1.493864    6.480609
    136          1           0       12.634677    0.077264    5.347073
    137          1           0       11.804833   -0.120539    6.840724
    138          1           0        8.606114    0.538157    5.011189
    139          1           0        9.056105    0.891464    6.717372
    140          1           0        9.533667   -0.589025    5.823826
 ---------------------------------------------------------------------

 SCF Done:  E(RCAM-B3LYP) =  -3007.16138318     A.U. after   17 cycles

 Excitation energies and oscillator strengths:

 Excited State   1:      Singlet-A      1.6949 eV  731.50 nm  f=0.3999  <S**2>=0.000
     245 -> 248        0.17238
     246 -> 247        0.68814
     245 <- 248        0.10655
 This state for optimization and/or second-order correction.
 Total Energy, E(TD-HF/TD-DFT) =  -3007.09909573
 Copying the excited state density for this state as the 1-particle RhoCI density.

 Excited State   2:      Singlet-A      2.2202 eV  558.45 nm  f=0.1236  <S**2>=0.000
     245 -> 247        0.64673
     246 -> 248       -0.27261

 Excited State   3:      Singlet-A      3.2587 eV  380.47 nm  f=0.0008  <S**2>=0.000
     243 -> 247       -0.41918
     243 -> 249        0.19012
     243 -> 250        0.14692
     244 -> 247        0.48035

 Excited State   4:      Singlet-A      3.3275 eV  372.61 nm  f=0.0107  <S**2>=0.000
     241 -> 247       -0.16814
     243 -> 247        0.38982
     243 -> 249       -0.20632
     243 -> 250       -0.16217
     244 -> 247        0.47007

 Excited State   5:      Singlet-A      3.4607 eV  358.26 nm  f=0.0468  <S**2>=0.000
     239 -> 247        0.13309
     241 -> 247        0.57509
     243 -> 247        0.10201
     244 -> 247        0.14550
     246 -> 248        0.30857

 The electronic state is 1-A.
 Alpha  occ. eigenvalues --  -46.89058 -19.25520 -19.25455 -19.20926 -19.20485
 Alpha  occ. eigenvalues --  -19.19258 -19.17258 -14.42859 -14.41723 -14.39518
 Alpha  occ. eigenvalues --  -14.39214 -10.40084 -10.39774 -10.35694 -10.33559
 Alpha  occ. eigenvalues --  -10.33092 -10.31459 -10.31416 -10.31210 -10.31018
 Alpha  occ. eigenvalues --  -10.30983 -10.30475 -10.30321 -10.30227 -10.29260
 Alpha  occ. eigenvalues --  -10.29163 -10.28813 -10.28489 -10.28285 -10.28148
 Alpha  occ. eigenvalues --  -10.27977 -10.27867 -10.27765 -10.27672 -10.27651
 Alpha  occ. eigenvalues --  -10.27582 -10.27371 -10.27312 -10.27303 -10.27167
 Alpha  occ. eigenvalues --  -10.26457 -10.26402 -10.26271 -10.26177 -10.26173
 Alpha  occ. eigenvalues --  -10.26121 -10.26065 -10.25896 -10.25647 -10.25605
 Alpha  occ. eigenvalues --  -10.25573 -10.25556 -10.25228 -10.25224 -10.25096
 Alpha  occ. eigenvalues --  -10.25010 -10.24947 -10.24890 -10.24794 -10.24728
 Alpha  occ. eigenvalues --  -10.24593 -10.24576 -10.24482 -10.24409 -10.24399
 Alpha  occ. eigenvalues --  -10.24129  -3.17483  -1.92398  -1.91915  -1.91792
 Alpha  occ. eigenvalues --   -1.17532  -1.17038  -1.10783  -1.09454  -1.08585
 Alpha  occ. eigenvalues --   -1.06419  -1.04505  -1.03219  -1.02418  -1.01569
 Alpha  occ. eigenvalues --   -0.92942  -0.91469  -0.90281  -0.89597  -0.89279
 Alpha  occ. eigenvalues --   -0.89164  -0.88236  -0.88068  -0.87210  -0.86830
 Alpha  occ. eigenvalues --   -0.86033  -0.85903  -0.84936  -0.83592  -0.83020
 Alpha  occ. eigenvalues --   -0.82918  -0.82217  -0.81822  -0.81393  -0.80603
 Alpha  occ. eigenvalues --   -0.80470  -0.78690  -0.77963  -0.77481  -0.76494
 Alpha  occ. eigenvalues --   -0.76072  -0.76019  -0.75822  -0.75308  -0.73970
 Alpha  occ. eigenvalues --   -0.73678  -0.72606  -0.71678  -0.70622  -0.69006
 Alpha  occ. eigenvalues --   -0.68824  -0.68378  -0.67280  -0.66509  -0.65902
 Alpha  occ. eigenvalues --   -0.65382  -0.65144  -0.64869  -0.64330  -0.64256
 Alpha  occ. eigenvalues --   -0.63798  -0.63265  -0.62801  -0.62793  -0.60800
 Alpha  occ. eigenvalues --   -0.60164  -0.59767  -0.59078  -0.58705  -0.58612
 Alpha  occ. eigenvalues --   -0.57969  -0.57146  -0.56635  -0.56450  -0.55728
 Alpha  occ. eigenvalues --   -0.55566  -0.55392  -0.55273  -0.54751  -0.54418
 Alpha  occ. eigenvalues --   -0.54101  -0.53947  -0.53370  -0.53200  -0.53117
 Alpha  occ. eigenvalues --   -0.52903  -0.52666  -0.52498  -0.52419  -0.51971
 Alpha  occ. eigenvalues --   -0.51873  -0.51721  -0.51435  -0.51322  -0.50809
 Alpha  occ. eigenvalues --   -0.50524  -0.50322  -0.50079  -0.49813  -0.49611
 Alpha  occ. eigenvalues --   -0.49359  -0.49115  -0.49023  -0.48971  -0.48880
 Alpha  occ. eigenvalues --   -0.48636  -0.48188  -0.48023  -0.47863  -0.47717
 Alpha  occ. eigenvalues --   -0.47672  -0.47637  -0.47195  -0.47002  -0.46957
 Alpha  occ. eigenvalues --   -0.46601  -0.46419  -0.46342  -0.46276  -0.46142
 Alpha  occ. eigenvalues --   -0.46037  -0.45953  -0.45831  -0.45343  -0.45278
 Alpha  occ. eigenvalues --   -0.44674  -0.44368  -0.44218  -0.44093  -0.43994
 Alpha  occ. eigenvalues --   -0.43711  -0.43579  -0.43471  -0.43369  -0.43325
 Alpha  occ. eigenvalues --   -0.43295  -0.43102  -0.42858  -0.42629  -0.42488
 Alpha  occ. eigenvalues --   -0.42200  -0.42120  -0.41780  -0.41595  -0.41219
 Alpha  occ. eigenvalues --   -0.40899  -0.40711  -0.40498  -0.40365  -0.39983
 Alpha  occ. eigenvalues --   -0.39951  -0.39816  -0.39267  -0.38930  -0.38655
 Alpha  occ. eigenvalues --   -0.38491  -0.38294  -0.37857  -0.37407  -0.37290
 Alpha  occ. eigenvalues --   -0.37164  -0.37111  -0.36963  -0.36814  -0.36555
 Alpha  occ. eigenvalues --   -0.36498  -0.36228  -0.35771  -0.35191  -0.34911
 Alpha  occ. eigenvalues --   -0.34212  -0.33991  -0.32786  -0.31467  -0.31427
 Alpha  occ. eigenvalues --   -0.30320  -0.29683  -0.29557  -0.28728  -0.24118
 Alpha  occ. eigenvalues --   -0.21214
 Alpha virt. eigenvalues --   -0.08901  -0.01497   0.00331   0.02210   0.03067
 Alpha virt. eigenvalues --    0.03704   0.04850   0.05381   0.05547   0.06718
 Alpha virt. eigenvalues --    0.07486   0.07803   0.08454   0.08683   0.09181

 Mulliken charges:
               1
     1  Mg   0.822948
     2  C    0.002279
     3  C   -0.070898
     4  C   -0.075009
     5  C   -0.059773
     6  N   -0.277106
     7  C   -0.030506
     8  C   -0.015883
     9  C   -0.073382
    10  C    0.028585
    11  C    0.057544
    12  C    0.038667
    13  C    0.060870
    14  C    0.145035
    15  O   -0.192907
    16  O   -0.335633
    17  N   -0.298739
    18  C    0.139474
    19  C   -0.107409
    20  C   -0.047181
    21  C    0.096606
    22  C    0.114461
    23  C    0.024579
    24  O   -0.195423
    25  C    0.037582
    26  N   -0.388199
    27  C    0.053134
    28  C   -0.039701
    29  C   -0.029673
    30  C    0.077601
    31  C    0.084979
    32  C    0.044594
    33  C    0.006549
    34  N   -0.352618
    35  C    0.072842
    36  C   -0.144337
    37  C    0.021235
    38  C    0.125437
    39  C    0.119634
    40  C    0.025536
    41  O   -0.225235
    42  C   -0.019562
    43  C    0.189347
    44  O   -0.186249
    45  O   -0.334752
    46  C    0.166001
    47  C    0.329925
    48  C   -0.139273
    49  C   -0.201097
    50  C    0.091888
    51  C    0.083705
    52  C    0.024518
    53  C    0.041075
    54  C   -0.132920
    55  C    0.063333
    56  C    0.043954
    57  C    0.059227
    58  C    0.016945
    59  C   -0.163057
    60  C    0.085017
    61  C    0.046273
    62  C    0.093114
    63  C   -0.055490
    64  C   -0.126937
    65  C    0.041954
    66  C    0.047719
    67  H   -0.036531
    68  H   -0.005623
    69  H   -0.022205
    70  H    0.026679
    71  H    0.026370
    72  H    0.012811
    73  H    0.030867
    74  H    0.024236
    75  H    0.011544
    76  H    0.008310
    77  H    0.046509
    78  H    0.016226
    79  H    0.021691
    80  H   -0.016133
    81  H    0.033202
    82  H    0.051039
    83  H    0.025600
    84  H    0.028598
    85  H    0.014611
    86  H    0.014631
    87  H    0.012896
    88  H    0.015163
    89  H    0.026035
    90  H    0.012103
    91  H   -0.000479
    92  H    0.025350
    93  H    0.018064
    94  H    0.017609
    95  H    0.013567
    96  H    0.034076
    97  H    0.025418
    98  H    0.065680
    99  H    0.041022
   100  H    0.053453
   101  H    0.010831
   102  H    0.047350
   103  H    0.017822
   104  H   -0.008650
   105  H    0.002204
   106  H    0.030686
   107  H   -0.004470
   108  H   -0.002592
   109  H   -0.008029
   110  H    0.003387
   111  H    0.008579
   112  H   -0.011011
   113  H   -0.021514
   114  H   -0.020633
   115  H    0.006287
   116  H    0.005153
   117  H    0.006709
   118  H   -0.014466
   119  H   -0.006100
   120  H   -0.018810
   121  H    0.004178
   122  H   -0.012550
   123  H   -0.012608
   124  H   -0.011240
   125  H   -0.005273
   126  H    0.008043
   127  H    0.023919
   128  H   -0.016309
   129  H   -0.004000
   130  H   -0.005411
   131  H    0.000421
   132  H   -0.000869
   133  H   -0.010751
   134  H   -0.000591
   135  H    0.009846
   136  H    0.017507
   137  H    0.000147
   138  H    0.001849
   139  H    0.014355
   140  H   -0.000999
 Sum of Mulliken charges =  -0.00000

 Dipole moment (field-independent basis, Debye):
    X=              5.8547    Y=              3.2071    Z=             -0.0156  Tot=              6.6756
 Quadrupole moment (field-independent basis, Debye-Ang):
   XX=           -389.7143   YY=           -420.8288   ZZ=           -420.9064
   XY=            -33.4234   XZ=             13.7073   YZ=              5.7560

 Normal termination of Gaussian 16 at Wed May  4 10:57:09 2022.
