 Gaussian 16, Revision A.03,
 Gaussian 16:  ES64L-G16RevA.03 25-Dec-2016

 ---------------------------------
 #p PBE1PBE/Def2SVP td=(nstates=5)
 ---------------------------------

 ------------------------------------------------------
 step_1651_chromophore_27 TDDFT with PBE1PBE functional
 ------------------------------------------------------
 Symbolic Z-matrix:
 Charge =  0 Multiplicity = 1

                         Standard orientation:
 ---------------------------------------------------------------------
 Center     Atomic      Atomic             Coordinates (Angstroms)
 Number     Number       Type             X           Y           Z
 ---------------------------------------------------------------------
      1         12           0       -4.873307    0.841873   -0.139870
      2          6           0       -4.353214   -2.607634    0.349127
      3          6           0       -1.382179    1.200676    0.257587
      4          6           0       -5.152234    4.185031    0.000365
      5          6           0       -8.320358    0.387228   -0.023580
      6          7           0       -3.079372   -0.531266    0.291133
      7          6           0       -3.127066   -1.940554    0.234016
      8          6           0       -1.782657   -2.638849    0.257493
      9          6           0       -0.825966   -1.330412    0.389252
     10          6           0       -1.771487   -0.143762    0.354507
     11          6           0       -0.131281   -1.373299    1.804258
     12          6           0       -1.384213   -3.420823   -1.068058
     13          6           0       -0.121063   -4.295123   -0.959168
     14          6           0        1.058209   -3.824539   -1.823099
     15          8           0        1.086760   -3.816132   -3.020899
     16          8           0        2.156583   -3.667089   -1.021682
     17          7           0       -3.443203    2.525977   -0.070843
     18          6           0       -2.086971    2.407581    0.080855
     19          6           0       -1.510975    3.723329    0.042173
     20          6           0       -2.586667    4.641908   -0.054402
     21          6           0       -3.809291    3.790247   -0.090048
     22          6           0       -0.037927    3.960809    0.125497
     23          6           0       -2.609960    6.178744   -0.186378
     24          8           0       -3.629050    6.788601   -0.458701
     25          6           0       -1.337246    6.961474   -0.197470
     26          7           0       -6.458417    2.103549   -0.101523
     27          6           0       -6.335960    3.477467   -0.027994
     28          6           0       -7.770395    4.094988    0.121312
     29          6           0       -8.733456    2.880893   -0.023291
     30          6           0       -7.816942    1.704660   -0.113089
     31          6           0       -7.960562    5.098682    1.321334
     32          6           0       -9.690680    2.994123   -1.238361
     33          6           0      -11.203817    3.094128   -0.825754
     34          7           0       -6.136716   -0.821625    0.014722
     35          6           0       -7.503766   -0.837160    0.113552
     36          6           0       -7.958813   -2.258425    0.251571
     37          6           0       -6.699194   -2.958740    0.335045
     38          6           0       -5.618690   -2.049078    0.239985
     39          6           0       -9.334023   -2.682854    0.410739
     40          6           0       -6.088751   -4.225525    0.614319
     41          8           0       -6.627105   -5.335705    0.875207
     42          6           0       -4.562332   -4.092609    0.384964
     43          6           0       -3.821785   -4.746433    1.614319
     44          8           0       -4.035671   -4.667356    2.804973
     45          8           0       -2.883044   -5.592639    1.062024
     46          6           0       -2.057239   -6.259456    2.028297
     47          6           0        3.476387   -3.969429   -1.569699
     48          6           0        4.183500   -2.683307   -1.930202
     49          6           0        5.485313   -2.266270   -1.752060
     50          6           0        6.608040   -3.067006   -1.208332
     51          6           0        5.959573   -0.869001   -2.280416
     52          6           0        6.893256   -0.912791   -3.455917
     53          6           0        8.336614   -0.515344   -3.331962
     54          6           0        8.736099    0.773702   -4.041856
     55          6           0        9.162645    0.467993   -5.499163
     56          6           0        9.799858    1.535601   -3.283604
     57          6           0        9.399540    2.469039   -2.195111
     58          6           0       10.426116    2.474107   -0.993919
     59          6           0       10.020382    1.641915    0.215877
     60          6           0       10.097330    0.130218    0.020511
     61          6           0       10.871677    2.062226    1.485553
     62          6           0       10.146628    1.783610    2.830820
     63          6           0       10.986300    1.012332    3.840192
     64          6           0       10.700605    1.210792    5.360684
     65          6           0       11.960045    0.592418    6.032069
     66          6           0        9.395072    0.490068    5.762400
     67          1           0       -0.302748    1.295037    0.398252
     68          1           0       -5.295193    5.266662    0.055195
     69          1           0       -9.394215    0.252152    0.124338
     70          1           0       -1.677617   -3.317363    1.104101
     71          1           0       -0.093860   -1.259249   -0.415390
     72          1           0       -0.229861   -2.368786    2.236898
     73          1           0       -0.606129   -0.662235    2.481143
     74          1           0        0.933531   -1.159494    1.706728
     75          1           0       -1.141689   -2.797242   -1.928506
     76          1           0       -2.201626   -4.039410   -1.439496
     77          1           0       -0.434367   -5.279221   -1.308929
     78          1           0        0.134356   -4.371196    0.097640
     79          1           0        0.315116    4.294192    1.100713
     80          1           0        0.221923    4.894479   -0.373895
     81          1           0        0.656285    3.198149   -0.229752
     82          1           0       -0.738638    6.574880   -1.022544
     83          1           0       -0.778165    6.807893    0.725512
     84          1           0       -1.436155    8.039342   -0.319974
     85          1           0       -7.750999    4.683582   -0.795296
     86          1           0       -9.247830    2.830838    0.936006
     87          1           0       -6.951195    5.374429    1.627118
     88          1           0       -8.388022    4.611434    2.198212
     89          1           0       -8.470560    6.007348    1.003161
     90          1           0       -9.538231    2.160562   -1.923719
     91          1           0       -9.352203    3.863668   -1.799936
     92          1           0      -11.769188    3.821682   -1.407468
     93          1           0      -11.210608    3.251707    0.252447
     94          1           0      -11.582732    2.097303   -1.052856
     95          1           0      -10.111388   -1.950925    0.194139
     96          1           0       -9.430394   -3.021308    1.442046
     97          1           0       -9.559441   -3.610230   -0.114956
     98          1           0       -4.446197   -4.680494   -0.525799
     99          1           0       -2.395581   -7.294837    2.080009
    100          1           0       -1.863957   -5.842814    3.016016
    101          1           0       -1.096244   -6.287188    1.515542
    102          1           0        3.549972   -4.476610   -2.531242
    103          1           0        4.149079   -4.448593   -0.859122
    104          1           0        3.579292   -1.847777   -2.283071
    105          1           0        6.905401   -2.599531   -0.269924
    106          1           0        7.558577   -3.074313   -1.741046
    107          1           0        6.281469   -4.024465   -0.801931
    108          1           0        6.430855   -0.427684   -1.402647
    109          1           0        5.111611   -0.242476   -2.556915
    110          1           0        6.430689   -0.238837   -4.177214
    111          1           0        6.957189   -1.953789   -3.772299
    112          1           0        8.969281   -1.296373   -3.754321
    113          1           0        8.586588   -0.373854   -2.281224
    114          1           0        7.790576    1.316109   -4.052411
    115          1           0        8.295886    0.510248   -6.158712
    116          1           0        9.577511   -0.540228   -5.517992
    117          1           0        9.857594    1.208948   -5.892895
    118          1           0       10.327517    2.210045   -3.957642
    119          1           0       10.491818    0.804077   -2.865473
    120          1           0        8.491378    2.004980   -1.811708
    121          1           0        9.134252    3.437048   -2.618660
    122          1           0       10.521488    3.526383   -0.723620
    123          1           0       11.462368    2.164656   -1.124328
    124          1           0        9.008080    2.032258    0.318721
    125          1           0       10.998454   -0.232514    0.515509
    126          1           0       10.324058   -0.091909   -1.022857
    127          1           0        9.227572   -0.374314    0.442074
    128          1           0       11.026817    3.136439    1.375487
    129          1           0       11.835118    1.553727    1.464404
    130          1           0        9.408800    1.030201    2.555663
    131          1           0        9.888438    2.702480    3.357332
    132          1           0       12.045017    1.230493    3.698959
    133          1           0       10.827011   -0.034415    3.580938
    134          1           0       10.630932    2.273308    5.592875
    135          1           0       12.377389    1.493864    6.480609
    136          1           0       12.634677    0.077264    5.347073
    137          1           0       11.804833   -0.120539    6.840724
    138          1           0        8.606114    0.538157    5.011189
    139          1           0        9.056105    0.891464    6.717372
    140          1           0        9.533667   -0.589025    5.823826
 ---------------------------------------------------------------------

 SCF Done:  E(RPBE1PBE) =  -3005.35145898     A.U. after   16 cycles

 Excitation energies and oscillator strengths:

 Excited State   1:      Singlet-A      1.8392 eV  674.12 nm  f=0.3857  <S**2>=0.000
     245 -> 248        0.16958
     246 -> 247        0.69545
     246 <- 247       -0.11110
 This state for optimization and/or second-order correction.
 Total Energy, E(TD-HF/TD-DFT) =  -3005.28386941
 Copying the excited state density for this state as the 1-particle RhoCI density.

 Excited State   2:      Singlet-A      2.2168 eV  559.30 nm  f=0.1170  <S**2>=0.000
     245 -> 247        0.65600
     246 -> 248       -0.25123

 Excited State   3:      Singlet-A      2.7217 eV  455.54 nm  f=0.0010  <S**2>=0.000
     243 -> 247        0.18125
     244 -> 247        0.65229
     244 -> 249        0.14393

 Excited State   4:      Singlet-A      2.9067 eV  426.54 nm  f=0.0068  <S**2>=0.000
     243 -> 247        0.66492
     244 -> 247       -0.19311

 Excited State   5:      Singlet-A      3.0885 eV  401.44 nm  f=0.0008  <S**2>=0.000
     240 -> 247        0.30712
     240 -> 249       -0.10681
     241 -> 247        0.60102

 The electronic state is 1-A.
 Alpha  occ. eigenvalues --  -46.92446 -19.26234 -19.26171 -19.21190 -19.20751
 Alpha  occ. eigenvalues --  -19.19285 -19.17675 -14.42210 -14.41431 -14.39019
 Alpha  occ. eigenvalues --  -14.38965 -10.37136 -10.36878 -10.32643 -10.30856
 Alpha  occ. eigenvalues --  -10.30493 -10.28929 -10.28899 -10.28898 -10.28790
 Alpha  occ. eigenvalues --  -10.28729 -10.28237 -10.27845 -10.27721 -10.27022
 Alpha  occ. eigenvalues --  -10.26570 -10.26560 -10.26199 -10.26157 -10.26156
 Alpha  occ. eigenvalues --  -10.25686 -10.25511 -10.25343 -10.25320 -10.25296
 Alpha  occ. eigenvalues --  -10.25202 -10.25078 -10.24968 -10.24965 -10.24588
 Alpha  occ. eigenvalues --  -10.23899 -10.23835 -10.23818 -10.23653 -10.23611
 Alpha  occ. eigenvalues --  -10.23602 -10.23586 -10.23433 -10.23298 -10.23277
 Alpha  occ. eigenvalues --  -10.23205 -10.23153 -10.22905 -10.22744 -10.22724
 Alpha  occ. eigenvalues --  -10.22593 -10.22518 -10.22494 -10.22408 -10.22237
 Alpha  occ. eigenvalues --  -10.22032 -10.21968 -10.21947 -10.21942 -10.21809
 Alpha  occ. eigenvalues --  -10.21659  -3.14454  -1.87310  -1.86807  -1.86684
 Alpha  occ. eigenvalues --   -1.12365  -1.11870  -1.05341  -1.04355  -1.03456
 Alpha  occ. eigenvalues --   -1.01268  -0.98988  -0.97929  -0.97033  -0.96229
 Alpha  occ. eigenvalues --   -0.87393  -0.85558  -0.84381  -0.83760  -0.83506
 Alpha  occ. eigenvalues --   -0.83309  -0.82503  -0.82173  -0.81390  -0.81135
 Alpha  occ. eigenvalues --   -0.80470  -0.80126  -0.79118  -0.77810  -0.77364
 Alpha  occ. eigenvalues --   -0.77134  -0.76336  -0.76002  -0.75703  -0.74911
 Alpha  occ. eigenvalues --   -0.74679  -0.72823  -0.72277  -0.71853  -0.70673
 Alpha  occ. eigenvalues --   -0.70364  -0.70159  -0.69885  -0.69646  -0.68196
 Alpha  occ. eigenvalues --   -0.67968  -0.67113  -0.66057  -0.64935  -0.63318
 Alpha  occ. eigenvalues --   -0.63133  -0.62792  -0.61739  -0.60774  -0.60257
 Alpha  occ. eigenvalues --   -0.59880  -0.59466  -0.59365  -0.58922  -0.58640
 Alpha  occ. eigenvalues --   -0.57959  -0.57412  -0.57378  -0.56990  -0.55210
 Alpha  occ. eigenvalues --   -0.54528  -0.54224  -0.53707  -0.53279  -0.53027
 Alpha  occ. eigenvalues --   -0.52481  -0.51814  -0.51178  -0.50985  -0.50197
 Alpha  occ. eigenvalues --   -0.50021  -0.49856  -0.49637  -0.49394  -0.48866
 Alpha  occ. eigenvalues --   -0.48521  -0.48459  -0.48002  -0.47728  -0.47538
 Alpha  occ. eigenvalues --   -0.47397  -0.47206  -0.46891  -0.46786  -0.46639
 Alpha  occ. eigenvalues --   -0.46393  -0.46325  -0.46052  -0.45953  -0.45396
 Alpha  occ. eigenvalues --   -0.45150  -0.44818  -0.44519  -0.44362  -0.44280
 Alpha  occ. eigenvalues --   -0.43937  -0.43778  -0.43663  -0.43520  -0.43357
 Alpha  occ. eigenvalues --   -0.43227  -0.42846  -0.42649  -0.42553  -0.42420
 Alpha  occ. eigenvalues --   -0.42288  -0.42246  -0.41678  -0.41658  -0.41519
 Alpha  occ. eigenvalues --   -0.41309  -0.41143  -0.41044  -0.40931  -0.40884
 Alpha  occ. eigenvalues --   -0.40680  -0.40604  -0.40508  -0.40122  -0.40006
 Alpha  occ. eigenvalues --   -0.39532  -0.39198  -0.38977  -0.38874  -0.38863
 Alpha  occ. eigenvalues --   -0.38425  -0.38365  -0.38213  -0.38133  -0.38057
 Alpha  occ. eigenvalues --   -0.38024  -0.37837  -0.37701  -0.37482  -0.37184
 Alpha  occ. eigenvalues --   -0.36997  -0.36960  -0.36662  -0.36330  -0.36143
 Alpha  occ. eigenvalues --   -0.35774  -0.35643  -0.35326  -0.35248  -0.34989
 Alpha  occ. eigenvalues --   -0.34739  -0.34538  -0.34029  -0.33741  -0.33613
 Alpha  occ. eigenvalues --   -0.33329  -0.33232  -0.32571  -0.32250  -0.32166
 Alpha  occ. eigenvalues --   -0.32102  -0.32053  -0.31895  -0.31823  -0.31524
 Alpha  occ. eigenvalues --   -0.31420  -0.31013  -0.30686  -0.30017  -0.29887
 Alpha  occ. eigenvalues --   -0.29435  -0.28982  -0.28378  -0.27038  -0.26110
 Alpha  occ. eigenvalues --   -0.25680  -0.25001  -0.24613  -0.24491  -0.21010
 Alpha  occ. eigenvalues --   -0.18835
 Alpha virt. eigenvalues --   -0.11330  -0.05019  -0.03862  -0.02168  -0.00896
 Alpha virt. eigenvalues --    0.00226   0.00716   0.00909   0.01046   0.02879
 Alpha virt. eigenvalues --    0.03609   0.04373   0.04570   0.05257   0.05757

 Mulliken charges:
               1
     1  Mg   0.968224
     2  C    0.000133
     3  C   -0.062005
     4  C   -0.071126
     5  C   -0.049474
     6  N   -0.375080
     7  C    0.052457
     8  C   -0.097352
     9  C   -0.151910
    10  C    0.069370
    11  C    0.005543
    12  C   -0.005369
    13  C   -0.017247
    14  C    0.215247
    15  O   -0.226983
    16  O   -0.366166
    17  N   -0.415707
    18  C    0.161075
    19  C   -0.143073
    20  C   -0.094398
    21  C    0.134392
    22  C    0.061352
    23  C    0.071737
    24  O   -0.233774
    25  C   -0.035001
    26  N   -0.492285
    27  C    0.087372
    28  C   -0.106062
    29  C   -0.116202
    30  C    0.111035
    31  C    0.022189
    32  C   -0.009252
    33  C   -0.068590
    34  N   -0.480067
    35  C    0.105671
    36  C   -0.167294
    37  C   -0.033690
    38  C    0.171933
    39  C    0.066307
    40  C    0.131394
    41  O   -0.267372
    42  C   -0.142357
    43  C    0.275852
    44  O   -0.221926
    45  O   -0.363860
    46  C    0.108658
    47  C    0.277491
    48  C   -0.144219
    49  C   -0.251076
    50  C    0.031530
    51  C    0.023840
    52  C   -0.038336
    53  C   -0.019272
    54  C   -0.222349
    55  C    0.006051
    56  C   -0.012903
    57  C   -0.008419
    58  C   -0.036281
    59  C   -0.249192
    60  C    0.022023
    61  C   -0.005588
    62  C    0.022113
    63  C   -0.108703
    64  C   -0.221048
    65  C   -0.016889
    66  C   -0.011618
    67  H   -0.004280
    68  H    0.026790
    69  H    0.010945
    70  H    0.067445
    71  H    0.062090
    72  H    0.038920
    73  H    0.058352
    74  H    0.051040
    75  H    0.044343
    76  H    0.042081
    77  H    0.079029
    78  H    0.049420
    79  H    0.048632
    80  H    0.012054
    81  H    0.057359
    82  H    0.076786
    83  H    0.052559
    84  H    0.055365
    85  H    0.052764
    86  H    0.051993
    87  H    0.041542
    88  H    0.042352
    89  H    0.053208
    90  H    0.044138
    91  H    0.032985
    92  H    0.053155
    93  H    0.045735
    94  H    0.045086
    95  H    0.040353
    96  H    0.063686
    97  H    0.054644
    98  H    0.099971
    99  H    0.064034
   100  H    0.074379
   101  H    0.034861
   102  H    0.075110
   103  H    0.046557
   104  H    0.021212
   105  H    0.031521
   106  H    0.057276
   107  H    0.023503
   108  H    0.030875
   109  H    0.023533
   110  H    0.035287
   111  H    0.042104
   112  H    0.021250
   113  H    0.021625
   114  H    0.018747
   115  H    0.034124
   116  H    0.031715
   117  H    0.033737
   118  H    0.019757
   119  H    0.029051
   120  H    0.016543
   121  H    0.035601
   122  H    0.020955
   123  H    0.020463
   124  H    0.027554
   125  H    0.023432
   126  H    0.035097
   127  H    0.050370
   128  H    0.017123
   129  H    0.027190
   130  H    0.030072
   131  H    0.033188
   132  H    0.032265
   133  H    0.022963
   134  H    0.035374
   135  H    0.037759
   136  H    0.043408
   137  H    0.027584
   138  H    0.030071
   139  H    0.042421
   140  H    0.026292
 Sum of Mulliken charges =  -0.00000

 Dipole moment (field-independent basis, Debye):
    X=              5.4123    Y=              2.8396    Z=             -0.0021  Tot=              6.1120
 Quadrupole moment (field-independent basis, Debye-Ang):
   XX=           -379.8552   YY=           -418.3549   ZZ=           -418.5285
   XY=            -32.9351   XZ=             13.6636   YZ=              5.4987

 Normal termination of Gaussian 16 at Wed May  4 11:13:52 2022.
