 Gaussian 16, Revision A.03,
 Gaussian 16:  ES64L-G16RevA.03 25-Dec-2016

 --------------------------------
 #p wB97XD/Def2SVP td=(nstates=5)
 --------------------------------

 -----------------------------------------------------
 step_1651_chromophore_27 TDDFT with wB97XD functional
 -----------------------------------------------------
 Symbolic Z-matrix:
 Charge =  0 Multiplicity = 1

                         Standard orientation:
 ---------------------------------------------------------------------
 Center     Atomic      Atomic             Coordinates (Angstroms)
 Number     Number       Type             X           Y           Z
 ---------------------------------------------------------------------
      1         12           0       -4.873307    0.841873   -0.139870
      2          6           0       -4.353214   -2.607634    0.349127
      3          6           0       -1.382179    1.200676    0.257587
      4          6           0       -5.152234    4.185031    0.000365
      5          6           0       -8.320358    0.387228   -0.023580
      6          7           0       -3.079372   -0.531266    0.291133
      7          6           0       -3.127066   -1.940554    0.234016
      8          6           0       -1.782657   -2.638849    0.257493
      9          6           0       -0.825966   -1.330412    0.389252
     10          6           0       -1.771487   -0.143762    0.354507
     11          6           0       -0.131281   -1.373299    1.804258
     12          6           0       -1.384213   -3.420823   -1.068058
     13          6           0       -0.121063   -4.295123   -0.959168
     14          6           0        1.058209   -3.824539   -1.823099
     15          8           0        1.086760   -3.816132   -3.020899
     16          8           0        2.156583   -3.667089   -1.021682
     17          7           0       -3.443203    2.525977   -0.070843
     18          6           0       -2.086971    2.407581    0.080855
     19          6           0       -1.510975    3.723329    0.042173
     20          6           0       -2.586667    4.641908   -0.054402
     21          6           0       -3.809291    3.790247   -0.090048
     22          6           0       -0.037927    3.960809    0.125497
     23          6           0       -2.609960    6.178744   -0.186378
     24          8           0       -3.629050    6.788601   -0.458701
     25          6           0       -1.337246    6.961474   -0.197470
     26          7           0       -6.458417    2.103549   -0.101523
     27          6           0       -6.335960    3.477467   -0.027994
     28          6           0       -7.770395    4.094988    0.121312
     29          6           0       -8.733456    2.880893   -0.023291
     30          6           0       -7.816942    1.704660   -0.113089
     31          6           0       -7.960562    5.098682    1.321334
     32          6           0       -9.690680    2.994123   -1.238361
     33          6           0      -11.203817    3.094128   -0.825754
     34          7           0       -6.136716   -0.821625    0.014722
     35          6           0       -7.503766   -0.837160    0.113552
     36          6           0       -7.958813   -2.258425    0.251571
     37          6           0       -6.699194   -2.958740    0.335045
     38          6           0       -5.618690   -2.049078    0.239985
     39          6           0       -9.334023   -2.682854    0.410739
     40          6           0       -6.088751   -4.225525    0.614319
     41          8           0       -6.627105   -5.335705    0.875207
     42          6           0       -4.562332   -4.092609    0.384964
     43          6           0       -3.821785   -4.746433    1.614319
     44          8           0       -4.035671   -4.667356    2.804973
     45          8           0       -2.883044   -5.592639    1.062024
     46          6           0       -2.057239   -6.259456    2.028297
     47          6           0        3.476387   -3.969429   -1.569699
     48          6           0        4.183500   -2.683307   -1.930202
     49          6           0        5.485313   -2.266270   -1.752060
     50          6           0        6.608040   -3.067006   -1.208332
     51          6           0        5.959573   -0.869001   -2.280416
     52          6           0        6.893256   -0.912791   -3.455917
     53          6           0        8.336614   -0.515344   -3.331962
     54          6           0        8.736099    0.773702   -4.041856
     55          6           0        9.162645    0.467993   -5.499163
     56          6           0        9.799858    1.535601   -3.283604
     57          6           0        9.399540    2.469039   -2.195111
     58          6           0       10.426116    2.474107   -0.993919
     59          6           0       10.020382    1.641915    0.215877
     60          6           0       10.097330    0.130218    0.020511
     61          6           0       10.871677    2.062226    1.485553
     62          6           0       10.146628    1.783610    2.830820
     63          6           0       10.986300    1.012332    3.840192
     64          6           0       10.700605    1.210792    5.360684
     65          6           0       11.960045    0.592418    6.032069
     66          6           0        9.395072    0.490068    5.762400
     67          1           0       -0.302748    1.295037    0.398252
     68          1           0       -5.295193    5.266662    0.055195
     69          1           0       -9.394215    0.252152    0.124338
     70          1           0       -1.677617   -3.317363    1.104101
     71          1           0       -0.093860   -1.259249   -0.415390
     72          1           0       -0.229861   -2.368786    2.236898
     73          1           0       -0.606129   -0.662235    2.481143
     74          1           0        0.933531   -1.159494    1.706728
     75          1           0       -1.141689   -2.797242   -1.928506
     76          1           0       -2.201626   -4.039410   -1.439496
     77          1           0       -0.434367   -5.279221   -1.308929
     78          1           0        0.134356   -4.371196    0.097640
     79          1           0        0.315116    4.294192    1.100713
     80          1           0        0.221923    4.894479   -0.373895
     81          1           0        0.656285    3.198149   -0.229752
     82          1           0       -0.738638    6.574880   -1.022544
     83          1           0       -0.778165    6.807893    0.725512
     84          1           0       -1.436155    8.039342   -0.319974
     85          1           0       -7.750999    4.683582   -0.795296
     86          1           0       -9.247830    2.830838    0.936006
     87          1           0       -6.951195    5.374429    1.627118
     88          1           0       -8.388022    4.611434    2.198212
     89          1           0       -8.470560    6.007348    1.003161
     90          1           0       -9.538231    2.160562   -1.923719
     91          1           0       -9.352203    3.863668   -1.799936
     92          1           0      -11.769188    3.821682   -1.407468
     93          1           0      -11.210608    3.251707    0.252447
     94          1           0      -11.582732    2.097303   -1.052856
     95          1           0      -10.111388   -1.950925    0.194139
     96          1           0       -9.430394   -3.021308    1.442046
     97          1           0       -9.559441   -3.610230   -0.114956
     98          1           0       -4.446197   -4.680494   -0.525799
     99          1           0       -2.395581   -7.294837    2.080009
    100          1           0       -1.863957   -5.842814    3.016016
    101          1           0       -1.096244   -6.287188    1.515542
    102          1           0        3.549972   -4.476610   -2.531242
    103          1           0        4.149079   -4.448593   -0.859122
    104          1           0        3.579292   -1.847777   -2.283071
    105          1           0        6.905401   -2.599531   -0.269924
    106          1           0        7.558577   -3.074313   -1.741046
    107          1           0        6.281469   -4.024465   -0.801931
    108          1           0        6.430855   -0.427684   -1.402647
    109          1           0        5.111611   -0.242476   -2.556915
    110          1           0        6.430689   -0.238837   -4.177214
    111          1           0        6.957189   -1.953789   -3.772299
    112          1           0        8.969281   -1.296373   -3.754321
    113          1           0        8.586588   -0.373854   -2.281224
    114          1           0        7.790576    1.316109   -4.052411
    115          1           0        8.295886    0.510248   -6.158712
    116          1           0        9.577511   -0.540228   -5.517992
    117          1           0        9.857594    1.208948   -5.892895
    118          1           0       10.327517    2.210045   -3.957642
    119          1           0       10.491818    0.804077   -2.865473
    120          1           0        8.491378    2.004980   -1.811708
    121          1           0        9.134252    3.437048   -2.618660
    122          1           0       10.521488    3.526383   -0.723620
    123          1           0       11.462368    2.164656   -1.124328
    124          1           0        9.008080    2.032258    0.318721
    125          1           0       10.998454   -0.232514    0.515509
    126          1           0       10.324058   -0.091909   -1.022857
    127          1           0        9.227572   -0.374314    0.442074
    128          1           0       11.026817    3.136439    1.375487
    129          1           0       11.835118    1.553727    1.464404
    130          1           0        9.408800    1.030201    2.555663
    131          1           0        9.888438    2.702480    3.357332
    132          1           0       12.045017    1.230493    3.698959
    133          1           0       10.827011   -0.034415    3.580938
    134          1           0       10.630932    2.273308    5.592875
    135          1           0       12.377389    1.493864    6.480609
    136          1           0       12.634677    0.077264    5.347073
    137          1           0       11.804833   -0.120539    6.840724
    138          1           0        8.606114    0.538157    5.011189
    139          1           0        9.056105    0.891464    6.717372
    140          1           0        9.533667   -0.589025    5.823826
 ---------------------------------------------------------------------

 SCF Done:  E(RwB97XD) =  -3007.86082099     A.U. after   17 cycles

 Excitation energies and oscillator strengths:

 Excited State   1:      Singlet-A      1.6447 eV  753.82 nm  f=0.3987  <S**2>=0.000
     245 -> 248        0.17698
     246 -> 247        0.68566
     245 <- 248        0.11493
 This state for optimization and/or second-order correction.
 Total Energy, E(TD-HF/TD-DFT) =  -3007.80037795
 Copying the excited state density for this state as the 1-particle RhoCI density.

 Excited State   2:      Singlet-A      2.1699 eV  571.38 nm  f=0.1201  <S**2>=0.000
     245 -> 247        0.64407
     246 -> 248       -0.27504

 Excited State   3:      Singlet-A      3.3035 eV  375.31 nm  f=0.0006  <S**2>=0.000
     241 -> 247       -0.12386
     243 -> 247       -0.42612
     243 -> 249        0.22350
     243 -> 250        0.17467
     244 -> 247        0.43236

 Excited State   4:      Singlet-A      3.3836 eV  366.42 nm  f=0.0128  <S**2>=0.000
     241 -> 247       -0.22023
     243 -> 247        0.34873
     243 -> 249       -0.21195
     243 -> 250       -0.16531
     244 -> 247        0.47642

 Excited State   5:      Singlet-A      3.4801 eV  356.27 nm  f=0.0687  <S**2>=0.000
     239 -> 247        0.15718
     241 -> 247        0.52612
     244 -> 247        0.20503
     246 -> 248        0.34457

 The electronic state is 1-A.
 Alpha  occ. eigenvalues --  -46.95381 -19.30786 -19.30694 -19.25882 -19.25429
 Alpha  occ. eigenvalues --  -19.24325 -19.22301 -14.47506 -14.46313 -14.44127
 Alpha  occ. eigenvalues --  -14.43762 -10.43921 -10.43658 -10.39705 -10.37552
 Alpha  occ. eigenvalues --  -10.36998 -10.35483 -10.35290 -10.35213 -10.35010
 Alpha  occ. eigenvalues --  -10.34970 -10.34576 -10.34436 -10.34203 -10.33492
 Alpha  occ. eigenvalues --  -10.33269 -10.32886 -10.32538 -10.32211 -10.32198
 Alpha  occ. eigenvalues --  -10.32093 -10.32047 -10.31722 -10.31698 -10.31692
 Alpha  occ. eigenvalues --  -10.31684 -10.31370 -10.31315 -10.31298 -10.31185
 Alpha  occ. eigenvalues --  -10.30354 -10.30280 -10.30137 -10.30120 -10.30090
 Alpha  occ. eigenvalues --  -10.30016 -10.29987 -10.29843 -10.29598 -10.29595
 Alpha  occ. eigenvalues --  -10.29450 -10.29374 -10.29219 -10.29153 -10.28976
 Alpha  occ. eigenvalues --  -10.28971 -10.28900 -10.28824 -10.28799 -10.28648
 Alpha  occ. eigenvalues --  -10.28436 -10.28429 -10.28414 -10.28330 -10.28240
 Alpha  occ. eigenvalues --  -10.28067  -3.21264  -1.94867  -1.94361  -1.94239
 Alpha  occ. eigenvalues --   -1.19736  -1.19224  -1.13040  -1.11690  -1.10788
 Alpha  occ. eigenvalues --   -1.08607  -1.06596  -1.05219  -1.04415  -1.03562
 Alpha  occ. eigenvalues --   -0.94917  -0.93252  -0.92078  -0.91433  -0.91213
 Alpha  occ. eigenvalues --   -0.90989  -0.90138  -0.89858  -0.89193  -0.88747
 Alpha  occ. eigenvalues --   -0.87925  -0.87785  -0.86804  -0.85497  -0.84918
 Alpha  occ. eigenvalues --   -0.84819  -0.84137  -0.83700  -0.83308  -0.82550
 Alpha  occ. eigenvalues --   -0.82351  -0.80694  -0.79873  -0.79398  -0.78353
 Alpha  occ. eigenvalues --   -0.77956  -0.77887  -0.77612  -0.77256  -0.75850
 Alpha  occ. eigenvalues --   -0.75600  -0.74572  -0.73647  -0.72564  -0.70927
 Alpha  occ. eigenvalues --   -0.70714  -0.70341  -0.69300  -0.68412  -0.67887
 Alpha  occ. eigenvalues --   -0.67321  -0.67044  -0.66859  -0.66321  -0.66188
 Alpha  occ. eigenvalues --   -0.65652  -0.65082  -0.64774  -0.64653  -0.62849
 Alpha  occ. eigenvalues --   -0.62072  -0.61717  -0.61039  -0.60669  -0.60533
 Alpha  occ. eigenvalues --   -0.59933  -0.59134  -0.58633  -0.58408  -0.57669
 Alpha  occ. eigenvalues --   -0.57457  -0.57333  -0.57153  -0.56717  -0.56307
 Alpha  occ. eigenvalues --   -0.55974  -0.55870  -0.55307  -0.55167  -0.54999
 Alpha  occ. eigenvalues --   -0.54838  -0.54632  -0.54467  -0.54304  -0.53925
 Alpha  occ. eigenvalues --   -0.53771  -0.53607  -0.53367  -0.53251  -0.52752
 Alpha  occ. eigenvalues --   -0.52423  -0.52283  -0.52072  -0.51703  -0.51506
 Alpha  occ. eigenvalues --   -0.51275  -0.51017  -0.50942  -0.50881  -0.50840
 Alpha  occ. eigenvalues --   -0.50546  -0.50106  -0.49905  -0.49799  -0.49604
 Alpha  occ. eigenvalues --   -0.49587  -0.49536  -0.49190  -0.48918  -0.48803
 Alpha  occ. eigenvalues --   -0.48516  -0.48359  -0.48218  -0.48189  -0.48071
 Alpha  occ. eigenvalues --   -0.47953  -0.47851  -0.47740  -0.47263  -0.47202
 Alpha  occ. eigenvalues --   -0.46589  -0.46259  -0.46100  -0.46039  -0.45913
 Alpha  occ. eigenvalues --   -0.45657  -0.45509  -0.45393  -0.45255  -0.45253
 Alpha  occ. eigenvalues --   -0.45217  -0.44996  -0.44796  -0.44561  -0.44527
 Alpha  occ. eigenvalues --   -0.44085  -0.44037  -0.43732  -0.43471  -0.43164
 Alpha  occ. eigenvalues --   -0.42831  -0.42695  -0.42389  -0.42256  -0.41864
 Alpha  occ. eigenvalues --   -0.41836  -0.41664  -0.41131  -0.40812  -0.40547
 Alpha  occ. eigenvalues --   -0.40379  -0.40249  -0.39694  -0.39312  -0.39194
 Alpha  occ. eigenvalues --   -0.39143  -0.39042  -0.38897  -0.38738  -0.38571
 Alpha  occ. eigenvalues --   -0.38412  -0.38078  -0.37647  -0.37127  -0.36924
 Alpha  occ. eigenvalues --   -0.36185  -0.35831  -0.35010  -0.33684  -0.33421
 Alpha  occ. eigenvalues --   -0.32532  -0.31732  -0.31497  -0.30857  -0.26048
 Alpha  occ. eigenvalues --   -0.23015
 Alpha virt. eigenvalues --   -0.07248   0.00421   0.02384   0.04329   0.05925
 Alpha virt. eigenvalues --    0.06253   0.07303   0.07641   0.07662   0.09429
 Alpha virt. eigenvalues --    0.10057   0.11101   0.11242   0.11955   0.12427

 Mulliken charges:
               1
     1  Mg   0.959443
     2  C   -0.003035
     3  C   -0.079141
     4  C   -0.092328
     5  C   -0.069579
     6  N   -0.341624
     7  C    0.010226
     8  C   -0.055987
     9  C   -0.129017
    10  C    0.056132
    11  C    0.014570
    12  C    0.003222
    13  C    0.000713
    14  C    0.201179
    15  O   -0.223436
    16  O   -0.365163
    17  N   -0.381137
    18  C    0.156316
    19  C   -0.127913
    20  C   -0.089343
    21  C    0.126929
    22  C    0.069843
    23  C    0.070469
    24  O   -0.226516
    25  C   -0.024719
    26  N   -0.465804
    27  C    0.082245
    28  C   -0.085179
    29  C   -0.085604
    30  C    0.103074
    31  C    0.036220
    32  C    0.001060
    33  C   -0.049529
    34  N   -0.440267
    35  C    0.091789
    36  C   -0.163109
    37  C   -0.023646
    38  C    0.152703
    39  C    0.076439
    40  C    0.106310
    41  O   -0.259702
    42  C   -0.097985
    43  C    0.255208
    44  O   -0.216619
    45  O   -0.362551
    46  C    0.123792
    47  C    0.296512
    48  C   -0.155602
    49  C   -0.232817
    50  C    0.042328
    51  C    0.043208
    52  C   -0.023541
    53  C    0.010956
    54  C   -0.190653
    55  C    0.017532
    56  C    0.006751
    57  C    0.012736
    58  C   -0.021245
    59  C   -0.216837
    60  C    0.034847
    61  C    0.008929
    62  C    0.042130
    63  C   -0.088759
    64  C   -0.192670
    65  C   -0.006964
    66  C   -0.001533
    67  H   -0.010593
    68  H    0.020063
    69  H    0.003527
    70  H    0.044037
    71  H    0.052670
    72  H    0.034048
    73  H    0.052285
    74  H    0.046591
    75  H    0.036049
    76  H    0.033783
    77  H    0.074478
    78  H    0.039985
    79  H    0.046081
    80  H    0.005854
    81  H    0.055772
    82  H    0.070633
    83  H    0.047623
    84  H    0.055706
    85  H    0.040365
    86  H    0.038394
    87  H    0.033263
    88  H    0.037413
    89  H    0.048825
    90  H    0.036441
    91  H    0.023912
    92  H    0.048120
    93  H    0.038055
    94  H    0.038586
    95  H    0.034774
    96  H    0.056859
    97  H    0.048824
    98  H    0.094844
    99  H    0.060648
   100  H    0.071055
   101  H    0.029086
   102  H    0.070669
   103  H    0.040462
   104  H    0.016664
   105  H    0.024760
   106  H    0.051739
   107  H    0.017865
   108  H    0.019628
   109  H    0.017620
   110  H    0.026752
   111  H    0.032523
   112  H    0.011488
   113  H   -0.008076
   114  H    0.004078
   115  H    0.028673
   116  H    0.024953
   117  H    0.028129
   118  H    0.010842
   119  H    0.014510
   120  H    0.000292
   121  H    0.030841
   122  H    0.012803
   123  H    0.009948
   124  H    0.013333
   125  H    0.017239
   126  H    0.025922
   127  H    0.045616
   128  H    0.008935
   129  H    0.016600
   130  H    0.016435
   131  H    0.025773
   132  H    0.020340
   133  H    0.011680
   134  H    0.026111
   135  H    0.031998
   136  H    0.037323
   137  H    0.022796
   138  H    0.023236
   139  H    0.037576
   140  H    0.019610
 Sum of Mulliken charges =  -0.00000

 Dipole moment (field-independent basis, Debye):
    X=              6.0743    Y=              3.3475    Z=             -0.0011  Tot=              6.9357
 Quadrupole moment (field-independent basis, Debye-Ang):
   XX=           -385.7728   YY=           -416.3086   ZZ=           -418.1710
   XY=            -34.0452   XZ=             13.9248   YZ=              5.5667

 Normal termination of Gaussian 16 at Wed May  4 11:40:43 2022.
