 Gaussian 16, Revision A.03,
 Gaussian 16:  ES64L-G16RevA.03 25-Dec-2016

 --------------------
 #p ZINDO=(nstates=5)
 --------------------

 ------------------------------
 step_1651_chromophore_27 ZINDO
 ------------------------------
 Symbolic Z-matrix:
 Charge =  0 Multiplicity = 1

                         Standard orientation:
 ---------------------------------------------------------------------
 Center     Atomic      Atomic             Coordinates (Angstroms)
 Number     Number       Type             X           Y           Z
 ---------------------------------------------------------------------
      1         12           0       -4.873307    0.841873   -0.139870
      2          6           0       -4.353214   -2.607634    0.349127
      3          6           0       -1.382179    1.200676    0.257587
      4          6           0       -5.152234    4.185031    0.000365
      5          6           0       -8.320358    0.387228   -0.023580
      6          7           0       -3.079372   -0.531266    0.291133
      7          6           0       -3.127066   -1.940554    0.234016
      8          6           0       -1.782657   -2.638849    0.257493
      9          6           0       -0.825966   -1.330412    0.389252
     10          6           0       -1.771487   -0.143762    0.354507
     11          6           0       -0.131281   -1.373299    1.804258
     12          6           0       -1.384213   -3.420823   -1.068058
     13          6           0       -0.121063   -4.295123   -0.959168
     14          6           0        1.058209   -3.824539   -1.823099
     15          8           0        1.086760   -3.816132   -3.020899
     16          8           0        2.156583   -3.667089   -1.021682
     17          7           0       -3.443203    2.525977   -0.070843
     18          6           0       -2.086971    2.407581    0.080855
     19          6           0       -1.510975    3.723329    0.042173
     20          6           0       -2.586667    4.641908   -0.054402
     21          6           0       -3.809291    3.790247   -0.090048
     22          6           0       -0.037927    3.960809    0.125497
     23          6           0       -2.609960    6.178744   -0.186378
     24          8           0       -3.629050    6.788601   -0.458701
     25          6           0       -1.337246    6.961474   -0.197470
     26          7           0       -6.458417    2.103549   -0.101523
     27          6           0       -6.335960    3.477467   -0.027994
     28          6           0       -7.770395    4.094988    0.121312
     29          6           0       -8.733456    2.880893   -0.023291
     30          6           0       -7.816942    1.704660   -0.113089
     31          6           0       -7.960562    5.098682    1.321334
     32          6           0       -9.690680    2.994123   -1.238361
     33          6           0      -11.203817    3.094128   -0.825754
     34          7           0       -6.136716   -0.821625    0.014722
     35          6           0       -7.503766   -0.837160    0.113552
     36          6           0       -7.958813   -2.258425    0.251571
     37          6           0       -6.699194   -2.958740    0.335045
     38          6           0       -5.618690   -2.049078    0.239985
     39          6           0       -9.334023   -2.682854    0.410739
     40          6           0       -6.088751   -4.225525    0.614319
     41          8           0       -6.627105   -5.335705    0.875207
     42          6           0       -4.562332   -4.092609    0.384964
     43          6           0       -3.821785   -4.746433    1.614319
     44          8           0       -4.035671   -4.667356    2.804973
     45          8           0       -2.883044   -5.592639    1.062024
     46          6           0       -2.057239   -6.259456    2.028297
     47          6           0        3.476387   -3.969429   -1.569699
     48          6           0        4.183500   -2.683307   -1.930202
     49          6           0        5.485313   -2.266270   -1.752060
     50          6           0        6.608040   -3.067006   -1.208332
     51          6           0        5.959573   -0.869001   -2.280416
     52          6           0        6.893256   -0.912791   -3.455917
     53          6           0        8.336614   -0.515344   -3.331962
     54          6           0        8.736099    0.773702   -4.041856
     55          6           0        9.162645    0.467993   -5.499163
     56          6           0        9.799858    1.535601   -3.283604
     57          6           0        9.399540    2.469039   -2.195111
     58          6           0       10.426116    2.474107   -0.993919
     59          6           0       10.020382    1.641915    0.215877
     60          6           0       10.097330    0.130218    0.020511
     61          6           0       10.871677    2.062226    1.485553
     62          6           0       10.146628    1.783610    2.830820
     63          6           0       10.986300    1.012332    3.840192
     64          6           0       10.700605    1.210792    5.360684
     65          6           0       11.960045    0.592418    6.032069
     66          6           0        9.395072    0.490068    5.762400
     67          1           0       -0.302748    1.295037    0.398252
     68          1           0       -5.295193    5.266662    0.055195
     69          1           0       -9.394215    0.252152    0.124338
     70          1           0       -1.677617   -3.317363    1.104101
     71          1           0       -0.093860   -1.259249   -0.415390
     72          1           0       -0.229861   -2.368786    2.236898
     73          1           0       -0.606129   -0.662235    2.481143
     74          1           0        0.933531   -1.159494    1.706728
     75          1           0       -1.141689   -2.797242   -1.928506
     76          1           0       -2.201626   -4.039410   -1.439496
     77          1           0       -0.434367   -5.279221   -1.308929
     78          1           0        0.134356   -4.371196    0.097640
     79          1           0        0.315116    4.294192    1.100713
     80          1           0        0.221923    4.894479   -0.373895
     81          1           0        0.656285    3.198149   -0.229752
     82          1           0       -0.738638    6.574880   -1.022544
     83          1           0       -0.778165    6.807893    0.725512
     84          1           0       -1.436155    8.039342   -0.319974
     85          1           0       -7.750999    4.683582   -0.795296
     86          1           0       -9.247830    2.830838    0.936006
     87          1           0       -6.951195    5.374429    1.627118
     88          1           0       -8.388022    4.611434    2.198212
     89          1           0       -8.470560    6.007348    1.003161
     90          1           0       -9.538231    2.160562   -1.923719
     91          1           0       -9.352203    3.863668   -1.799936
     92          1           0      -11.769188    3.821682   -1.407468
     93          1           0      -11.210608    3.251707    0.252447
     94          1           0      -11.582732    2.097303   -1.052856
     95          1           0      -10.111388   -1.950925    0.194139
     96          1           0       -9.430394   -3.021308    1.442046
     97          1           0       -9.559441   -3.610230   -0.114956
     98          1           0       -4.446197   -4.680494   -0.525799
     99          1           0       -2.395581   -7.294837    2.080009
    100          1           0       -1.863957   -5.842814    3.016016
    101          1           0       -1.096244   -6.287188    1.515542
    102          1           0        3.549972   -4.476610   -2.531242
    103          1           0        4.149079   -4.448593   -0.859122
    104          1           0        3.579292   -1.847777   -2.283071
    105          1           0        6.905401   -2.599531   -0.269924
    106          1           0        7.558577   -3.074313   -1.741046
    107          1           0        6.281469   -4.024465   -0.801931
    108          1           0        6.430855   -0.427684   -1.402647
    109          1           0        5.111611   -0.242476   -2.556915
    110          1           0        6.430689   -0.238837   -4.177214
    111          1           0        6.957189   -1.953789   -3.772299
    112          1           0        8.969281   -1.296373   -3.754321
    113          1           0        8.586588   -0.373854   -2.281224
    114          1           0        7.790576    1.316109   -4.052411
    115          1           0        8.295886    0.510248   -6.158712
    116          1           0        9.577511   -0.540228   -5.517992
    117          1           0        9.857594    1.208948   -5.892895
    118          1           0       10.327517    2.210045   -3.957642
    119          1           0       10.491818    0.804077   -2.865473
    120          1           0        8.491378    2.004980   -1.811708
    121          1           0        9.134252    3.437048   -2.618660
    122          1           0       10.521488    3.526383   -0.723620
    123          1           0       11.462368    2.164656   -1.124328
    124          1           0        9.008080    2.032258    0.318721
    125          1           0       10.998454   -0.232514    0.515509
    126          1           0       10.324058   -0.091909   -1.022857
    127          1           0        9.227572   -0.374314    0.442074
    128          1           0       11.026817    3.136439    1.375487
    129          1           0       11.835118    1.553727    1.464404
    130          1           0        9.408800    1.030201    2.555663
    131          1           0        9.888438    2.702480    3.357332
    132          1           0       12.045017    1.230493    3.698959
    133          1           0       10.827011   -0.034415    3.580938
    134          1           0       10.630932    2.273308    5.592875
    135          1           0       12.377389    1.493864    6.480609
    136          1           0       12.634677    0.077264    5.347073
    137          1           0       11.804833   -0.120539    6.840724
    138          1           0        8.606114    0.538157    5.011189
    139          1           0        9.056105    0.891464    6.717372
    140          1           0        9.533667   -0.589025    5.823826
 ---------------------------------------------------------------------

 SCF Done:  E(RZINDO/S) =  -474.324968694     A.U. after   20 cycles

 Excitation energies and oscillator strengths:

 Excited State   1:      Singlet-A      1.2536 eV  989.06 nm  f=0.6107  <S**2>=0.000
     175 ->178        -0.16675
     176 ->177         0.66996
 This state for optimization and/or second-order correction.
 Total Energy, E(CIS/TDA) =  -474.278901380
 Copying the excited state density for this state as the 1-particle RhoCI density.

 Excited State   2:      Singlet-A      1.9468 eV  636.87 nm  f=0.0495  <S**2>=0.000
     175 ->177         0.55073
     176 ->178         0.41066

 Excited State   3:      Singlet-A      2.9288 eV  423.33 nm  f=0.0881  <S**2>=0.000
     171 ->177         0.29155
     171 ->178         0.18844
     171 ->179         0.24121
     171 ->180         0.33911
     171 ->186         0.15987
     171 ->187         0.17013
     171 ->201        -0.12460
     175 ->177         0.11354
     176 ->178        -0.17494
     176 ->179        -0.10553

 Excited State   4:      Singlet-A      2.9432 eV  421.26 nm  f=0.0240  <S**2>=0.000
     167 ->177         0.10156
     167 ->179        -0.17232
     167 ->180         0.10378
     168 ->177         0.28958
     168 ->179        -0.41122
     168 ->180         0.25335
     168 ->186        -0.21540

 Excited State   5:      Singlet-A      2.9883 eV  414.90 nm  f=0.5964  <S**2>=0.000
     171 ->179         0.10114
     171 ->180         0.13511
     175 ->177        -0.27981
     176 ->178         0.42311
     176 ->179         0.28790
     176 ->180         0.20765

 The electronic state is 1-A.
 Alpha  occ. eigenvalues --   -1.82165  -1.81779  -1.78224  -1.73621  -1.72474
 Alpha  occ. eigenvalues --   -1.70164  -1.68895  -1.62582  -1.60130  -1.57889
 Alpha  occ. eigenvalues --   -1.56656  -1.52661  -1.49661  -1.46989  -1.45499
 Alpha  occ. eigenvalues --   -1.44926  -1.44173  -1.40603  -1.40108  -1.37789
 Alpha  occ. eigenvalues --   -1.35161  -1.33421  -1.33073  -1.32236  -1.28272
 Alpha  occ. eigenvalues --   -1.27136  -1.24463  -1.22453  -1.21199  -1.18924
 Alpha  occ. eigenvalues --   -1.17312  -1.16774  -1.16492  -1.15634  -1.14170
 Alpha  occ. eigenvalues --   -1.12757  -1.11208  -1.09031  -1.04869  -1.03884
 Alpha  occ. eigenvalues --   -1.03300  -1.01085  -0.99136  -0.97946  -0.96689
 Alpha  occ. eigenvalues --   -0.95967  -0.94718  -0.93760  -0.92695  -0.91949
 Alpha  occ. eigenvalues --   -0.90961  -0.90172  -0.89017  -0.88706  -0.87595
 Alpha  occ. eigenvalues --   -0.86473  -0.84567  -0.83895  -0.82608  -0.80724
 Alpha  occ. eigenvalues --   -0.80447  -0.80098  -0.78594  -0.77648  -0.77104
 Alpha  occ. eigenvalues --   -0.76250  -0.75498  -0.75310  -0.74528  -0.74062
 Alpha  occ. eigenvalues --   -0.73293  -0.73081  -0.72569  -0.71829  -0.71049
 Alpha  occ. eigenvalues --   -0.70670  -0.69787  -0.69153  -0.68269  -0.67706
 Alpha  occ. eigenvalues --   -0.67387  -0.66754  -0.66677  -0.66002  -0.65711
 Alpha  occ. eigenvalues --   -0.65372  -0.65327  -0.64237  -0.63914  -0.63439
 Alpha  occ. eigenvalues --   -0.62939  -0.62630  -0.62425  -0.62202  -0.61126
 Alpha  occ. eigenvalues --   -0.61039  -0.60842  -0.60702  -0.60447  -0.60358
 Alpha  occ. eigenvalues --   -0.59812  -0.59714  -0.59077  -0.58769  -0.58404
 Alpha  occ. eigenvalues --   -0.57868  -0.57710  -0.57340  -0.56923  -0.56427
 Alpha  occ. eigenvalues --   -0.56063  -0.55525  -0.55185  -0.54755  -0.54630
 Alpha  occ. eigenvalues --   -0.54437  -0.53949  -0.53569  -0.53473  -0.53274
 Alpha  occ. eigenvalues --   -0.52900  -0.52541  -0.52221  -0.52106  -0.51756
 Alpha  occ. eigenvalues --   -0.51473  -0.51323  -0.50929  -0.50515  -0.50367
 Alpha  occ. eigenvalues --   -0.50232  -0.49932  -0.49355  -0.49100  -0.48892
 Alpha  occ. eigenvalues --   -0.48754  -0.48467  -0.48315  -0.48047  -0.47836
 Alpha  occ. eigenvalues --   -0.47085  -0.47013  -0.46468  -0.46397  -0.46278
 Alpha  occ. eigenvalues --   -0.46174  -0.45772  -0.45714  -0.45526  -0.45405
 Alpha  occ. eigenvalues --   -0.45170  -0.44952  -0.44935  -0.44329  -0.43874
 Alpha  occ. eigenvalues --   -0.43808  -0.43425  -0.43405  -0.42912  -0.42007
 Alpha  occ. eigenvalues --   -0.41744  -0.41395  -0.41352  -0.39623  -0.39322
 Alpha  occ. eigenvalues --   -0.38264  -0.36956  -0.35957  -0.34536  -0.34090
 Alpha  occ. eigenvalues --   -0.33768  -0.32651  -0.31740  -0.31147  -0.27006
 Alpha  occ. eigenvalues --   -0.21864
 Alpha virt. eigenvalues --   -0.08771  -0.01960  -0.00562   0.01227   0.01342
 Alpha virt. eigenvalues --    0.02348   0.02744   0.02847   0.04417   0.04515
 Alpha virt. eigenvalues --    0.05895   0.06465   0.06604   0.07606   0.08108

 Mulliken charges:
               1
     1  Mg   0.425401
     2  C   -0.013402
     3  C   -0.072063
     4  C   -0.077718
     5  C   -0.083953
     6  N   -0.287992
     7  C    0.081267
     8  C    0.000060
     9  C    0.000888
    10  C    0.162157
    11  C   -0.052369
    12  C   -0.029427
    13  C    0.002345
    14  C    0.476047
    15  O   -0.500099
    16  O   -0.276968
    17  N   -0.321957
    18  C    0.126213
    19  C    0.036939
    20  C   -0.049834
    21  C    0.175076
    22  C   -0.047770
    23  C    0.332232
    24  O   -0.511500
    25  C   -0.023718
    26  N   -0.294043
    27  C    0.165707
    28  C   -0.004561
    29  C    0.010999
    30  C    0.107738
    31  C   -0.051966
    32  C   -0.031680
    33  C   -0.062476
    34  N   -0.305417
    35  C    0.069317
    36  C    0.018266
    37  C   -0.060302
    38  C    0.094812
    39  C   -0.028733
    40  C    0.320834
    41  O   -0.554983
    42  C    0.053318
    43  C    0.477395
    44  O   -0.497257
    45  O   -0.274852
    46  C    0.075676
    47  C    0.109797
    48  C   -0.092576
    49  C   -0.021733
    50  C   -0.046585
    51  C   -0.020131
    52  C   -0.028449
    53  C   -0.034798
    54  C   -0.011770
    55  C   -0.059373
    56  C   -0.029010
    57  C   -0.034650
    58  C   -0.037652
    59  C   -0.015727
    60  C   -0.056345
    61  C   -0.042010
    62  C   -0.048771
    63  C   -0.039646
    64  C   -0.010219
    65  C   -0.062225
    66  C   -0.055488
    67  H    0.016615
    68  H    0.036670
    69  H    0.032542
    70  H    0.050048
    71  H    0.041496
    72  H    0.023466
    73  H    0.029061
    74  H    0.019593
    75  H    0.030674
    76  H    0.023069
    77  H    0.046466
    78  H    0.032581
    79  H    0.032909
    80  H    0.019637
    81  H    0.034485
    82  H    0.038570
    83  H    0.028265
    84  H    0.039642
    85  H    0.030306
    86  H    0.033293
    87  H    0.021524
    88  H    0.026945
    89  H    0.029971
    90  H    0.024316
    91  H    0.018913
    92  H    0.028266
    93  H    0.026749
    94  H    0.019293
    95  H    0.024891
    96  H    0.035281
    97  H    0.031719
    98  H    0.071552
    99  H    0.041798
   100  H    0.057298
   101  H    0.011930
   102  H    0.063927
   103  H    0.045043
   104  H    0.029862
   105  H    0.016138
   106  H    0.038342
   107  H    0.018816
   108  H    0.019466
   109  H    0.018085
   110  H    0.021677
   111  H    0.019945
   112  H    0.016471
   113  H    0.015548
   114  H    0.016777
   115  H    0.014543
   116  H    0.023365
   117  H    0.018468
   118  H    0.008805
   119  H    0.019673
   120  H    0.012364
   121  H    0.026606
   122  H    0.005512
   123  H    0.020989
   124  H    0.016712
   125  H    0.015019
   126  H    0.024273
   127  H    0.025503
   128  H    0.012000
   129  H    0.024774
   130  H    0.028622
   131  H    0.031725
   132  H    0.012379
   133  H    0.013768
   134  H    0.026947
   135  H    0.015636
   136  H    0.026166
   137  H    0.015743
   138  H    0.014879
   139  H    0.017998
   140  H    0.017321
 Sum of Mulliken charges =  -0.00000

 Dipole moment (field-independent basis, Debye):
    X=              9.7111    Y=              5.3834    Z=              0.3497  Tot=             11.1089
 N-N= 4.343069912530D+03 E-N= 0.000000000000D+00  KE=-9.360031238689D+03
 Leave Link  601 at Wed May  4 11:52:56 2022, MaxMem=  6710886400 cpu:               0.8 elap:               0.0
 (Enter /sw/apps/gaussian-16.0/g16/l9999.exe)
 1\1\GINC-BP1-COMPUTE031\SP\RZINDO CIS\STO-3G\C55H74Mg1N4O6\OF15641\04-
 May-2022\0\\#p ZINDO=(nstates=5)\\step_1651_chromophore_27 ZINDO\\0,1\
 Mg,0,-5.023,25.154,26.315\C,0,-3.448,27.161,28.744\C,0,-5.873,22.989,2
 8.973\C,0,-6.081,22.801,24.166\C,0,-3.701,27.118,23.766\N,0,-4.672,25.
 06,28.586\C,0,-4.174,26.132,29.357\C,0,-4.298,25.967,30.858\C,0,-4.969
 ,24.486,30.89\C,0,-5.161,24.107,29.433\C,0,-3.927,23.491,31.531\C,0,-5
 .282,26.98,31.588\C,0,-5.24,26.941,33.127\C,0,-6.532,26.44,33.789\O,0,

 Normal termination of Gaussian 16 at Wed May  4 11:52:56 2022.
