 Gaussian 16, Revision A.03,
 Gaussian 16:  ES64L-G16RevA.03 25-Dec-2016

 ------------------------------
 #p blyp/Def2SVP td=(nstates=5)
 ------------------------------

 ---------------------------------------------------
 step_1101_chromophore_16 TDDFT with blyp functional
 ---------------------------------------------------
 Symbolic Z-matrix:
 Charge =  0 Multiplicity = 1

                         Standard orientation:
 ---------------------------------------------------------------------
 Center     Atomic      Atomic             Coordinates (Angstroms)
 Number     Number       Type             X           Y           Z
 ---------------------------------------------------------------------
      1         12           0        6.511276    0.395877    0.137830
      2          6           0        4.146024   -2.097484   -0.023248
      3          6           0        4.072093    2.606883   -1.084734
      4          6           0        8.751717    2.987444    0.061473
      5          6           0        8.885226   -1.769780    1.217752
      6          7           0        4.300292    0.272010   -0.387567
      7          6           0        3.571761   -0.866839   -0.361952
      8          6           0        2.067699   -0.603403   -0.758702
      9          6           0        2.182671    0.912216   -1.149880
     10          6           0        3.613090    1.324994   -0.871587
     11          6           0        1.644816    1.318586   -2.525645
     12          6           0        1.040448   -1.000149    0.340894
     13          6           0       -0.399750   -0.572856    0.099621
     14          6           0       -1.371891   -1.666794   -0.382708
     15          8           0       -1.016940   -2.699932   -0.968584
     16          8           0       -2.661222   -1.409491   -0.118176
     17          7           0        6.474862    2.479560   -0.408008
     18          6           0        5.344061    3.196348   -0.818359
     19          6           0        5.752466    4.530742   -1.173365
     20          6           0        7.092546    4.656380   -0.751234
     21          6           0        7.494467    3.330314   -0.346152
     22          6           0        4.729499    5.627905   -1.610395
     23          6           0        7.954624    5.993332   -0.599497
     24          8           0        9.088436    6.062184   -0.124931
     25          6           0        7.216773    7.218965   -0.942048
     26          7           0        8.548607    0.648036    0.628078
     27          6           0        9.277850    1.771249    0.483097
     28          6           0       10.738056    1.497703    0.849460
     29          6           0       10.739693   -0.019169    1.303644
     30          6           0        9.290952   -0.440925    1.062844
     31          6           0       11.879953    1.868386   -0.147248
     32          6           0       11.308503   -0.192537    2.768387
     33          6           0       10.387575    0.145246    3.865519
     34          7           0        6.611741   -1.589551    0.531257
     35          6           0        7.621897   -2.368809    0.984542
     36          6           0        7.185019   -3.723246    1.106205
     37          6           0        5.824113   -3.711912    0.769162
     38          6           0        5.520402   -2.359225    0.396256
     39          6           0        7.937382   -4.885145    1.578357
     40          6           0        4.595186   -4.485493    0.641257
     41          8           0        4.362402   -5.620892    0.942526
     42          6           0        3.523767   -3.423365    0.192483
     43          6           0        2.688697   -4.016660   -0.858139
     44          8           0        2.949042   -3.879959   -2.052843
     45          8           0        1.617198   -4.704215   -0.300264
     46          6           0        0.803827   -5.476483   -1.266582
     47          6           0       -3.643129   -2.395794   -0.451559
     48          6           0       -4.867131   -1.596834   -0.898874
     49          6           0       -5.976961   -2.127450   -1.419164
     50          6           0       -6.213024   -3.588107   -1.590819
     51          6           0       -7.115522   -1.284652   -2.031230
     52          6           0       -8.371639   -1.201331   -1.099568
     53          6           0       -8.995705    0.205886   -0.781910
     54          6           0      -10.200737    0.397363   -1.724052
     55          6           0       -9.715992    1.205835   -2.900817
     56          6           0      -11.401835    1.014432   -0.926921
     57          6           0      -12.720873    0.743776   -1.699025
     58          6           0      -13.833383   -0.237031   -1.054952
     59          6           0      -15.172979    0.516543   -0.770535
     60          6           0      -15.699175    1.173496   -2.051447
     61          6           0      -14.956004    1.500493    0.330539
     62          6           0      -15.249128    0.895823    1.715707
     63          6           0      -15.469238    1.986469    2.808237
     64          6           0      -15.052127    1.604318    4.270504
     65          6           0      -13.728165    2.293443    4.548304
     66          6           0      -16.118935    2.068758    5.309793
     67          1           0        3.378911    3.338846   -1.502946
     68          1           0        9.462348    3.746827   -0.270116
     69          1           0        9.589338   -2.490856    1.639965
     70          1           0        1.883702   -1.180478   -1.664587
     71          1           0        1.598265    1.458784   -0.409986
     72          1           0        2.542351    1.547693   -3.099637
     73          1           0        0.993550    2.189241   -2.454985
     74          1           0        1.218218    0.437215   -3.004245
     75          1           0        1.358856   -0.558361    1.284950
     76          1           0        1.063773   -2.087602    0.410888
     77          1           0       -0.486095    0.289130   -0.561631
     78          1           0       -0.827222   -0.223111    1.038093
     79          1           0        3.862508    5.157153   -2.074948
     80          1           0        5.130366    6.239765   -2.419168
     81          1           0        4.320387    6.303906   -0.859785
     82          1           0        6.412286    7.264558   -0.207757
     83          1           0        6.963789    7.111385   -1.996974
     84          1           0        7.785463    8.143640   -0.847998
     85          1           0       10.905353    2.200454    1.666191
     86          1           0       11.337199   -0.630066    0.627028
     87          1           0       12.566560    2.655983    0.163879
     88          1           0       11.363967    2.255897   -1.026800
     89          1           0       12.514454    1.023022   -0.412642
     90          1           0       12.259998    0.273239    3.027369
     91          1           0       11.605066   -1.241727    2.754626
     92          1           0        9.999408   -0.768221    4.314805
     93          1           0        9.486394    0.693180    3.587517
     94          1           0       10.951347    0.675171    4.632762
     95          1           0        8.672463   -5.064282    0.793453
     96          1           0        7.326668   -5.783097    1.670369
     97          1           0        8.521474   -4.788022    2.494260
     98          1           0        2.922740   -3.424579    1.101917
     99          1           0        0.362281   -6.362827   -0.812002
    100          1           0        1.476078   -5.820433   -2.052976
    101          1           0       -0.050430   -4.961087   -1.703959
    102          1           0       -3.827363   -2.989345    0.443405
    103          1           0       -3.423724   -3.035208   -1.307344
    104          1           0       -4.900203   -0.507047   -0.926849
    105          1           0       -5.419589   -4.221148   -1.191786
    106          1           0       -6.387735   -3.794729   -2.646814
    107          1           0       -7.099690   -3.855644   -1.016931
    108          1           0       -7.469285   -1.755611   -2.948285
    109          1           0       -6.796110   -0.332418   -2.452663
    110          1           0       -8.190649   -1.641989   -0.119247
    111          1           0       -9.022499   -1.899889   -1.625420
    112          1           0       -8.234522    0.965766   -0.955770
    113          1           0       -9.210516    0.237256    0.286454
    114          1           0      -10.625781   -0.573374   -1.978471
    115          1           0       -9.971056    2.264031   -2.858724
    116          1           0      -10.198889    0.734593   -3.756754
    117          1           0       -8.634861    1.175137   -3.033221
    118          1           0      -11.386278    2.103694   -0.957344
    119          1           0      -11.454589    0.653416    0.100592
    120          1           0      -12.461525    0.394188   -2.698255
    121          1           0      -13.180160    1.684550   -2.005213
    122          1           0      -13.409579   -0.673760   -0.150804
    123          1           0      -14.190341   -1.106420   -1.606193
    124          1           0      -15.871353   -0.303724   -0.603193
    125          1           0      -15.614803    2.260686   -2.047777
    126          1           0      -16.714429    0.811394   -2.215648
    127          1           0      -15.266251    0.835943   -2.992497
    128          1           0      -15.448477    2.472106    0.315283
    129          1           0      -13.929077    1.865864    0.323486
    130          1           0      -14.326712    0.348720    1.914935
    131          1           0      -16.123582    0.259094    1.582716
    132          1           0      -16.559075    2.019491    2.806385
    133          1           0      -15.077608    2.950352    2.485991
    134          1           0      -14.878480    0.531011    4.351732
    135          1           0      -13.036219    1.599639    5.025273
    136          1           0      -13.793208    3.118020    5.258610
    137          1           0      -13.258428    2.811973    3.712617
    138          1           0      -16.654699    1.207488    5.710093
    139          1           0      -16.841370    2.766799    4.888846
    140          1           0      -15.635450    2.705164    6.051617
 ---------------------------------------------------------------------

 SCF Done:  E(RB-LYP) =  -3007.38702123     A.U. after   20 cycles

 Excitation energies and oscillator strengths:

 Excited State   1:      Singlet-A      1.8472 eV  671.20 nm  f=0.2948  <S**2>=0.000
     245 -> 247        0.11509
     245 -> 248        0.18813
     246 -> 247        0.67820
     246 <- 247       -0.14263
 This state for optimization and/or second-order correction.
 Total Energy, E(TD-HF/TD-DFT) =  -3007.31913810
 Copying the excited state density for this state as the 1-particle RhoCI density.

 Excited State   2:      Singlet-A      1.9690 eV  629.68 nm  f=0.0865  <S**2>=0.000
     243 -> 247        0.32158
     245 -> 247        0.58037
     246 -> 247       -0.12078
     246 -> 248       -0.17223

 Excited State   3:      Singlet-A      2.0613 eV  601.48 nm  f=0.0010  <S**2>=0.000
     243 -> 247        0.10932
     244 -> 247        0.69672

 Excited State   4:      Singlet-A      2.1155 eV  586.08 nm  f=0.0254  <S**2>=0.000
     243 -> 247        0.61620
     245 -> 247       -0.29531
     246 -> 248        0.13960

 Excited State   5:      Singlet-A      2.4138 eV  513.64 nm  f=0.0000  <S**2>=0.000
     242 -> 247        0.70410

 The electronic state is 1-A.
 Alpha  occ. eigenvalues --  -46.26949 -18.83112 -18.81151 -18.76810 -18.76145
 Alpha  occ. eigenvalues --  -18.75845 -18.75632 -14.03117 -14.02897 -14.00598
 Alpha  occ. eigenvalues --  -14.00548 -10.04711 -10.02736 -10.00434  -9.99538
 Alpha  occ. eigenvalues --   -9.98747  -9.96523  -9.96367  -9.96119  -9.96093
 Alpha  occ. eigenvalues --   -9.95734  -9.95487  -9.94891  -9.94587  -9.94510
 Alpha  occ. eigenvalues --   -9.94256  -9.93912  -9.93824  -9.93523  -9.93513
 Alpha  occ. eigenvalues --   -9.93322  -9.93296  -9.93282  -9.93220  -9.93137
 Alpha  occ. eigenvalues --   -9.92758  -9.92705  -9.92679  -9.92592  -9.92566
 Alpha  occ. eigenvalues --   -9.92228  -9.92225  -9.92198  -9.92156  -9.92037
 Alpha  occ. eigenvalues --   -9.91946  -9.91869  -9.91863  -9.91850  -9.91729
 Alpha  occ. eigenvalues --   -9.91607  -9.91536  -9.91449  -9.91314  -9.91253
 Alpha  occ. eigenvalues --   -9.91242  -9.91238  -9.91025  -9.90987  -9.90910
 Alpha  occ. eigenvalues --   -9.90815  -9.90731  -9.90711  -9.90523  -9.90378
 Alpha  occ. eigenvalues --   -9.90375  -2.91525  -1.71974  -1.71372  -1.71258
 Alpha  occ. eigenvalues --   -0.99611  -0.95591  -0.92583  -0.91383  -0.89789
 Alpha  occ. eigenvalues --   -0.88382  -0.86750  -0.86040  -0.85736  -0.84814
 Alpha  occ. eigenvalues --   -0.75252  -0.73842  -0.73244  -0.72798  -0.72294
 Alpha  occ. eigenvalues --   -0.72162  -0.71424  -0.71024  -0.70774  -0.70325
 Alpha  occ. eigenvalues --   -0.69922  -0.69442  -0.68144  -0.67368  -0.67200
 Alpha  occ. eigenvalues --   -0.66524  -0.66048  -0.65597  -0.64928  -0.64245
 Alpha  occ. eigenvalues --   -0.63987  -0.62541  -0.62350  -0.61618  -0.60659
 Alpha  occ. eigenvalues --   -0.60305  -0.59878  -0.59697  -0.59579  -0.59232
 Alpha  occ. eigenvalues --   -0.58798  -0.57783  -0.56884  -0.55861  -0.54754
 Alpha  occ. eigenvalues --   -0.54306  -0.53806  -0.52181  -0.51961  -0.51558
 Alpha  occ. eigenvalues --   -0.51305  -0.50721  -0.50532  -0.50238  -0.50033
 Alpha  occ. eigenvalues --   -0.49927  -0.49477  -0.48052  -0.47315  -0.46707
 Alpha  occ. eigenvalues --   -0.46198  -0.45865  -0.45726  -0.45189  -0.44395
 Alpha  occ. eigenvalues --   -0.43816  -0.43438  -0.43144  -0.42995  -0.42258
 Alpha  occ. eigenvalues --   -0.41755  -0.41683  -0.41572  -0.41514  -0.41045
 Alpha  occ. eigenvalues --   -0.40940  -0.40839  -0.40626  -0.40390  -0.40206
 Alpha  occ. eigenvalues --   -0.39850  -0.39744  -0.39543  -0.39265  -0.39039
 Alpha  occ. eigenvalues --   -0.38847  -0.38679  -0.38442  -0.38081  -0.37927
 Alpha  occ. eigenvalues --   -0.37699  -0.37642  -0.37535  -0.37343  -0.36985
 Alpha  occ. eigenvalues --   -0.36939  -0.36790  -0.36696  -0.36395  -0.36231
 Alpha  occ. eigenvalues --   -0.36155  -0.36001  -0.35838  -0.35730  -0.35606
 Alpha  occ. eigenvalues --   -0.35501  -0.35239  -0.35043  -0.34919  -0.34809
 Alpha  occ. eigenvalues --   -0.34597  -0.34410  -0.34360  -0.34272  -0.34224
 Alpha  occ. eigenvalues --   -0.33895  -0.33492  -0.33463  -0.33365  -0.33141
 Alpha  occ. eigenvalues --   -0.32922  -0.32606  -0.32463  -0.32403  -0.32141
 Alpha  occ. eigenvalues --   -0.31707  -0.31595  -0.31497  -0.31392  -0.31082
 Alpha  occ. eigenvalues --   -0.31023  -0.30849  -0.30749  -0.30601  -0.30518
 Alpha  occ. eigenvalues --   -0.30399  -0.30294  -0.29784  -0.29680  -0.29551
 Alpha  occ. eigenvalues --   -0.29467  -0.28960  -0.28796  -0.28735  -0.28567
 Alpha  occ. eigenvalues --   -0.28305  -0.28292  -0.28198  -0.28181  -0.28012
 Alpha  occ. eigenvalues --   -0.27659  -0.27317  -0.26737  -0.26311  -0.26248
 Alpha  occ. eigenvalues --   -0.26208  -0.26010  -0.25990  -0.25678  -0.24921
 Alpha  occ. eigenvalues --   -0.24905  -0.24419  -0.23932  -0.23657  -0.23437
 Alpha  occ. eigenvalues --   -0.23159  -0.22133  -0.21957  -0.20858  -0.20760
 Alpha  occ. eigenvalues --   -0.20376  -0.20277  -0.18948  -0.18875  -0.16957
 Alpha  occ. eigenvalues --   -0.15837
 Alpha virt. eigenvalues --   -0.11408  -0.06354  -0.05638  -0.04195  -0.02969
 Alpha virt. eigenvalues --   -0.01727  -0.01226  -0.01209  -0.00463   0.00008
 Alpha virt. eigenvalues --    0.00997   0.01762   0.02617   0.02843   0.02945

 Mulliken charges:
               1
     1  Mg   0.688555
     2  C    0.167785
     3  C   -0.068095
     4  C   -0.062444
     5  C   -0.071448
     6  N   -0.179981
     7  C   -0.124201
     8  C    0.029169
     9  C   -0.030109
    10  C    0.051207
    11  C    0.156356
    12  C    0.134639
    13  C    0.126381
    14  C    0.059387
    15  O   -0.207928
    16  O   -0.233239
    17  N   -0.248384
    18  C    0.104074
    19  C   -0.133121
    20  C   -0.007440
    21  C    0.065476
    22  C    0.150828
    23  C   -0.049588
    24  O   -0.159238
    25  C    0.161652
    26  N   -0.234720
    27  C    0.022098
    28  C    0.040640
    29  C    0.045011
    30  C    0.061521
    31  C    0.116915
    32  C    0.065354
    33  C    0.091029
    34  N   -0.269224
    35  C    0.081288
    36  C   -0.158027
    37  C    0.096116
    38  C   -0.012848
    39  C    0.166511
    40  C   -0.063162
    41  O   -0.092166
    42  C   -0.016481
    43  C    0.133454
    44  O   -0.192387
    45  O   -0.281022
    46  C    0.214106
    47  C    0.322668
    48  C   -0.098113
    49  C   -0.155849
    50  C    0.149892
    51  C    0.120200
    52  C    0.036989
    53  C    0.123360
    54  C   -0.092723
    55  C    0.133819
    56  C    0.126036
    57  C    0.033646
    58  C    0.094565
    59  C   -0.048081
    60  C    0.119622
    61  C    0.092878
    62  C    0.056600
    63  C    0.105944
    64  C   -0.082971
    65  C    0.097513
    66  C    0.116454
    67  H   -0.074743
    68  H   -0.036427
    69  H   -0.070853
    70  H   -0.005449
    71  H   -0.030628
    72  H   -0.011914
    73  H   -0.002383
    74  H   -0.003112
    75  H   -0.033839
    76  H    0.011509
    77  H    0.003970
    78  H   -0.009294
    79  H   -0.022835
    80  H   -0.016701
    81  H    0.012524
    82  H    0.019811
    83  H    0.011811
    84  H   -0.016704
    85  H   -0.014552
    86  H   -0.025536
    87  H   -0.009713
    88  H   -0.008275
    89  H   -0.011042
    90  H   -0.025694
    91  H   -0.032686
    92  H   -0.017379
    93  H    0.002537
    94  H   -0.013786
    95  H   -0.007726
    96  H    0.004589
    97  H   -0.002950
    98  H    0.012126
    99  H   -0.000326
   100  H    0.009660
   101  H    0.025494
   102  H    0.009889
   103  H    0.023024
   104  H   -0.047755
   105  H   -0.018911
   106  H    0.000970
   107  H   -0.007686
   108  H   -0.041996
   109  H   -0.031192
   110  H   -0.020147
   111  H   -0.024590
   112  H   -0.034880
   113  H   -0.040640
   114  H   -0.024556
   115  H   -0.014883
   116  H   -0.013900
   117  H   -0.014592
   118  H   -0.039853
   119  H   -0.023837
   120  H   -0.041140
   121  H   -0.039632
   122  H   -0.040282
   123  H   -0.040541
   124  H   -0.044812
   125  H   -0.008880
   126  H   -0.026634
   127  H   -0.032801
   128  H   -0.044697
   129  H   -0.039982
   130  H   -0.031035
   131  H   -0.023767
   132  H   -0.039461
   133  H   -0.024787
   134  H   -0.030012
   135  H   -0.017797
   136  H   -0.031606
   137  H   -0.019097
   138  H   -0.005576
   139  H   -0.023826
   140  H   -0.024338
 Sum of Mulliken charges =  -0.00000

 Dipole moment (field-independent basis, Debye):
    X=             -4.0195    Y=              3.1318    Z=              0.4518  Tot=              5.1155
 Quadrupole moment (field-independent basis, Debye-Ang):
   XX=           -380.9703   YY=           -422.3037   ZZ=           -405.7015
   XY=              2.8842   XZ=             14.4879   YZ=             -7.6718

 Normal termination of Gaussian 16 at Tue May  3 23:58:01 2022.
