 Gaussian 16, Revision A.03,
 Gaussian 16:  ES64L-G16RevA.03 25-Dec-2016

 -----------------------------------
 #p cam-b3lyp/Def2SVP td=(nstates=5)
 -----------------------------------

 --------------------------------------------------------
 step_1101_chromophore_16 TDDFT with cam-b3lyp functional
 --------------------------------------------------------
 Symbolic Z-matrix:
 Charge =  0 Multiplicity = 1

                         Standard orientation:
 ---------------------------------------------------------------------
 Center     Atomic      Atomic             Coordinates (Angstroms)
 Number     Number       Type             X           Y           Z
 ---------------------------------------------------------------------
      1         12           0        6.511276    0.395877    0.137830
      2          6           0        4.146024   -2.097484   -0.023248
      3          6           0        4.072093    2.606883   -1.084734
      4          6           0        8.751717    2.987444    0.061473
      5          6           0        8.885226   -1.769780    1.217752
      6          7           0        4.300292    0.272010   -0.387567
      7          6           0        3.571761   -0.866839   -0.361952
      8          6           0        2.067699   -0.603403   -0.758702
      9          6           0        2.182671    0.912216   -1.149880
     10          6           0        3.613090    1.324994   -0.871587
     11          6           0        1.644816    1.318586   -2.525645
     12          6           0        1.040448   -1.000149    0.340894
     13          6           0       -0.399750   -0.572856    0.099621
     14          6           0       -1.371891   -1.666794   -0.382708
     15          8           0       -1.016940   -2.699932   -0.968584
     16          8           0       -2.661222   -1.409491   -0.118176
     17          7           0        6.474862    2.479560   -0.408008
     18          6           0        5.344061    3.196348   -0.818359
     19          6           0        5.752466    4.530742   -1.173365
     20          6           0        7.092546    4.656380   -0.751234
     21          6           0        7.494467    3.330314   -0.346152
     22          6           0        4.729499    5.627905   -1.610395
     23          6           0        7.954624    5.993332   -0.599497
     24          8           0        9.088436    6.062184   -0.124931
     25          6           0        7.216773    7.218965   -0.942048
     26          7           0        8.548607    0.648036    0.628078
     27          6           0        9.277850    1.771249    0.483097
     28          6           0       10.738056    1.497703    0.849460
     29          6           0       10.739693   -0.019169    1.303644
     30          6           0        9.290952   -0.440925    1.062844
     31          6           0       11.879953    1.868386   -0.147248
     32          6           0       11.308503   -0.192537    2.768387
     33          6           0       10.387575    0.145246    3.865519
     34          7           0        6.611741   -1.589551    0.531257
     35          6           0        7.621897   -2.368809    0.984542
     36          6           0        7.185019   -3.723246    1.106205
     37          6           0        5.824113   -3.711912    0.769162
     38          6           0        5.520402   -2.359225    0.396256
     39          6           0        7.937382   -4.885145    1.578357
     40          6           0        4.595186   -4.485493    0.641257
     41          8           0        4.362402   -5.620892    0.942526
     42          6           0        3.523767   -3.423365    0.192483
     43          6           0        2.688697   -4.016660   -0.858139
     44          8           0        2.949042   -3.879959   -2.052843
     45          8           0        1.617198   -4.704215   -0.300264
     46          6           0        0.803827   -5.476483   -1.266582
     47          6           0       -3.643129   -2.395794   -0.451559
     48          6           0       -4.867131   -1.596834   -0.898874
     49          6           0       -5.976961   -2.127450   -1.419164
     50          6           0       -6.213024   -3.588107   -1.590819
     51          6           0       -7.115522   -1.284652   -2.031230
     52          6           0       -8.371639   -1.201331   -1.099568
     53          6           0       -8.995705    0.205886   -0.781910
     54          6           0      -10.200737    0.397363   -1.724052
     55          6           0       -9.715992    1.205835   -2.900817
     56          6           0      -11.401835    1.014432   -0.926921
     57          6           0      -12.720873    0.743776   -1.699025
     58          6           0      -13.833383   -0.237031   -1.054952
     59          6           0      -15.172979    0.516543   -0.770535
     60          6           0      -15.699175    1.173496   -2.051447
     61          6           0      -14.956004    1.500493    0.330539
     62          6           0      -15.249128    0.895823    1.715707
     63          6           0      -15.469238    1.986469    2.808237
     64          6           0      -15.052127    1.604318    4.270504
     65          6           0      -13.728165    2.293443    4.548304
     66          6           0      -16.118935    2.068758    5.309793
     67          1           0        3.378911    3.338846   -1.502946
     68          1           0        9.462348    3.746827   -0.270116
     69          1           0        9.589338   -2.490856    1.639965
     70          1           0        1.883702   -1.180478   -1.664587
     71          1           0        1.598265    1.458784   -0.409986
     72          1           0        2.542351    1.547693   -3.099637
     73          1           0        0.993550    2.189241   -2.454985
     74          1           0        1.218218    0.437215   -3.004245
     75          1           0        1.358856   -0.558361    1.284950
     76          1           0        1.063773   -2.087602    0.410888
     77          1           0       -0.486095    0.289130   -0.561631
     78          1           0       -0.827222   -0.223111    1.038093
     79          1           0        3.862508    5.157153   -2.074948
     80          1           0        5.130366    6.239765   -2.419168
     81          1           0        4.320387    6.303906   -0.859785
     82          1           0        6.412286    7.264558   -0.207757
     83          1           0        6.963789    7.111385   -1.996974
     84          1           0        7.785463    8.143640   -0.847998
     85          1           0       10.905353    2.200454    1.666191
     86          1           0       11.337199   -0.630066    0.627028
     87          1           0       12.566560    2.655983    0.163879
     88          1           0       11.363967    2.255897   -1.026800
     89          1           0       12.514454    1.023022   -0.412642
     90          1           0       12.259998    0.273239    3.027369
     91          1           0       11.605066   -1.241727    2.754626
     92          1           0        9.999408   -0.768221    4.314805
     93          1           0        9.486394    0.693180    3.587517
     94          1           0       10.951347    0.675171    4.632762
     95          1           0        8.672463   -5.064282    0.793453
     96          1           0        7.326668   -5.783097    1.670369
     97          1           0        8.521474   -4.788022    2.494260
     98          1           0        2.922740   -3.424579    1.101917
     99          1           0        0.362281   -6.362827   -0.812002
    100          1           0        1.476078   -5.820433   -2.052976
    101          1           0       -0.050430   -4.961087   -1.703959
    102          1           0       -3.827363   -2.989345    0.443405
    103          1           0       -3.423724   -3.035208   -1.307344
    104          1           0       -4.900203   -0.507047   -0.926849
    105          1           0       -5.419589   -4.221148   -1.191786
    106          1           0       -6.387735   -3.794729   -2.646814
    107          1           0       -7.099690   -3.855644   -1.016931
    108          1           0       -7.469285   -1.755611   -2.948285
    109          1           0       -6.796110   -0.332418   -2.452663
    110          1           0       -8.190649   -1.641989   -0.119247
    111          1           0       -9.022499   -1.899889   -1.625420
    112          1           0       -8.234522    0.965766   -0.955770
    113          1           0       -9.210516    0.237256    0.286454
    114          1           0      -10.625781   -0.573374   -1.978471
    115          1           0       -9.971056    2.264031   -2.858724
    116          1           0      -10.198889    0.734593   -3.756754
    117          1           0       -8.634861    1.175137   -3.033221
    118          1           0      -11.386278    2.103694   -0.957344
    119          1           0      -11.454589    0.653416    0.100592
    120          1           0      -12.461525    0.394188   -2.698255
    121          1           0      -13.180160    1.684550   -2.005213
    122          1           0      -13.409579   -0.673760   -0.150804
    123          1           0      -14.190341   -1.106420   -1.606193
    124          1           0      -15.871353   -0.303724   -0.603193
    125          1           0      -15.614803    2.260686   -2.047777
    126          1           0      -16.714429    0.811394   -2.215648
    127          1           0      -15.266251    0.835943   -2.992497
    128          1           0      -15.448477    2.472106    0.315283
    129          1           0      -13.929077    1.865864    0.323486
    130          1           0      -14.326712    0.348720    1.914935
    131          1           0      -16.123582    0.259094    1.582716
    132          1           0      -16.559075    2.019491    2.806385
    133          1           0      -15.077608    2.950352    2.485991
    134          1           0      -14.878480    0.531011    4.351732
    135          1           0      -13.036219    1.599639    5.025273
    136          1           0      -13.793208    3.118020    5.258610
    137          1           0      -13.258428    2.811973    3.712617
    138          1           0      -16.654699    1.207488    5.710093
    139          1           0      -16.841370    2.766799    4.888846
    140          1           0      -15.635450    2.705164    6.051617
 ---------------------------------------------------------------------

 SCF Done:  E(RCAM-B3LYP) =  -3007.19070041     A.U. after   18 cycles

 Excitation energies and oscillator strengths:

 Excited State   1:      Singlet-A      1.7621 eV  703.63 nm  f=0.3935  <S**2>=0.000
     245 -> 248       -0.18199
     246 -> 247        0.68503
     245 <- 248       -0.10724
 This state for optimization and/or second-order correction.
 Total Energy, E(TD-HF/TD-DFT) =  -3007.12594534
 Copying the excited state density for this state as the 1-particle RhoCI density.

 Excited State   2:      Singlet-A      2.2134 eV  560.15 nm  f=0.1461  <S**2>=0.000
     245 -> 247        0.65280
     246 -> 248        0.26046

 Excited State   3:      Singlet-A      3.4485 eV  359.53 nm  f=0.0036  <S**2>=0.000
     240 -> 247        0.12306
     241 -> 247       -0.15643
     242 -> 247       -0.36489
     244 -> 247        0.54851

 Excited State   4:      Singlet-A      3.5969 eV  344.70 nm  f=0.1685  <S**2>=0.000
     239 -> 247       -0.12808
     241 -> 247       -0.27601
     242 -> 247       -0.26121
     244 -> 247       -0.32165
     245 -> 247       -0.12464
     246 -> 248        0.44168

 Excited State   5:      Singlet-A      3.6541 eV  339.30 nm  f=0.0040  <S**2>=0.000
     241 -> 247        0.45392
     241 -> 249       -0.21084
     241 -> 250        0.16748
     242 -> 247       -0.36368
     242 -> 249        0.11256
     244 -> 247       -0.15221

 The electronic state is 1-A.
 Alpha  occ. eigenvalues --  -46.88492 -19.25959 -19.24021 -19.19715 -19.19634
 Alpha  occ. eigenvalues --  -19.18784 -19.18668 -14.41989 -14.41734 -14.39155
 Alpha  occ. eigenvalues --  -14.38872 -10.39969 -10.38180 -10.35973 -10.34638
 Alpha  occ. eigenvalues --  -10.32712 -10.30869 -10.30767 -10.30742 -10.30549
 Alpha  occ. eigenvalues --  -10.30250 -10.29656 -10.29201 -10.28896 -10.28691
 Alpha  occ. eigenvalues --  -10.28575 -10.28255 -10.27881 -10.27711 -10.27549
 Alpha  occ. eigenvalues --  -10.27479 -10.27373 -10.27342 -10.27208 -10.27163
 Alpha  occ. eigenvalues --  -10.27123 -10.26940 -10.26895 -10.26688 -10.26648
 Alpha  occ. eigenvalues --  -10.26184 -10.26009 -10.25949 -10.25850 -10.25755
 Alpha  occ. eigenvalues --  -10.25718 -10.25550 -10.25544 -10.25464 -10.25404
 Alpha  occ. eigenvalues --  -10.25297 -10.25294 -10.25187 -10.25114 -10.24989
 Alpha  occ. eigenvalues --  -10.24969 -10.24928 -10.24813 -10.24585 -10.24500
 Alpha  occ. eigenvalues --  -10.24473 -10.24428 -10.24317 -10.24110 -10.24014
 Alpha  occ. eigenvalues --  -10.23931  -3.16972  -1.91898  -1.91393  -1.91300
 Alpha  occ. eigenvalues --   -1.18030  -1.14035  -1.10814  -1.10043  -1.07615
 Alpha  occ. eigenvalues --   -1.06231  -1.04397  -1.03637  -1.03505  -1.02411
 Alpha  occ. eigenvalues --   -0.92279  -0.90707  -0.90069  -0.89587  -0.89011
 Alpha  occ. eigenvalues --   -0.88952  -0.88046  -0.87617  -0.87403  -0.86886
 Alpha  occ. eigenvalues --   -0.86562  -0.85816  -0.84381  -0.83457  -0.83396
 Alpha  occ. eigenvalues --   -0.82573  -0.82446  -0.81543  -0.80830  -0.80029
 Alpha  occ. eigenvalues --   -0.79720  -0.78340  -0.78027  -0.77080  -0.76010
 Alpha  occ. eigenvalues --   -0.75619  -0.75209  -0.74985  -0.74829  -0.74414
 Alpha  occ. eigenvalues --   -0.73962  -0.72745  -0.71849  -0.70701  -0.69333
 Alpha  occ. eigenvalues --   -0.68924  -0.68333  -0.66556  -0.66377  -0.65864
 Alpha  occ. eigenvalues --   -0.65405  -0.64911  -0.64419  -0.64198  -0.63993
 Alpha  occ. eigenvalues --   -0.63929  -0.63447  -0.61825  -0.60939  -0.60501
 Alpha  occ. eigenvalues --   -0.59677  -0.59370  -0.59320  -0.58592  -0.57735
 Alpha  occ. eigenvalues --   -0.57324  -0.56858  -0.56381  -0.56039  -0.55345
 Alpha  occ. eigenvalues --   -0.55053  -0.54831  -0.54664  -0.54304  -0.54038
 Alpha  occ. eigenvalues --   -0.53873  -0.53560  -0.53292  -0.53151  -0.52835
 Alpha  occ. eigenvalues --   -0.52625  -0.52358  -0.52210  -0.51987  -0.51657
 Alpha  occ. eigenvalues --   -0.51486  -0.51174  -0.50776  -0.50707  -0.50472
 Alpha  occ. eigenvalues --   -0.50317  -0.50163  -0.50066  -0.49775  -0.49619
 Alpha  occ. eigenvalues --   -0.49275  -0.49089  -0.48992  -0.48803  -0.48522
 Alpha  occ. eigenvalues --   -0.48450  -0.48276  -0.48267  -0.48044  -0.47766
 Alpha  occ. eigenvalues --   -0.47585  -0.47314  -0.47104  -0.46856  -0.46738
 Alpha  occ. eigenvalues --   -0.46424  -0.46280  -0.46137  -0.46091  -0.45948
 Alpha  occ. eigenvalues --   -0.45724  -0.45301  -0.45195  -0.45082  -0.44883
 Alpha  occ. eigenvalues --   -0.44661  -0.44305  -0.44105  -0.43924  -0.43658
 Alpha  occ. eigenvalues --   -0.43344  -0.43304  -0.43112  -0.42936  -0.42762
 Alpha  occ. eigenvalues --   -0.42600  -0.42382  -0.42321  -0.42277  -0.41848
 Alpha  occ. eigenvalues --   -0.41750  -0.41707  -0.41032  -0.40918  -0.40863
 Alpha  occ. eigenvalues --   -0.40628  -0.40422  -0.40061  -0.39850  -0.39812
 Alpha  occ. eigenvalues --   -0.39621  -0.39292  -0.39274  -0.39128  -0.39013
 Alpha  occ. eigenvalues --   -0.38544  -0.38178  -0.37627  -0.37503  -0.37181
 Alpha  occ. eigenvalues --   -0.37088  -0.36909  -0.36716  -0.36663  -0.35690
 Alpha  occ. eigenvalues --   -0.35510  -0.35419  -0.34875  -0.34246  -0.34112
 Alpha  occ. eigenvalues --   -0.33765  -0.33393  -0.32656  -0.31676  -0.31084
 Alpha  occ. eigenvalues --   -0.30534  -0.30123  -0.29932  -0.29619  -0.23704
 Alpha  occ. eigenvalues --   -0.21234
 Alpha virt. eigenvalues --   -0.08574  -0.01147   0.00933   0.02891   0.03935
 Alpha virt. eigenvalues --    0.05027   0.05343   0.06090   0.06366   0.06766
 Alpha virt. eigenvalues --    0.08074   0.08815   0.09032   0.09084   0.09347

 Mulliken charges:
               1
     1  Mg   0.822515
     2  C    0.138968
     3  C   -0.085046
     4  C   -0.075317
     5  C   -0.071826
     6  N   -0.253506
     7  C   -0.077612
     8  C   -0.010468
     9  C   -0.085618
    10  C    0.074204
    11  C    0.088552
    12  C    0.081547
    13  C    0.051932
    14  C    0.146681
    15  O   -0.252767
    16  O   -0.298935
    17  N   -0.335582
    18  C    0.118050
    19  C   -0.139623
    20  C   -0.069556
    21  C    0.091661
    22  C    0.094144
    23  C    0.036354
    24  O   -0.197147
    25  C    0.069852
    26  N   -0.310526
    27  C    0.047208
    28  C   -0.016284
    29  C   -0.007704
    30  C    0.070912
    31  C    0.058856
    32  C    0.015187
    33  C    0.023603
    34  N   -0.360582
    35  C    0.083214
    36  C   -0.154557
    37  C    0.014725
    38  C    0.020937
    39  C    0.108502
    40  C    0.041634
    41  O   -0.132597
    42  C   -0.097439
    43  C    0.215920
    44  O   -0.229164
    45  O   -0.344106
    46  C    0.178193
    47  C    0.290857
    48  C   -0.118293
    49  C   -0.181015
    50  C    0.085805
    51  C    0.063203
    52  C   -0.014779
    53  C    0.065375
    54  C   -0.147932
    55  C    0.074487
    56  C    0.077237
    57  C   -0.026701
    58  C    0.051306
    59  C   -0.110787
    60  C    0.054882
    61  C    0.036939
    62  C    0.013039
    63  C    0.048747
    64  C   -0.145404
    65  C    0.038180
    66  C    0.056097
    67  H   -0.039328
    68  H    0.000005
    69  H   -0.035084
    70  H    0.029213
    71  H    0.004219
    72  H    0.015606
    73  H    0.021490
    74  H    0.023554
    75  H   -0.000341
    76  H    0.039107
    77  H    0.034078
    78  H    0.026701
    79  H    0.006092
    80  H    0.011837
    81  H    0.039847
    82  H    0.046658
    83  H    0.037906
    84  H    0.021309
    85  H    0.019909
    86  H    0.009850
    87  H    0.015760
    88  H    0.015360
    89  H    0.014031
    90  H    0.003127
    91  H   -0.004608
    92  H    0.007698
    93  H    0.024281
    94  H    0.010580
    95  H    0.017405
    96  H    0.032619
    97  H    0.021390
    98  H    0.054573
    99  H    0.022979
   100  H    0.034668
   101  H    0.046317
   102  H    0.036240
   103  H    0.052498
   104  H   -0.011718
   105  H    0.006054
   106  H    0.025511
   107  H    0.017128
   108  H   -0.010501
   109  H   -0.003079
   110  H    0.008296
   111  H    0.002352
   112  H   -0.006095
   113  H   -0.008900
   114  H    0.006404
   115  H    0.010258
   116  H    0.009369
   117  H    0.007305
   118  H   -0.011223
   119  H    0.002580
   120  H   -0.012589
   121  H   -0.009725
   122  H   -0.012655
   123  H   -0.010647
   124  H   -0.010241
   125  H    0.014790
   126  H   -0.000226
   127  H   -0.006336
   128  H   -0.014317
   129  H   -0.013429
   130  H   -0.006855
   131  H    0.002959
   132  H   -0.009391
   133  H    0.002196
   134  H    0.002954
   135  H    0.006716
   136  H   -0.007092
   137  H    0.004455
   138  H    0.018158
   139  H    0.001097
   140  H    0.000257
 Sum of Mulliken charges =  -0.00000

 Dipole moment (field-independent basis, Debye):
    X=             -4.1295    Y=              4.2551    Z=              0.1702  Tot=              5.9319
 Quadrupole moment (field-independent basis, Debye-Ang):
   XX=           -380.3135   YY=           -417.0345   ZZ=           -405.7338
   XY=              9.0289   XZ=             13.7469   YZ=             -8.8519

 Normal termination of Gaussian 16 at Tue May  3 23:02:04 2022.
