 Gaussian 16, Revision A.03,
 Gaussian 16:  ES64L-G16RevA.03 25-Dec-2016

 ---------------------------------
 #p PBE1PBE/Def2SVP td=(nstates=5)
 ---------------------------------

 ------------------------------------------------------
 step_1101_chromophore_16 TDDFT with PBE1PBE functional
 ------------------------------------------------------
 Symbolic Z-matrix:
 Charge =  0 Multiplicity = 1

                         Standard orientation:
 ---------------------------------------------------------------------
 Center     Atomic      Atomic             Coordinates (Angstroms)
 Number     Number       Type             X           Y           Z
 ---------------------------------------------------------------------
      1         12           0        6.511276    0.395877    0.137830
      2          6           0        4.146024   -2.097484   -0.023248
      3          6           0        4.072093    2.606883   -1.084734
      4          6           0        8.751717    2.987444    0.061473
      5          6           0        8.885226   -1.769780    1.217752
      6          7           0        4.300292    0.272010   -0.387567
      7          6           0        3.571761   -0.866839   -0.361952
      8          6           0        2.067699   -0.603403   -0.758702
      9          6           0        2.182671    0.912216   -1.149880
     10          6           0        3.613090    1.324994   -0.871587
     11          6           0        1.644816    1.318586   -2.525645
     12          6           0        1.040448   -1.000149    0.340894
     13          6           0       -0.399750   -0.572856    0.099621
     14          6           0       -1.371891   -1.666794   -0.382708
     15          8           0       -1.016940   -2.699932   -0.968584
     16          8           0       -2.661222   -1.409491   -0.118176
     17          7           0        6.474862    2.479560   -0.408008
     18          6           0        5.344061    3.196348   -0.818359
     19          6           0        5.752466    4.530742   -1.173365
     20          6           0        7.092546    4.656380   -0.751234
     21          6           0        7.494467    3.330314   -0.346152
     22          6           0        4.729499    5.627905   -1.610395
     23          6           0        7.954624    5.993332   -0.599497
     24          8           0        9.088436    6.062184   -0.124931
     25          6           0        7.216773    7.218965   -0.942048
     26          7           0        8.548607    0.648036    0.628078
     27          6           0        9.277850    1.771249    0.483097
     28          6           0       10.738056    1.497703    0.849460
     29          6           0       10.739693   -0.019169    1.303644
     30          6           0        9.290952   -0.440925    1.062844
     31          6           0       11.879953    1.868386   -0.147248
     32          6           0       11.308503   -0.192537    2.768387
     33          6           0       10.387575    0.145246    3.865519
     34          7           0        6.611741   -1.589551    0.531257
     35          6           0        7.621897   -2.368809    0.984542
     36          6           0        7.185019   -3.723246    1.106205
     37          6           0        5.824113   -3.711912    0.769162
     38          6           0        5.520402   -2.359225    0.396256
     39          6           0        7.937382   -4.885145    1.578357
     40          6           0        4.595186   -4.485493    0.641257
     41          8           0        4.362402   -5.620892    0.942526
     42          6           0        3.523767   -3.423365    0.192483
     43          6           0        2.688697   -4.016660   -0.858139
     44          8           0        2.949042   -3.879959   -2.052843
     45          8           0        1.617198   -4.704215   -0.300264
     46          6           0        0.803827   -5.476483   -1.266582
     47          6           0       -3.643129   -2.395794   -0.451559
     48          6           0       -4.867131   -1.596834   -0.898874
     49          6           0       -5.976961   -2.127450   -1.419164
     50          6           0       -6.213024   -3.588107   -1.590819
     51          6           0       -7.115522   -1.284652   -2.031230
     52          6           0       -8.371639   -1.201331   -1.099568
     53          6           0       -8.995705    0.205886   -0.781910
     54          6           0      -10.200737    0.397363   -1.724052
     55          6           0       -9.715992    1.205835   -2.900817
     56          6           0      -11.401835    1.014432   -0.926921
     57          6           0      -12.720873    0.743776   -1.699025
     58          6           0      -13.833383   -0.237031   -1.054952
     59          6           0      -15.172979    0.516543   -0.770535
     60          6           0      -15.699175    1.173496   -2.051447
     61          6           0      -14.956004    1.500493    0.330539
     62          6           0      -15.249128    0.895823    1.715707
     63          6           0      -15.469238    1.986469    2.808237
     64          6           0      -15.052127    1.604318    4.270504
     65          6           0      -13.728165    2.293443    4.548304
     66          6           0      -16.118935    2.068758    5.309793
     67          1           0        3.378911    3.338846   -1.502946
     68          1           0        9.462348    3.746827   -0.270116
     69          1           0        9.589338   -2.490856    1.639965
     70          1           0        1.883702   -1.180478   -1.664587
     71          1           0        1.598265    1.458784   -0.409986
     72          1           0        2.542351    1.547693   -3.099637
     73          1           0        0.993550    2.189241   -2.454985
     74          1           0        1.218218    0.437215   -3.004245
     75          1           0        1.358856   -0.558361    1.284950
     76          1           0        1.063773   -2.087602    0.410888
     77          1           0       -0.486095    0.289130   -0.561631
     78          1           0       -0.827222   -0.223111    1.038093
     79          1           0        3.862508    5.157153   -2.074948
     80          1           0        5.130366    6.239765   -2.419168
     81          1           0        4.320387    6.303906   -0.859785
     82          1           0        6.412286    7.264558   -0.207757
     83          1           0        6.963789    7.111385   -1.996974
     84          1           0        7.785463    8.143640   -0.847998
     85          1           0       10.905353    2.200454    1.666191
     86          1           0       11.337199   -0.630066    0.627028
     87          1           0       12.566560    2.655983    0.163879
     88          1           0       11.363967    2.255897   -1.026800
     89          1           0       12.514454    1.023022   -0.412642
     90          1           0       12.259998    0.273239    3.027369
     91          1           0       11.605066   -1.241727    2.754626
     92          1           0        9.999408   -0.768221    4.314805
     93          1           0        9.486394    0.693180    3.587517
     94          1           0       10.951347    0.675171    4.632762
     95          1           0        8.672463   -5.064282    0.793453
     96          1           0        7.326668   -5.783097    1.670369
     97          1           0        8.521474   -4.788022    2.494260
     98          1           0        2.922740   -3.424579    1.101917
     99          1           0        0.362281   -6.362827   -0.812002
    100          1           0        1.476078   -5.820433   -2.052976
    101          1           0       -0.050430   -4.961087   -1.703959
    102          1           0       -3.827363   -2.989345    0.443405
    103          1           0       -3.423724   -3.035208   -1.307344
    104          1           0       -4.900203   -0.507047   -0.926849
    105          1           0       -5.419589   -4.221148   -1.191786
    106          1           0       -6.387735   -3.794729   -2.646814
    107          1           0       -7.099690   -3.855644   -1.016931
    108          1           0       -7.469285   -1.755611   -2.948285
    109          1           0       -6.796110   -0.332418   -2.452663
    110          1           0       -8.190649   -1.641989   -0.119247
    111          1           0       -9.022499   -1.899889   -1.625420
    112          1           0       -8.234522    0.965766   -0.955770
    113          1           0       -9.210516    0.237256    0.286454
    114          1           0      -10.625781   -0.573374   -1.978471
    115          1           0       -9.971056    2.264031   -2.858724
    116          1           0      -10.198889    0.734593   -3.756754
    117          1           0       -8.634861    1.175137   -3.033221
    118          1           0      -11.386278    2.103694   -0.957344
    119          1           0      -11.454589    0.653416    0.100592
    120          1           0      -12.461525    0.394188   -2.698255
    121          1           0      -13.180160    1.684550   -2.005213
    122          1           0      -13.409579   -0.673760   -0.150804
    123          1           0      -14.190341   -1.106420   -1.606193
    124          1           0      -15.871353   -0.303724   -0.603193
    125          1           0      -15.614803    2.260686   -2.047777
    126          1           0      -16.714429    0.811394   -2.215648
    127          1           0      -15.266251    0.835943   -2.992497
    128          1           0      -15.448477    2.472106    0.315283
    129          1           0      -13.929077    1.865864    0.323486
    130          1           0      -14.326712    0.348720    1.914935
    131          1           0      -16.123582    0.259094    1.582716
    132          1           0      -16.559075    2.019491    2.806385
    133          1           0      -15.077608    2.950352    2.485991
    134          1           0      -14.878480    0.531011    4.351732
    135          1           0      -13.036219    1.599639    5.025273
    136          1           0      -13.793208    3.118020    5.258610
    137          1           0      -13.258428    2.811973    3.712617
    138          1           0      -16.654699    1.207488    5.710093
    139          1           0      -16.841370    2.766799    4.888846
    140          1           0      -15.635450    2.705164    6.051617
 ---------------------------------------------------------------------

 SCF Done:  E(RPBE1PBE) =  -3005.37848541     A.U. after   15 cycles

 Excitation energies and oscillator strengths:

 Excited State   1:      Singlet-A      1.9027 eV  651.63 nm  f=0.3783  <S**2>=0.000
     245 -> 248        0.17678
     246 -> 247        0.69085
     246 <- 247       -0.10349
 This state for optimization and/or second-order correction.
 Total Energy, E(TD-HF/TD-DFT) =  -3005.30856354
 Copying the excited state density for this state as the 1-particle RhoCI density.

 Excited State   2:      Singlet-A      2.2196 eV  558.60 nm  f=0.1397  <S**2>=0.000
     245 -> 247        0.66187
     246 -> 248       -0.23704

 Excited State   3:      Singlet-A      3.0663 eV  404.34 nm  f=0.0015  <S**2>=0.000
     242 -> 247        0.37629
     243 -> 247        0.56582

 Excited State   4:      Singlet-A      3.1322 eV  395.84 nm  f=0.0014  <S**2>=0.000
     241 -> 247        0.34990
     242 -> 247        0.46575
     243 -> 247       -0.36533

 Excited State   5:      Singlet-A      3.1705 eV  391.05 nm  f=0.0014  <S**2>=0.000
     240 -> 247        0.53543
     241 -> 247        0.31411
     242 -> 247       -0.22165
     243 -> 247        0.16269

 The electronic state is 1-A.
 Alpha  occ. eigenvalues --  -46.91884 -19.26638 -19.24734 -19.19996 -19.19677
 Alpha  occ. eigenvalues --  -19.19173 -19.18954 -14.41474 -14.41281 -14.38704
 Alpha  occ. eigenvalues --  -14.38616 -10.36995 -10.35235 -10.32946 -10.31944
 Alpha  occ. eigenvalues --  -10.30126 -10.28736 -10.28473 -10.28292 -10.28290
 Alpha  occ. eigenvalues --  -10.27693 -10.26933 -10.26671 -10.26602 -10.26508
 Alpha  occ. eigenvalues --  -10.26338 -10.25742 -10.25713 -10.25579 -10.25273
 Alpha  occ. eigenvalues --  -10.25090 -10.25077 -10.25002 -10.24938 -10.24842
 Alpha  occ. eigenvalues --  -10.24739 -10.24628 -10.24493 -10.24397 -10.24298
 Alpha  occ. eigenvalues --  -10.23528 -10.23424 -10.23416 -10.23386 -10.23329
 Alpha  occ. eigenvalues --  -10.23264 -10.23233 -10.23013 -10.23003 -10.22998
 Alpha  occ. eigenvalues --  -10.22983 -10.22890 -10.22782 -10.22684 -10.22585
 Alpha  occ. eigenvalues --  -10.22570 -10.22509 -10.22481 -10.22199 -10.22158
 Alpha  occ. eigenvalues --  -10.21998 -10.21840 -10.21716 -10.21543 -10.21519
 Alpha  occ. eigenvalues --  -10.21318  -3.13948  -1.86816  -1.86287  -1.86199
 Alpha  occ. eigenvalues --   -1.12876  -1.08830  -1.05747  -1.04601  -1.02455
 Alpha  occ. eigenvalues --   -1.01104  -0.99098  -0.98351  -0.98070  -0.97031
 Alpha  occ. eigenvalues --   -0.86734  -0.84836  -0.84169  -0.83767  -0.83238
 Alpha  occ. eigenvalues --   -0.83122  -0.82337  -0.81725  -0.81679  -0.81162
 Alpha  occ. eigenvalues --   -0.80899  -0.80068  -0.78602  -0.77783  -0.77638
 Alpha  occ. eigenvalues --   -0.76772  -0.76524  -0.75742  -0.75169  -0.74398
 Alpha  occ. eigenvalues --   -0.73908  -0.72573  -0.72279  -0.71433  -0.70182
 Alpha  occ. eigenvalues --   -0.69968  -0.69296  -0.69177  -0.69122  -0.68643
 Alpha  occ. eigenvalues --   -0.68193  -0.67269  -0.66243  -0.65025  -0.63672
 Alpha  occ. eigenvalues --   -0.63158  -0.62888  -0.60894  -0.60600  -0.60178
 Alpha  occ. eigenvalues --   -0.59892  -0.59316  -0.58957  -0.58735  -0.58427
 Alpha  occ. eigenvalues --   -0.58088  -0.57601  -0.56056  -0.55574  -0.54974
 Alpha  occ. eigenvalues --   -0.54117  -0.53957  -0.53790  -0.53215  -0.52286
 Alpha  occ. eigenvalues --   -0.51844  -0.51408  -0.50834  -0.50678  -0.49853
 Alpha  occ. eigenvalues --   -0.49587  -0.49347  -0.49202  -0.48796  -0.48543
 Alpha  occ. eigenvalues --   -0.48024  -0.47971  -0.47865  -0.47687  -0.47384
 Alpha  occ. eigenvalues --   -0.47225  -0.46893  -0.46775  -0.46452  -0.46305
 Alpha  occ. eigenvalues --   -0.46003  -0.45729  -0.45365  -0.45253  -0.44980
 Alpha  occ. eigenvalues --   -0.44842  -0.44680  -0.44595  -0.44359  -0.44194
 Alpha  occ. eigenvalues --   -0.43944  -0.43656  -0.43592  -0.43358  -0.43165
 Alpha  occ. eigenvalues --   -0.42971  -0.42861  -0.42803  -0.42645  -0.42371
 Alpha  occ. eigenvalues --   -0.42186  -0.41959  -0.41782  -0.41520  -0.41452
 Alpha  occ. eigenvalues --   -0.41106  -0.41014  -0.40907  -0.40730  -0.40635
 Alpha  occ. eigenvalues --   -0.40411  -0.40091  -0.39941  -0.39752  -0.39683
 Alpha  occ. eigenvalues --   -0.39468  -0.39120  -0.38883  -0.38619  -0.38373
 Alpha  occ. eigenvalues --   -0.38100  -0.38066  -0.37841  -0.37811  -0.37560
 Alpha  occ. eigenvalues --   -0.37291  -0.37150  -0.37061  -0.36996  -0.36746
 Alpha  occ. eigenvalues --   -0.36647  -0.36473  -0.35852  -0.35743  -0.35617
 Alpha  occ. eigenvalues --   -0.35505  -0.35251  -0.34986  -0.34685  -0.34537
 Alpha  occ. eigenvalues --   -0.34492  -0.34243  -0.34026  -0.33885  -0.33808
 Alpha  occ. eigenvalues --   -0.33280  -0.32985  -0.32646  -0.32320  -0.32146
 Alpha  occ. eigenvalues --   -0.32055  -0.31793  -0.31747  -0.31530  -0.30757
 Alpha  occ. eigenvalues --   -0.30378  -0.30308  -0.29839  -0.29357  -0.28997
 Alpha  occ. eigenvalues --   -0.28737  -0.28726  -0.27819  -0.26989  -0.25941
 Alpha  occ. eigenvalues --   -0.25818  -0.25525  -0.25335  -0.25204  -0.20650
 Alpha  occ. eigenvalues --   -0.18825
 Alpha virt. eigenvalues --   -0.11033  -0.04674  -0.03313  -0.01546   0.00399
 Alpha virt. eigenvalues --    0.01133   0.01432   0.01890   0.01991   0.02691
 Alpha virt. eigenvalues --    0.03908   0.04914   0.05539   0.05842   0.05875

 Mulliken charges:
               1
     1  Mg   0.972081
     2  C    0.121304
     3  C   -0.077701
     4  C   -0.058802
     5  C   -0.061013
     6  N   -0.363959
     7  C    0.000714
     8  C   -0.071037
     9  C   -0.158590
    10  C    0.107084
    11  C    0.024323
    12  C    0.020981
    13  C   -0.023005
    14  C    0.216080
    15  O   -0.286041
    16  O   -0.334014
    17  N   -0.449246
    18  C    0.142402
    19  C   -0.159456
    20  C   -0.114804
    21  C    0.117629
    22  C    0.031915
    23  C    0.085292
    24  O   -0.236099
    25  C   -0.008283
    26  N   -0.419402
    27  C    0.083017
    28  C   -0.084708
    29  C   -0.087008
    30  C    0.106525
    31  C   -0.000005
    32  C   -0.043850
    33  C   -0.049838
    34  N   -0.493451
    35  C    0.111360
    36  C   -0.182438
    37  C   -0.033379
    38  C    0.076240
    39  C    0.058189
    40  C    0.142596
    41  O   -0.179472
    42  C   -0.202876
    43  C    0.299509
    44  O   -0.264267
    45  O   -0.375972
    46  C    0.123944
    47  C    0.252385
    48  C   -0.126792
    49  C   -0.230187
    50  C    0.023689
    51  C    0.001574
    52  C   -0.071668
    53  C    0.007932
    54  C   -0.241022
    55  C    0.018440
    56  C    0.027410
    57  C   -0.089062
    58  C    0.001023
    59  C   -0.207604
    60  C   -0.001862
    61  C   -0.015196
    62  C   -0.047795
    63  C   -0.009415
    64  C   -0.240670
    65  C   -0.017075
    66  C   -0.003252
    67  H   -0.006409
    68  H    0.030526
    69  H   -0.002242
    70  H    0.067262
    71  H    0.043649
    72  H    0.044950
    73  H    0.047746
    74  H    0.050870
    75  H    0.033117
    76  H    0.077114
    77  H    0.066731
    78  H    0.058707
    79  H    0.032888
    80  H    0.039680
    81  H    0.065508
    82  H    0.073888
    83  H    0.064909
    84  H    0.048968
    85  H    0.057878
    86  H    0.047184
    87  H    0.042668
    88  H    0.043909
    89  H    0.040492
    90  H    0.035767
    91  H    0.027670
    92  H    0.035770
    93  H    0.053701
    94  H    0.038682
    95  H    0.047224
    96  H    0.060530
    97  H    0.048966
    98  H    0.092545
    99  H    0.045403
   100  H    0.055955
   101  H    0.069480
   102  H    0.062635
   103  H    0.077786
   104  H    0.018917
   105  H    0.033043
   106  H    0.052730
   107  H    0.045679
   108  H    0.022761
   109  H    0.027235
   110  H    0.040639
   111  H    0.033607
   112  H    0.027175
   113  H    0.023058
   114  H    0.045510
   115  H    0.037016
   116  H    0.036226
   117  H    0.035585
   118  H    0.021889
   119  H    0.032748
   120  H    0.020729
   121  H    0.022319
   122  H    0.020825
   123  H    0.021568
   124  H    0.026809
   125  H    0.040919
   126  H    0.028415
   127  H    0.021597
   128  H    0.017804
   129  H    0.024056
   130  H    0.027204
   131  H    0.035008
   132  H    0.025803
   133  H    0.032666
   134  H    0.039291
   135  H    0.034350
   136  H    0.019746
   137  H    0.031085
   138  H    0.045341
   139  H    0.027969
   140  H    0.027253
 Sum of Mulliken charges =  -0.00000

 Dipole moment (field-independent basis, Debye):
    X=             -4.0831    Y=              3.7466    Z=              0.3222  Tot=              5.5509
 Quadrupole moment (field-independent basis, Debye-Ang):
   XX=           -373.7373   YY=           -414.4980   ZZ=           -403.1548
   XY=              5.3768   XZ=             15.9813   YZ=             -9.0136

 Normal termination of Gaussian 16 at Tue May  3 23:17:21 2022.
