 Gaussian 16, Revision A.03,
 Gaussian 16:  ES64L-G16RevA.03 25-Dec-2016

 --------------------------------
 #p wB97XD/Def2SVP td=(nstates=5)
 --------------------------------

 -----------------------------------------------------
 step_1101_chromophore_16 TDDFT with wB97XD functional
 -----------------------------------------------------
 Symbolic Z-matrix:
 Charge =  0 Multiplicity = 1

                         Standard orientation:
 ---------------------------------------------------------------------
 Center     Atomic      Atomic             Coordinates (Angstroms)
 Number     Number       Type             X           Y           Z
 ---------------------------------------------------------------------
      1         12           0        6.511276    0.395877    0.137830
      2          6           0        4.146024   -2.097484   -0.023248
      3          6           0        4.072093    2.606883   -1.084734
      4          6           0        8.751717    2.987444    0.061473
      5          6           0        8.885226   -1.769780    1.217752
      6          7           0        4.300292    0.272010   -0.387567
      7          6           0        3.571761   -0.866839   -0.361952
      8          6           0        2.067699   -0.603403   -0.758702
      9          6           0        2.182671    0.912216   -1.149880
     10          6           0        3.613090    1.324994   -0.871587
     11          6           0        1.644816    1.318586   -2.525645
     12          6           0        1.040448   -1.000149    0.340894
     13          6           0       -0.399750   -0.572856    0.099621
     14          6           0       -1.371891   -1.666794   -0.382708
     15          8           0       -1.016940   -2.699932   -0.968584
     16          8           0       -2.661222   -1.409491   -0.118176
     17          7           0        6.474862    2.479560   -0.408008
     18          6           0        5.344061    3.196348   -0.818359
     19          6           0        5.752466    4.530742   -1.173365
     20          6           0        7.092546    4.656380   -0.751234
     21          6           0        7.494467    3.330314   -0.346152
     22          6           0        4.729499    5.627905   -1.610395
     23          6           0        7.954624    5.993332   -0.599497
     24          8           0        9.088436    6.062184   -0.124931
     25          6           0        7.216773    7.218965   -0.942048
     26          7           0        8.548607    0.648036    0.628078
     27          6           0        9.277850    1.771249    0.483097
     28          6           0       10.738056    1.497703    0.849460
     29          6           0       10.739693   -0.019169    1.303644
     30          6           0        9.290952   -0.440925    1.062844
     31          6           0       11.879953    1.868386   -0.147248
     32          6           0       11.308503   -0.192537    2.768387
     33          6           0       10.387575    0.145246    3.865519
     34          7           0        6.611741   -1.589551    0.531257
     35          6           0        7.621897   -2.368809    0.984542
     36          6           0        7.185019   -3.723246    1.106205
     37          6           0        5.824113   -3.711912    0.769162
     38          6           0        5.520402   -2.359225    0.396256
     39          6           0        7.937382   -4.885145    1.578357
     40          6           0        4.595186   -4.485493    0.641257
     41          8           0        4.362402   -5.620892    0.942526
     42          6           0        3.523767   -3.423365    0.192483
     43          6           0        2.688697   -4.016660   -0.858139
     44          8           0        2.949042   -3.879959   -2.052843
     45          8           0        1.617198   -4.704215   -0.300264
     46          6           0        0.803827   -5.476483   -1.266582
     47          6           0       -3.643129   -2.395794   -0.451559
     48          6           0       -4.867131   -1.596834   -0.898874
     49          6           0       -5.976961   -2.127450   -1.419164
     50          6           0       -6.213024   -3.588107   -1.590819
     51          6           0       -7.115522   -1.284652   -2.031230
     52          6           0       -8.371639   -1.201331   -1.099568
     53          6           0       -8.995705    0.205886   -0.781910
     54          6           0      -10.200737    0.397363   -1.724052
     55          6           0       -9.715992    1.205835   -2.900817
     56          6           0      -11.401835    1.014432   -0.926921
     57          6           0      -12.720873    0.743776   -1.699025
     58          6           0      -13.833383   -0.237031   -1.054952
     59          6           0      -15.172979    0.516543   -0.770535
     60          6           0      -15.699175    1.173496   -2.051447
     61          6           0      -14.956004    1.500493    0.330539
     62          6           0      -15.249128    0.895823    1.715707
     63          6           0      -15.469238    1.986469    2.808237
     64          6           0      -15.052127    1.604318    4.270504
     65          6           0      -13.728165    2.293443    4.548304
     66          6           0      -16.118935    2.068758    5.309793
     67          1           0        3.378911    3.338846   -1.502946
     68          1           0        9.462348    3.746827   -0.270116
     69          1           0        9.589338   -2.490856    1.639965
     70          1           0        1.883702   -1.180478   -1.664587
     71          1           0        1.598265    1.458784   -0.409986
     72          1           0        2.542351    1.547693   -3.099637
     73          1           0        0.993550    2.189241   -2.454985
     74          1           0        1.218218    0.437215   -3.004245
     75          1           0        1.358856   -0.558361    1.284950
     76          1           0        1.063773   -2.087602    0.410888
     77          1           0       -0.486095    0.289130   -0.561631
     78          1           0       -0.827222   -0.223111    1.038093
     79          1           0        3.862508    5.157153   -2.074948
     80          1           0        5.130366    6.239765   -2.419168
     81          1           0        4.320387    6.303906   -0.859785
     82          1           0        6.412286    7.264558   -0.207757
     83          1           0        6.963789    7.111385   -1.996974
     84          1           0        7.785463    8.143640   -0.847998
     85          1           0       10.905353    2.200454    1.666191
     86          1           0       11.337199   -0.630066    0.627028
     87          1           0       12.566560    2.655983    0.163879
     88          1           0       11.363967    2.255897   -1.026800
     89          1           0       12.514454    1.023022   -0.412642
     90          1           0       12.259998    0.273239    3.027369
     91          1           0       11.605066   -1.241727    2.754626
     92          1           0        9.999408   -0.768221    4.314805
     93          1           0        9.486394    0.693180    3.587517
     94          1           0       10.951347    0.675171    4.632762
     95          1           0        8.672463   -5.064282    0.793453
     96          1           0        7.326668   -5.783097    1.670369
     97          1           0        8.521474   -4.788022    2.494260
     98          1           0        2.922740   -3.424579    1.101917
     99          1           0        0.362281   -6.362827   -0.812002
    100          1           0        1.476078   -5.820433   -2.052976
    101          1           0       -0.050430   -4.961087   -1.703959
    102          1           0       -3.827363   -2.989345    0.443405
    103          1           0       -3.423724   -3.035208   -1.307344
    104          1           0       -4.900203   -0.507047   -0.926849
    105          1           0       -5.419589   -4.221148   -1.191786
    106          1           0       -6.387735   -3.794729   -2.646814
    107          1           0       -7.099690   -3.855644   -1.016931
    108          1           0       -7.469285   -1.755611   -2.948285
    109          1           0       -6.796110   -0.332418   -2.452663
    110          1           0       -8.190649   -1.641989   -0.119247
    111          1           0       -9.022499   -1.899889   -1.625420
    112          1           0       -8.234522    0.965766   -0.955770
    113          1           0       -9.210516    0.237256    0.286454
    114          1           0      -10.625781   -0.573374   -1.978471
    115          1           0       -9.971056    2.264031   -2.858724
    116          1           0      -10.198889    0.734593   -3.756754
    117          1           0       -8.634861    1.175137   -3.033221
    118          1           0      -11.386278    2.103694   -0.957344
    119          1           0      -11.454589    0.653416    0.100592
    120          1           0      -12.461525    0.394188   -2.698255
    121          1           0      -13.180160    1.684550   -2.005213
    122          1           0      -13.409579   -0.673760   -0.150804
    123          1           0      -14.190341   -1.106420   -1.606193
    124          1           0      -15.871353   -0.303724   -0.603193
    125          1           0      -15.614803    2.260686   -2.047777
    126          1           0      -16.714429    0.811394   -2.215648
    127          1           0      -15.266251    0.835943   -2.992497
    128          1           0      -15.448477    2.472106    0.315283
    129          1           0      -13.929077    1.865864    0.323486
    130          1           0      -14.326712    0.348720    1.914935
    131          1           0      -16.123582    0.259094    1.582716
    132          1           0      -16.559075    2.019491    2.806385
    133          1           0      -15.077608    2.950352    2.485991
    134          1           0      -14.878480    0.531011    4.351732
    135          1           0      -13.036219    1.599639    5.025273
    136          1           0      -13.793208    3.118020    5.258610
    137          1           0      -13.258428    2.811973    3.712617
    138          1           0      -16.654699    1.207488    5.710093
    139          1           0      -16.841370    2.766799    4.888846
    140          1           0      -15.635450    2.705164    6.051617
 ---------------------------------------------------------------------

 SCF Done:  E(RwB97XD) =  -3007.88699213     A.U. after   19 cycles

 Excitation energies and oscillator strengths:

 Excited State   1:      Singlet-A      1.7117 eV  724.35 nm  f=0.3925  <S**2>=0.000
     245 -> 248       -0.18629
     246 -> 247        0.68308
     245 <- 248       -0.11566
 This state for optimization and/or second-order correction.
 Total Energy, E(TD-HF/TD-DFT) =  -3007.82408946
 Copying the excited state density for this state as the 1-particle RhoCI density.

 Excited State   2:      Singlet-A      2.1587 eV  574.34 nm  f=0.1423  <S**2>=0.000
     245 -> 247        0.65052
     246 -> 248        0.26327

 Excited State   3:      Singlet-A      3.4650 eV  357.82 nm  f=0.0067  <S**2>=0.000
     239 -> 247       -0.11878
     240 -> 247        0.14646
     241 -> 247       -0.31411
     242 -> 247        0.31948
     244 -> 247        0.48485

 Excited State   4:      Singlet-A      3.6187 eV  342.62 nm  f=0.2367  <S**2>=0.000
     239 -> 247       -0.13353
     241 -> 247       -0.24949
     242 -> 247        0.11584
     244 -> 247       -0.36461
     245 -> 247       -0.14698
     246 -> 248        0.47978

 Excited State   5:      Singlet-A      3.6827 eV  336.67 nm  f=0.0239  <S**2>=0.000
     239 -> 247        0.15216
     239 -> 249        0.14566
     239 -> 250        0.11153
     240 -> 247        0.51810
     240 -> 249        0.27467
     240 -> 250        0.15401
     241 -> 247       -0.10099
     242 -> 247       -0.10164

 The electronic state is 1-A.
 Alpha  occ. eigenvalues --  -46.94823 -19.31200 -19.29228 -19.24722 -19.24637
 Alpha  occ. eigenvalues --  -19.23775 -19.23595 -14.46575 -14.46336 -14.43795
 Alpha  occ. eigenvalues --  -14.43430 -10.43759 -10.42014 -10.40003 -10.38611
 Alpha  occ. eigenvalues --  -10.36610 -10.34881 -10.34825 -10.34797 -10.34538
 Alpha  occ. eigenvalues --  -10.34389 -10.33389 -10.33262 -10.33127 -10.32634
 Alpha  occ. eigenvalues --  -10.32550 -10.32169 -10.31949 -10.31829 -10.31655
 Alpha  occ. eigenvalues --  -10.31568 -10.31417 -10.31386 -10.31253 -10.31209
 Alpha  occ. eigenvalues --  -10.31106 -10.31020 -10.30914 -10.30699 -10.30637
 Alpha  occ. eigenvalues --  -10.30092 -10.29900 -10.29886 -10.29679 -10.29661
 Alpha  occ. eigenvalues --  -10.29660 -10.29538 -10.29407 -10.29393 -10.29346
 Alpha  occ. eigenvalues --  -10.29260 -10.29168 -10.29131 -10.29121 -10.28948
 Alpha  occ. eigenvalues --  -10.28907 -10.28875 -10.28645 -10.28515 -10.28508
 Alpha  occ. eigenvalues --  -10.28379 -10.28202 -10.28132 -10.27944 -10.27919
 Alpha  occ. eigenvalues --  -10.27733  -3.20746  -1.94362  -1.93837  -1.93740
 Alpha  occ. eigenvalues --   -1.20233  -1.16174  -1.13014  -1.12316  -1.09781
 Alpha  occ. eigenvalues --   -1.08409  -1.06401  -1.05681  -1.05530  -1.04448
 Alpha  occ. eigenvalues --   -0.94229  -0.92505  -0.91835  -0.91416  -0.90915
 Alpha  occ. eigenvalues --   -0.90779  -0.89931  -0.89382  -0.89325  -0.88845
 Alpha  occ. eigenvalues --   -0.88475  -0.87721  -0.86263  -0.85322  -0.85302
 Alpha  occ. eigenvalues --   -0.84430  -0.84403  -0.83404  -0.82754  -0.81988
 Alpha  occ. eigenvalues --   -0.81560  -0.80330  -0.79923  -0.79000  -0.77847
 Alpha  occ. eigenvalues --   -0.77552  -0.76989  -0.76804  -0.76744  -0.76282
 Alpha  occ. eigenvalues --   -0.75833  -0.74720  -0.73814  -0.72640  -0.71217
 Alpha  occ. eigenvalues --   -0.70790  -0.70331  -0.68531  -0.68254  -0.67770
 Alpha  occ. eigenvalues --   -0.67375  -0.66905  -0.66364  -0.66176  -0.65934
 Alpha  occ. eigenvalues --   -0.65753  -0.65257  -0.63668  -0.62944  -0.62538
 Alpha  occ. eigenvalues --   -0.61592  -0.61363  -0.61241  -0.60544  -0.59690
 Alpha  occ. eigenvalues --   -0.59258  -0.58851  -0.58283  -0.57999  -0.57262
 Alpha  occ. eigenvalues --   -0.57082  -0.56740  -0.56597  -0.56184  -0.55951
 Alpha  occ. eigenvalues --   -0.55832  -0.55403  -0.55160  -0.55071  -0.54738
 Alpha  occ. eigenvalues --   -0.54545  -0.54293  -0.54084  -0.53842  -0.53585
 Alpha  occ. eigenvalues --   -0.53396  -0.53072  -0.52672  -0.52615  -0.52445
 Alpha  occ. eigenvalues --   -0.52302  -0.52065  -0.51984  -0.51674  -0.51526
 Alpha  occ. eigenvalues --   -0.51232  -0.51000  -0.50900  -0.50664  -0.50452
 Alpha  occ. eigenvalues --   -0.50379  -0.50212  -0.50149  -0.49944  -0.49702
 Alpha  occ. eigenvalues --   -0.49455  -0.49245  -0.49041  -0.48742  -0.48655
 Alpha  occ. eigenvalues --   -0.48337  -0.48192  -0.48040  -0.47955  -0.47815
 Alpha  occ. eigenvalues --   -0.47622  -0.47198  -0.47093  -0.46952  -0.46804
 Alpha  occ. eigenvalues --   -0.46583  -0.46240  -0.46018  -0.45781  -0.45541
 Alpha  occ. eigenvalues --   -0.45270  -0.45249  -0.44971  -0.44826  -0.44704
 Alpha  occ. eigenvalues --   -0.44564  -0.44388  -0.44211  -0.44190  -0.43803
 Alpha  occ. eigenvalues --   -0.43651  -0.43588  -0.42921  -0.42787  -0.42732
 Alpha  occ. eigenvalues --   -0.42522  -0.42341  -0.41973  -0.41713  -0.41652
 Alpha  occ. eigenvalues --   -0.41543  -0.41182  -0.41119  -0.40967  -0.40888
 Alpha  occ. eigenvalues --   -0.40371  -0.40032  -0.39551  -0.39345  -0.39103
 Alpha  occ. eigenvalues --   -0.39081  -0.38849  -0.38774  -0.38506  -0.37634
 Alpha  occ. eigenvalues --   -0.37393  -0.37345  -0.36718  -0.36171  -0.36075
 Alpha  occ. eigenvalues --   -0.35614  -0.35479  -0.34737  -0.33807  -0.33169
 Alpha  occ. eigenvalues --   -0.32588  -0.32247  -0.31949  -0.31758  -0.25634
 Alpha  occ. eigenvalues --   -0.23052
 Alpha virt. eigenvalues --   -0.06933   0.00765   0.02966   0.04995   0.06974
 Alpha virt. eigenvalues --    0.07311   0.08228   0.08297   0.08638   0.09165
 Alpha virt. eigenvalues --    0.10572   0.11796   0.12322   0.12605   0.12645

 Mulliken charges:
               1
     1  Mg   0.961767
     2  C    0.121219
     3  C   -0.096131
     4  C   -0.079373
     5  C   -0.076328
     6  N   -0.326312
     7  C   -0.035439
     8  C   -0.048779
     9  C   -0.136715
    10  C    0.100235
    11  C    0.036714
    12  C    0.042451
    13  C   -0.009836
    14  C    0.206446
    15  O   -0.283483
    16  O   -0.331940
    17  N   -0.417390
    18  C    0.136604
    19  C   -0.153805
    20  C   -0.108626
    21  C    0.115301
    22  C    0.046366
    23  C    0.082815
    24  O   -0.228258
    25  C    0.006559
    26  N   -0.385144
    27  C    0.071457
    28  C   -0.066038
    29  C   -0.055891
    30  C    0.089596
    31  C    0.011743
    32  C   -0.030770
    33  C   -0.033746
    34  N   -0.453502
    35  C    0.096826
    36  C   -0.172101
    37  C   -0.031575
    38  C    0.056213
    39  C    0.063345
    40  C    0.122353
    41  O   -0.171011
    42  C   -0.162173
    43  C    0.276272
    44  O   -0.258208
    45  O   -0.374177
    46  C    0.140519
    47  C    0.263313
    48  C   -0.137831
    49  C   -0.211943
    50  C    0.035859
    51  C    0.018697
    52  C   -0.057604
    53  C    0.024107
    54  C   -0.203345
    55  C    0.027604
    56  C    0.038687
    57  C   -0.071643
    58  C    0.015010
    59  C   -0.170850
    60  C    0.004238
    61  C   -0.000192
    62  C   -0.029574
    63  C    0.007409
    64  C   -0.212960
    65  C   -0.006883
    66  C    0.009148
    67  H   -0.015793
    68  H    0.024260
    69  H   -0.008195
    70  H    0.056433
    71  H    0.030902
    72  H    0.037357
    73  H    0.043580
    74  H    0.046314
    75  H    0.026792
    76  H    0.058383
    77  H    0.058893
    78  H    0.054223
    79  H    0.029642
    80  H    0.034319
    81  H    0.062249
    82  H    0.067157
    83  H    0.057847
    84  H    0.048953
    85  H    0.046884
    86  H    0.036878
    87  H    0.038168
    88  H    0.035952
    89  H    0.035577
    90  H    0.028205
    91  H    0.019649
    92  H    0.030089
    93  H    0.044114
    94  H    0.033831
    95  H    0.040268
    96  H    0.057351
    97  H    0.043483
    98  H    0.084117
    99  H    0.041507
   100  H    0.051259
   101  H    0.064897
   102  H    0.058880
   103  H    0.072283
   104  H    0.016374
   105  H    0.027925
   106  H    0.047277
   107  H    0.039534
   108  H    0.014596
   109  H    0.018577
   110  H    0.032204
   111  H    0.024350
   112  H    0.016976
   113  H    0.016538
   114  H    0.028825
   115  H    0.032071
   116  H    0.030684
   117  H    0.027099
   118  H    0.012903
   119  H    0.023882
   120  H    0.009671
   121  H    0.012104
   122  H    0.009925
   123  H    0.014602
   124  H    0.016567
   125  H    0.035515
   126  H    0.023522
   127  H    0.015036
   128  H    0.008096
   129  H    0.009248
   130  H    0.014734
   131  H    0.026660
   132  H    0.015422
   133  H    0.023508
   134  H    0.030487
   135  H    0.029216
   136  H    0.012657
   137  H    0.024486
   138  H    0.040653
   139  H    0.021580
   140  H    0.020490
 Sum of Mulliken charges =  -0.00000

 Dipole moment (field-independent basis, Debye):
    X=             -4.1553    Y=              4.4466    Z=              0.1518  Tot=              6.0878
 Quadrupole moment (field-independent basis, Debye-Ang):
   XX=           -375.2235   YY=           -412.2049   ZZ=           -402.8191
   XY=             10.0432   XZ=             14.3987   YZ=             -9.3385

 Normal termination of Gaussian 16 at Tue May  3 23:46:28 2022.
