 Gaussian 16, Revision A.03,
 Gaussian 16:  ES64L-G16RevA.03 25-Dec-2016

 --------------------
 #p ZINDO=(nstates=5)
 --------------------

 ------------------------------
 step_1101_chromophore_16 ZINDO
 ------------------------------
 Symbolic Z-matrix:
 Charge =  0 Multiplicity = 1

                         Standard orientation:
 ---------------------------------------------------------------------
 Center     Atomic      Atomic             Coordinates (Angstroms)
 Number     Number       Type             X           Y           Z
 ---------------------------------------------------------------------
      1         12           0        6.511276    0.395877    0.137830
      2          6           0        4.146024   -2.097484   -0.023248
      3          6           0        4.072093    2.606883   -1.084734
      4          6           0        8.751717    2.987444    0.061473
      5          6           0        8.885226   -1.769780    1.217752
      6          7           0        4.300292    0.272010   -0.387567
      7          6           0        3.571761   -0.866839   -0.361952
      8          6           0        2.067699   -0.603403   -0.758702
      9          6           0        2.182671    0.912216   -1.149880
     10          6           0        3.613090    1.324994   -0.871587
     11          6           0        1.644816    1.318586   -2.525645
     12          6           0        1.040448   -1.000149    0.340894
     13          6           0       -0.399750   -0.572856    0.099621
     14          6           0       -1.371891   -1.666794   -0.382708
     15          8           0       -1.016940   -2.699932   -0.968584
     16          8           0       -2.661222   -1.409491   -0.118176
     17          7           0        6.474862    2.479560   -0.408008
     18          6           0        5.344061    3.196348   -0.818359
     19          6           0        5.752466    4.530742   -1.173365
     20          6           0        7.092546    4.656380   -0.751234
     21          6           0        7.494467    3.330314   -0.346152
     22          6           0        4.729499    5.627905   -1.610395
     23          6           0        7.954624    5.993332   -0.599497
     24          8           0        9.088436    6.062184   -0.124931
     25          6           0        7.216773    7.218965   -0.942048
     26          7           0        8.548607    0.648036    0.628078
     27          6           0        9.277850    1.771249    0.483097
     28          6           0       10.738056    1.497703    0.849460
     29          6           0       10.739693   -0.019169    1.303644
     30          6           0        9.290952   -0.440925    1.062844
     31          6           0       11.879953    1.868386   -0.147248
     32          6           0       11.308503   -0.192537    2.768387
     33          6           0       10.387575    0.145246    3.865519
     34          7           0        6.611741   -1.589551    0.531257
     35          6           0        7.621897   -2.368809    0.984542
     36          6           0        7.185019   -3.723246    1.106205
     37          6           0        5.824113   -3.711912    0.769162
     38          6           0        5.520402   -2.359225    0.396256
     39          6           0        7.937382   -4.885145    1.578357
     40          6           0        4.595186   -4.485493    0.641257
     41          8           0        4.362402   -5.620892    0.942526
     42          6           0        3.523767   -3.423365    0.192483
     43          6           0        2.688697   -4.016660   -0.858139
     44          8           0        2.949042   -3.879959   -2.052843
     45          8           0        1.617198   -4.704215   -0.300264
     46          6           0        0.803827   -5.476483   -1.266582
     47          6           0       -3.643129   -2.395794   -0.451559
     48          6           0       -4.867131   -1.596834   -0.898874
     49          6           0       -5.976961   -2.127450   -1.419164
     50          6           0       -6.213024   -3.588107   -1.590819
     51          6           0       -7.115522   -1.284652   -2.031230
     52          6           0       -8.371639   -1.201331   -1.099568
     53          6           0       -8.995705    0.205886   -0.781910
     54          6           0      -10.200737    0.397363   -1.724052
     55          6           0       -9.715992    1.205835   -2.900817
     56          6           0      -11.401835    1.014432   -0.926921
     57          6           0      -12.720873    0.743776   -1.699025
     58          6           0      -13.833383   -0.237031   -1.054952
     59          6           0      -15.172979    0.516543   -0.770535
     60          6           0      -15.699175    1.173496   -2.051447
     61          6           0      -14.956004    1.500493    0.330539
     62          6           0      -15.249128    0.895823    1.715707
     63          6           0      -15.469238    1.986469    2.808237
     64          6           0      -15.052127    1.604318    4.270504
     65          6           0      -13.728165    2.293443    4.548304
     66          6           0      -16.118935    2.068758    5.309793
     67          1           0        3.378911    3.338846   -1.502946
     68          1           0        9.462348    3.746827   -0.270116
     69          1           0        9.589338   -2.490856    1.639965
     70          1           0        1.883702   -1.180478   -1.664587
     71          1           0        1.598265    1.458784   -0.409986
     72          1           0        2.542351    1.547693   -3.099637
     73          1           0        0.993550    2.189241   -2.454985
     74          1           0        1.218218    0.437215   -3.004245
     75          1           0        1.358856   -0.558361    1.284950
     76          1           0        1.063773   -2.087602    0.410888
     77          1           0       -0.486095    0.289130   -0.561631
     78          1           0       -0.827222   -0.223111    1.038093
     79          1           0        3.862508    5.157153   -2.074948
     80          1           0        5.130366    6.239765   -2.419168
     81          1           0        4.320387    6.303906   -0.859785
     82          1           0        6.412286    7.264558   -0.207757
     83          1           0        6.963789    7.111385   -1.996974
     84          1           0        7.785463    8.143640   -0.847998
     85          1           0       10.905353    2.200454    1.666191
     86          1           0       11.337199   -0.630066    0.627028
     87          1           0       12.566560    2.655983    0.163879
     88          1           0       11.363967    2.255897   -1.026800
     89          1           0       12.514454    1.023022   -0.412642
     90          1           0       12.259998    0.273239    3.027369
     91          1           0       11.605066   -1.241727    2.754626
     92          1           0        9.999408   -0.768221    4.314805
     93          1           0        9.486394    0.693180    3.587517
     94          1           0       10.951347    0.675171    4.632762
     95          1           0        8.672463   -5.064282    0.793453
     96          1           0        7.326668   -5.783097    1.670369
     97          1           0        8.521474   -4.788022    2.494260
     98          1           0        2.922740   -3.424579    1.101917
     99          1           0        0.362281   -6.362827   -0.812002
    100          1           0        1.476078   -5.820433   -2.052976
    101          1           0       -0.050430   -4.961087   -1.703959
    102          1           0       -3.827363   -2.989345    0.443405
    103          1           0       -3.423724   -3.035208   -1.307344
    104          1           0       -4.900203   -0.507047   -0.926849
    105          1           0       -5.419589   -4.221148   -1.191786
    106          1           0       -6.387735   -3.794729   -2.646814
    107          1           0       -7.099690   -3.855644   -1.016931
    108          1           0       -7.469285   -1.755611   -2.948285
    109          1           0       -6.796110   -0.332418   -2.452663
    110          1           0       -8.190649   -1.641989   -0.119247
    111          1           0       -9.022499   -1.899889   -1.625420
    112          1           0       -8.234522    0.965766   -0.955770
    113          1           0       -9.210516    0.237256    0.286454
    114          1           0      -10.625781   -0.573374   -1.978471
    115          1           0       -9.971056    2.264031   -2.858724
    116          1           0      -10.198889    0.734593   -3.756754
    117          1           0       -8.634861    1.175137   -3.033221
    118          1           0      -11.386278    2.103694   -0.957344
    119          1           0      -11.454589    0.653416    0.100592
    120          1           0      -12.461525    0.394188   -2.698255
    121          1           0      -13.180160    1.684550   -2.005213
    122          1           0      -13.409579   -0.673760   -0.150804
    123          1           0      -14.190341   -1.106420   -1.606193
    124          1           0      -15.871353   -0.303724   -0.603193
    125          1           0      -15.614803    2.260686   -2.047777
    126          1           0      -16.714429    0.811394   -2.215648
    127          1           0      -15.266251    0.835943   -2.992497
    128          1           0      -15.448477    2.472106    0.315283
    129          1           0      -13.929077    1.865864    0.323486
    130          1           0      -14.326712    0.348720    1.914935
    131          1           0      -16.123582    0.259094    1.582716
    132          1           0      -16.559075    2.019491    2.806385
    133          1           0      -15.077608    2.950352    2.485991
    134          1           0      -14.878480    0.531011    4.351732
    135          1           0      -13.036219    1.599639    5.025273
    136          1           0      -13.793208    3.118020    5.258610
    137          1           0      -13.258428    2.811973    3.712617
    138          1           0      -16.654699    1.207488    5.710093
    139          1           0      -16.841370    2.766799    4.888846
    140          1           0      -15.635450    2.705164    6.051617
 ---------------------------------------------------------------------

 SCF Done:  E(RZINDO/S) =  -474.549706259     A.U. after   19 cycles

 Excitation energies and oscillator strengths:

 Excited State   1:      Singlet-A      1.2993 eV  954.23 nm  f=0.6118  <S**2>=0.000
     175 ->178         0.18636
     176 ->177         0.66575
 This state for optimization and/or second-order correction.
 Total Energy, E(CIS/TDA) =  -474.501957350
 Copying the excited state density for this state as the 1-particle RhoCI density.

 Excited State   2:      Singlet-A      1.9475 eV  636.62 nm  f=0.0855  <S**2>=0.000
     175 ->177         0.57405
     176 ->178        -0.38499

 Excited State   3:      Singlet-A      3.0496 eV  406.56 nm  f=0.0914  <S**2>=0.000
     167 ->177         0.10877
     167 ->179        -0.19095
     167 ->180         0.13947
     168 ->177         0.27500
     168 ->179        -0.37020
     168 ->180         0.25843
     168 ->185        -0.19339
     176 ->178         0.15923

 Excited State   4:      Singlet-A      3.1004 eV  399.90 nm  f=0.4877  <S**2>=0.000
     170 ->177         0.17728
     170 ->179         0.19639
     170 ->180         0.23598
     170 ->185         0.10188
     170 ->187         0.10377
     171 ->177         0.15326
     171 ->180         0.14663
     175 ->177         0.23287
     176 ->178         0.36065

 Excited State   5:      Singlet-A      3.1143 eV  398.12 nm  f=0.4984  <S**2>=0.000
     170 ->177        -0.22102
     170 ->179        -0.16592
     170 ->180        -0.22298
     170 ->185        -0.10196
     171 ->179        -0.12647
     171 ->180        -0.13241
     175 ->177         0.23614
     176 ->178         0.36427
     176 ->179        -0.15455
     176 ->180        -0.11305

 The electronic state is 1-A.
 Alpha  occ. eigenvalues --   -1.84251  -1.82018  -1.79891  -1.74794  -1.71602
 Alpha  occ. eigenvalues --   -1.70555  -1.66275  -1.61623  -1.58596  -1.58120
 Alpha  occ. eigenvalues --   -1.55506  -1.52940  -1.49959  -1.48874  -1.47182
 Alpha  occ. eigenvalues --   -1.43768  -1.42037  -1.40366  -1.39122  -1.38135
 Alpha  occ. eigenvalues --   -1.36523  -1.34236  -1.33831  -1.32425  -1.29591
 Alpha  occ. eigenvalues --   -1.25904  -1.25495  -1.22946  -1.20802  -1.18123
 Alpha  occ. eigenvalues --   -1.17224  -1.14936  -1.14887  -1.14706  -1.13613
 Alpha  occ. eigenvalues --   -1.12914  -1.11663  -1.10973  -1.05443  -1.04294
 Alpha  occ. eigenvalues --   -1.03106  -1.00924  -1.00176  -0.98184  -0.97801
 Alpha  occ. eigenvalues --   -0.96177  -0.94283  -0.93341  -0.92630  -0.91835
 Alpha  occ. eigenvalues --   -0.91310  -0.90139  -0.89445  -0.88152  -0.85925
 Alpha  occ. eigenvalues --   -0.85405  -0.84869  -0.83456  -0.81538  -0.80700
 Alpha  occ. eigenvalues --   -0.79647  -0.77795  -0.76989  -0.76711  -0.76108
 Alpha  occ. eigenvalues --   -0.75656  -0.75515  -0.74946  -0.74690  -0.73440
 Alpha  occ. eigenvalues --   -0.72941  -0.72307  -0.72249  -0.71573  -0.71276
 Alpha  occ. eigenvalues --   -0.70533  -0.69365  -0.69238  -0.68726  -0.68151
 Alpha  occ. eigenvalues --   -0.67801  -0.67481  -0.67095  -0.66251  -0.65310
 Alpha  occ. eigenvalues --   -0.64714  -0.64626  -0.64122  -0.63523  -0.63201
 Alpha  occ. eigenvalues --   -0.62784  -0.62687  -0.62030  -0.61915  -0.61743
 Alpha  occ. eigenvalues --   -0.61445  -0.60852  -0.60767  -0.60497  -0.60123
 Alpha  occ. eigenvalues --   -0.59991  -0.59646  -0.59102  -0.58681  -0.58550
 Alpha  occ. eigenvalues --   -0.57680  -0.57302  -0.57134  -0.56687  -0.56490
 Alpha  occ. eigenvalues --   -0.55979  -0.55636  -0.55407  -0.55280  -0.54910
 Alpha  occ. eigenvalues --   -0.54303  -0.53633  -0.52926  -0.52797  -0.52529
 Alpha  occ. eigenvalues --   -0.52113  -0.51798  -0.51702  -0.51285  -0.50973
 Alpha  occ. eigenvalues --   -0.50411  -0.50110  -0.49956  -0.49673  -0.49312
 Alpha  occ. eigenvalues --   -0.49026  -0.48774  -0.48697  -0.48660  -0.48472
 Alpha  occ. eigenvalues --   -0.48387  -0.48171  -0.47753  -0.47465  -0.47440
 Alpha  occ. eigenvalues --   -0.47060  -0.46955  -0.46792  -0.46688  -0.46232
 Alpha  occ. eigenvalues --   -0.46075  -0.45973  -0.45914  -0.45782  -0.45481
 Alpha  occ. eigenvalues --   -0.45201  -0.45006  -0.44737  -0.44651  -0.44170
 Alpha  occ. eigenvalues --   -0.43324  -0.42780  -0.42630  -0.41921  -0.41726
 Alpha  occ. eigenvalues --   -0.41606  -0.41102  -0.40713  -0.38881  -0.38716
 Alpha  occ. eigenvalues --   -0.37397  -0.36871  -0.35924  -0.34595  -0.34160
 Alpha  occ. eigenvalues --   -0.34142  -0.32437  -0.32277  -0.32041  -0.26518
 Alpha  occ. eigenvalues --   -0.21931
 Alpha virt. eigenvalues --   -0.08517  -0.01558  -0.00022   0.01717   0.01910
 Alpha virt. eigenvalues --    0.03246   0.03366   0.03465   0.04628   0.05144
 Alpha virt. eigenvalues --    0.06116   0.06449   0.07107   0.07880   0.08420

 Mulliken charges:
               1
     1  Mg   0.422054
     2  C   -0.035277
     3  C   -0.083632
     4  C   -0.072037
     5  C   -0.058067
     6  N   -0.278485
     7  C    0.105614
     8  C   -0.000010
     9  C    0.002477
    10  C    0.160320
    11  C   -0.053242
    12  C   -0.014630
    13  C    0.009280
    14  C    0.463860
    15  O   -0.533497
    16  O   -0.258267
    17  N   -0.335423
    18  C    0.115029
    19  C    0.003356
    20  C   -0.038712
    21  C    0.167230
    22  C   -0.049845
    23  C    0.332241
    24  O   -0.513545
    25  C   -0.027066
    26  N   -0.268766
    27  C    0.166810
    28  C    0.001624
    29  C    0.003299
    30  C    0.097408
    31  C   -0.053267
    32  C   -0.024793
    33  C   -0.047866
    34  N   -0.302213
    35  C    0.076422
    36  C    0.032507
    37  C   -0.071983
    38  C    0.087969
    39  C   -0.036413
    40  C    0.341941
    41  O   -0.512407
    42  C    0.063116
    43  C    0.491779
    44  O   -0.531402
    45  O   -0.261029
    46  C    0.071409
    47  C    0.116026
    48  C   -0.099674
    49  C   -0.007124
    50  C   -0.042403
    51  C   -0.026067
    52  C   -0.039794
    53  C   -0.035718
    54  C   -0.005954
    55  C   -0.048576
    56  C   -0.038069
    57  C   -0.046291
    58  C   -0.040321
    59  C   -0.000812
    60  C   -0.061282
    61  C   -0.030584
    62  C   -0.044011
    63  C   -0.040522
    64  C   -0.007291
    65  C   -0.057841
    66  C   -0.060023
    67  H    0.023758
    68  H    0.038081
    69  H    0.022632
    70  H    0.045702
    71  H    0.018507
    72  H    0.021677
    73  H    0.026667
    74  H    0.030484
    75  H    0.021324
    76  H    0.039721
    77  H    0.045236
    78  H    0.029345
    79  H    0.017452
    80  H    0.023282
    81  H    0.036752
    82  H    0.046787
    83  H    0.042895
    84  H    0.032184
    85  H    0.031885
    86  H    0.028341
    87  H    0.024125
    88  H    0.020432
    89  H    0.022631
    90  H    0.021462
    91  H    0.008708
    92  H    0.014283
    93  H    0.025217
    94  H    0.015740
    95  H    0.025106
    96  H    0.031382
    97  H    0.026790
    98  H    0.050741
    99  H    0.029276
   100  H    0.043992
   101  H    0.051195
   102  H    0.048881
   103  H    0.063716
   104  H    0.034450
   105  H    0.018879
   106  H    0.030970
   107  H    0.025015
   108  H    0.013279
   109  H    0.022057
   110  H    0.014379
   111  H    0.020577
   112  H    0.020485
   113  H    0.017156
   114  H    0.028347
   115  H    0.022678
   116  H    0.013878
   117  H    0.020480
   118  H    0.018239
   119  H    0.027571
   120  H    0.011071
   121  H    0.017353
   122  H    0.012685
   123  H    0.018957
   124  H    0.020491
   125  H    0.023077
   126  H    0.010890
   127  H    0.013150
   128  H    0.013597
   129  H    0.013214
   130  H    0.018416
   131  H    0.026968
   132  H    0.008321
   133  H    0.030747
   134  H    0.026400
   135  H    0.012355
   136  H    0.011298
   137  H    0.018175
   138  H    0.022560
   139  H    0.016860
   140  H    0.021041
 Sum of Mulliken charges =  -0.00000

 Dipole moment (field-independent basis, Debye):
    X=             -5.1136    Y=              7.8100    Z=              0.0122  Tot=              9.3351
 N-N= 4.156227697440D+03 E-N= 0.000000000000D+00  KE=-8.987442501068D+03
 Leave Link  601 at Tue May  3 23:58:07 2022, MaxMem=  6710886400 cpu:               0.8 elap:               0.0
 (Enter /sw/apps/gaussian-16.0/g16/l9999.exe)
 1\1\GINC-BP1-COMPUTE123\SP\RZINDO CIS\STO-3G\C55H74Mg1N4O6\OF15641\03-
 May-2022\0\\#p ZINDO=(nstates=5)\\step_1101_chromophore_16 ZINDO\\0,1\
 Mg,0,41.439,42.299,27.202\C,0,40.316,44.231,29.818\C,0,42.503,39.939,2
 9.575\C,0,42.775,40.297,24.763\C,0,40.502,44.632,24.928\N,0,41.31,42.0
 73,29.463\C,0,40.798,43.007,30.296\C,0,40.837,42.529,31.799\C,0,41.624
 ,41.185,31.605\C,0,41.851,41.026,30.116\C,0,42.865,40.973,32.478\C,0,3
 9.441,42.468,32.484\C,0,39.395,41.814,33.857\C,0,39.302,42.761,35.069\

 Normal termination of Gaussian 16 at Tue May  3 23:58:07 2022.
