 Gaussian 16, Revision A.03,
 Gaussian 16:  ES64L-G16RevA.03 25-Dec-2016

 ------------------------------
 #p blyp/Def2SVP td=(nstates=5)
 ------------------------------

 ---------------------------------------------------
 step_1651_chromophore_12 TDDFT with blyp functional
 ---------------------------------------------------
 Symbolic Z-matrix:
 Charge =  0 Multiplicity = 1

                         Standard orientation:
 ---------------------------------------------------------------------
 Center     Atomic      Atomic             Coordinates (Angstroms)
 Number     Number       Type             X           Y           Z
 ---------------------------------------------------------------------
      1         12           0        4.303806    0.473654    0.196785
      2          6           0        3.327453   -2.894115   -0.450829
      3          6           0        0.943144    1.348428    0.123926
      4          6           0        5.171776    3.769357    0.769393
      5          6           0        7.593669   -0.325978   -0.585279
      6          7           0        2.466396   -0.684355   -0.000903
      7          6           0        2.269408   -1.991831   -0.356690
      8          6           0        0.743959   -2.335683   -0.184328
      9          6           0        0.078736   -0.941666   -0.401604
     10          6           0        1.251050    0.033344   -0.110658
     11          6           0       -0.608002   -0.701069   -1.777770
     12          6           0        0.371327   -3.149654    1.152523
     13          6           0       -0.535914   -4.263133    0.908785
     14          6           0       -1.711225   -4.437671    1.888224
     15          8           0       -1.531225   -4.398635    3.086965
     16          8           0       -2.887970   -4.545398    1.224209
     17          7           0        3.177719    2.233447    0.567585
     18          6           0        1.839704    2.360313    0.537778
     19          6           0        1.472127    3.657221    0.914275
     20          6           0        2.678596    4.344522    1.298741
     21          6           0        3.741669    3.478683    0.844925
     22          6           0        0.016880    4.102112    0.885694
     23          6           0        2.815606    5.661002    2.008822
     24          8           0        3.934165    6.116099    2.291175
     25          6           0        1.577965    6.431640    2.512754
     26          7           0        6.103152    1.575409    0.081217
     27          6           0        6.243131    2.939326    0.407436
     28          6           0        7.697319    3.379505    0.293531
     29          6           0        8.503988    2.030086    0.223473
     30          6           0        7.324859    1.030307   -0.154645
     31          6           0        7.921751    4.318030   -0.881997
     32          6           0        9.316846    1.635384    1.437805
     33          6           0       10.459950    2.607430    1.784553
     34          7           0        5.303872   -1.203461   -0.509660
     35          6           0        6.622761   -1.350932   -0.817715
     36          6           0        6.815763   -2.748313   -1.189286
     37          6           0        5.550615   -3.342712   -0.992470
     38          6           0        4.662303   -2.390983   -0.606582
     39          6           0        8.110181   -3.437917   -1.562605
     40          6           0        4.874097   -4.603319   -1.065264
     41          8           0        5.258455   -5.751656   -1.333978
     42          6           0        3.399033   -4.342577   -0.760974
     43          6           0        2.538357   -4.737391   -1.890494
     44          8           0        2.569556   -4.248113   -2.997533
     45          8           0        1.759586   -5.846741   -1.484289
     46          6           0        1.127093   -6.605720   -2.529519
     47          6           0       -3.992507   -4.373007    2.175080
     48          6           0       -5.385530   -4.623763    1.620316
     49          6           0       -6.526537   -3.959267    1.965763
     50          6           0       -6.707996   -3.179233    3.230853
     51          6           0       -7.835245   -4.185914    1.098048
     52          6           0       -8.093936   -3.220836   -0.072594
     53          6           0       -9.546945   -2.524462   -0.149759
     54          6           0       -9.581076   -1.138193    0.496595
     55          6           0      -10.077999   -1.175014    2.042812
     56          6           0      -10.341432   -0.119995   -0.461373
     57          6           0       -9.429033    0.627417   -1.483344
     58          6           0       -9.526496    2.186142   -1.217877
     59          6           0       -8.164801    2.820494   -0.907005
     60          6           0       -7.869940    2.643765    0.637549
     61          6           0       -8.302900    4.328794   -1.381864
     62          6           0       -7.204965    4.780050   -2.347143
     63          6           0       -6.549807    6.153019   -1.990402
     64          6           0       -5.066314    5.961552   -1.759389
     65          6           0       -4.520003    6.990805   -0.770611
     66          6           0       -4.444586    5.905494   -3.178549
     67          1           0       -0.089105    1.668862   -0.031371
     68          1           0        5.402957    4.801081    1.042447
     69          1           0        8.588756   -0.769957   -0.656057
     70          1           0        0.455883   -2.950265   -1.037087
     71          1           0       -0.776052   -0.868555    0.270624
     72          1           0       -0.497707   -1.508312   -2.500764
     73          1           0       -0.184038    0.173129   -2.274203
     74          1           0       -1.667874   -0.462127   -1.694487
     75          1           0       -0.047023   -2.548316    1.960159
     76          1           0        1.311231   -3.495465    1.583170
     77          1           0       -0.015745   -5.214381    1.021793
     78          1           0       -0.958731   -4.225433   -0.095008
     79          1           0       -0.332196    3.620285   -0.027927
     80          1           0       -0.169687    5.175189    0.866796
     81          1           0       -0.597850    3.608512    1.638528
     82          1           0        0.994471    6.808524    1.672360
     83          1           0        1.937799    7.267644    3.112309
     84          1           0        0.972262    5.741620    3.101357
     85          1           0        7.977607    3.845679    1.237155
     86          1           0        9.237904    2.010876   -0.581667
     87          1           0        8.093744    5.303621   -0.448479
     88          1           0        7.070447    4.304450   -1.562942
     89          1           0        8.794297    4.105492   -1.499328
     90          1           0        9.989516    0.798575    1.251901
     91          1           0        8.642571    1.497495    2.283056
     92          1           0       10.564063    3.266360    0.921420
     93          1           0       11.366754    2.052066    2.024027
     94          1           0       10.135970    3.127456    2.686369
     95          1           0        8.938462   -2.729449   -1.536472
     96          1           0        8.063927   -3.885000   -2.556106
     97          1           0        8.263309   -4.336919   -0.966298
     98          1           0        3.171639   -4.890966    0.153852
     99          1           0        0.321514   -6.032868   -2.987571
    100          1           0        0.684694   -7.479593   -2.049851
    101          1           0        1.938703   -6.842753   -3.216677
    102          1           0       -3.860982   -3.311976    2.384229
    103          1           0       -3.880467   -4.842264    3.152616
    104          1           0       -5.223310   -5.206795    0.713522
    105          1           0       -7.719501   -2.777661    3.279495
    106          1           0       -6.104040   -2.282254    3.367200
    107          1           0       -6.626212   -3.919609    4.026079
    108          1           0       -8.701272   -4.085263    1.751375
    109          1           0       -7.908119   -5.245599    0.850319
    110          1           0       -7.921484   -3.552741   -1.096418
    111          1           0       -7.318379   -2.456644   -0.006550
    112          1           0      -10.270285   -3.162057    0.357043
    113          1           0       -9.861762   -2.486502   -1.193271
    114          1           0       -8.550445   -0.799716    0.602147
    115          1           0       -9.465886   -0.539986    2.682926
    116          1           0      -10.150558   -2.191793    2.428747
    117          1           0      -11.089160   -0.772064    2.084898
    118          1           0      -10.864182    0.647290    0.110263
    119          1           0      -11.185933   -0.599827   -0.955079
    120          1           0       -9.772860    0.353709   -2.480897
    121          1           0       -8.366451    0.397730   -1.403006
    122          1           0      -10.064841    2.564767   -0.348224
    123          1           0       -9.991511    2.628549   -2.097749
    124          1           0       -7.400187    2.313468   -1.496303
    125          1           0       -8.131635    3.650476    0.962554
    126          1           0       -6.851507    2.342245    0.881059
    127          1           0       -8.377931    1.846248    1.179551
    128          1           0       -8.448780    5.075541   -0.601468
    129          1           0       -9.202916    4.463612   -1.982149
    130          1           0       -7.540726    4.819553   -3.383044
    131          1           0       -6.427531    4.031917   -2.193907
    132          1           0       -7.080386    6.645567   -1.175395
    133          1           0       -6.594430    6.889628   -2.791787
    134          1           0       -4.719140    4.985304   -1.418818
    135          1           0       -3.525849    7.263726   -1.125246
    136          1           0       -4.390929    6.507602    0.197110
    137          1           0       -5.051573    7.942705   -0.784935
    138          1           0       -3.555405    5.278062   -3.244513
    139          1           0       -4.254095    6.940806   -3.461949
    140          1           0       -5.183551    5.428876   -3.823138
 ---------------------------------------------------------------------

 SCF Done:  E(RB-LYP) =  -3007.35566575     A.U. after   21 cycles

 Excitation energies and oscillator strengths:

 Excited State   1:      Singlet-A      1.7433 eV  711.20 nm  f=0.0530  <S**2>=0.000
     243 -> 247        0.10809
     244 -> 247        0.60439
     245 -> 247        0.14366
     246 -> 247        0.31384
 This state for optimization and/or second-order correction.
 Total Energy, E(TD-HF/TD-DFT) =  -3007.29160005
 Copying the excited state density for this state as the 1-particle RhoCI density.

 Excited State   2:      Singlet-A      1.7773 eV  697.59 nm  f=0.2502  <S**2>=0.000
     244 -> 247       -0.32688
     245 -> 248        0.15238
     246 -> 247        0.61455
     246 <- 247       -0.14607

 Excited State   3:      Singlet-A      1.7977 eV  689.69 nm  f=0.0186  <S**2>=0.000
     243 -> 247        0.64810
     244 -> 247       -0.12009
     245 -> 247        0.22999

 Excited State   4:      Singlet-A      1.9850 eV  624.60 nm  f=0.0946  <S**2>=0.000
     240 -> 247        0.10762
     243 -> 247       -0.25107
     244 -> 247       -0.10943
     245 -> 247        0.60024
     246 -> 248       -0.19618

 Excited State   5:      Singlet-A      2.1988 eV  563.86 nm  f=0.0001  <S**2>=0.000
     241 -> 247        0.70605

 The electronic state is 1-A.
 Alpha  occ. eigenvalues --  -46.26743 -18.83369 -18.81546 -18.77612 -18.77023
 Alpha  occ. eigenvalues --  -18.75487 -18.75412 -14.03771 -14.03577 -14.01008
 Alpha  occ. eigenvalues --  -14.00594 -10.04163 -10.03971  -9.99863  -9.99339
 Alpha  occ. eigenvalues --   -9.97820  -9.97522  -9.97374  -9.96843  -9.96834
 Alpha  occ. eigenvalues --   -9.96645  -9.96183  -9.95768  -9.94799  -9.94368
 Alpha  occ. eigenvalues --   -9.94180  -9.93946  -9.93934  -9.93902  -9.93876
 Alpha  occ. eigenvalues --   -9.93814  -9.93736  -9.93693  -9.93514  -9.93433
 Alpha  occ. eigenvalues --   -9.93276  -9.92998  -9.92972  -9.92892  -9.92665
 Alpha  occ. eigenvalues --   -9.92635  -9.92576  -9.92552  -9.92514  -9.92497
 Alpha  occ. eigenvalues --   -9.92496  -9.92477  -9.92476  -9.92184  -9.92182
 Alpha  occ. eigenvalues --   -9.92114  -9.92048  -9.92015  -9.91787  -9.91692
 Alpha  occ. eigenvalues --   -9.91645  -9.91579  -9.91553  -9.91388  -9.91097
 Alpha  occ. eigenvalues --   -9.91058  -9.90950  -9.90934  -9.90870  -9.90808
 Alpha  occ. eigenvalues --   -9.90525  -2.91367  -1.71809  -1.71220  -1.71094
 Alpha  occ. eigenvalues --   -0.99175  -0.97224  -0.91041  -0.90743  -0.90567
 Alpha  occ. eigenvalues --   -0.90331  -0.86645  -0.85839  -0.85030  -0.84394
 Alpha  occ. eigenvalues --   -0.76546  -0.73351  -0.73104  -0.72645  -0.72533
 Alpha  occ. eigenvalues --   -0.72064  -0.71915  -0.70865  -0.70794  -0.70136
 Alpha  occ. eigenvalues --   -0.69454  -0.69113  -0.68108  -0.67800  -0.67092
 Alpha  occ. eigenvalues --   -0.66473  -0.65714  -0.65167  -0.65013  -0.64309
 Alpha  occ. eigenvalues --   -0.63954  -0.62652  -0.62045  -0.61830  -0.60809
 Alpha  occ. eigenvalues --   -0.60788  -0.60368  -0.59992  -0.59842  -0.58848
 Alpha  occ. eigenvalues --   -0.58221  -0.57766  -0.56711  -0.55360  -0.54334
 Alpha  occ. eigenvalues --   -0.54041  -0.53811  -0.52928  -0.52448  -0.51040
 Alpha  occ. eigenvalues --   -0.50959  -0.50867  -0.50621  -0.50261  -0.50252
 Alpha  occ. eigenvalues --   -0.50180  -0.49626  -0.48912  -0.48393  -0.47143
 Alpha  occ. eigenvalues --   -0.46522  -0.46240  -0.45922  -0.45760  -0.45237
 Alpha  occ. eigenvalues --   -0.44548  -0.44056  -0.43149  -0.42719  -0.42479
 Alpha  occ. eigenvalues --   -0.42253  -0.41733  -0.41424  -0.41273  -0.41162
 Alpha  occ. eigenvalues --   -0.41020  -0.40700  -0.40654  -0.40456  -0.40196
 Alpha  occ. eigenvalues --   -0.40024  -0.39936  -0.39549  -0.39391  -0.39280
 Alpha  occ. eigenvalues --   -0.38976  -0.38896  -0.38791  -0.38490  -0.38258
 Alpha  occ. eigenvalues --   -0.38155  -0.37981  -0.37830  -0.37453  -0.37360
 Alpha  occ. eigenvalues --   -0.36925  -0.36882  -0.36866  -0.36788  -0.36583
 Alpha  occ. eigenvalues --   -0.36330  -0.36244  -0.35962  -0.35788  -0.35532
 Alpha  occ. eigenvalues --   -0.35297  -0.35168  -0.35053  -0.35029  -0.34797
 Alpha  occ. eigenvalues --   -0.34552  -0.34523  -0.34388  -0.34221  -0.33952
 Alpha  occ. eigenvalues --   -0.33862  -0.33642  -0.33579  -0.33545  -0.33279
 Alpha  occ. eigenvalues --   -0.33173  -0.33049  -0.32889  -0.32824  -0.32604
 Alpha  occ. eigenvalues --   -0.32160  -0.31967  -0.31829  -0.31508  -0.31221
 Alpha  occ. eigenvalues --   -0.31144  -0.30803  -0.30709  -0.30594  -0.30518
 Alpha  occ. eigenvalues --   -0.30421  -0.30211  -0.30046  -0.29963  -0.29934
 Alpha  occ. eigenvalues --   -0.29713  -0.29600  -0.29390  -0.29296  -0.29155
 Alpha  occ. eigenvalues --   -0.29035  -0.28929  -0.28472  -0.28149  -0.27950
 Alpha  occ. eigenvalues --   -0.27610  -0.27397  -0.26960  -0.26885  -0.26384
 Alpha  occ. eigenvalues --   -0.26183  -0.26067  -0.26031  -0.25999  -0.25528
 Alpha  occ. eigenvalues --   -0.25221  -0.24925  -0.24508  -0.23874  -0.23308
 Alpha  occ. eigenvalues --   -0.22831  -0.22716  -0.22206  -0.22084  -0.20463
 Alpha  occ. eigenvalues --   -0.20269  -0.20132  -0.18752  -0.18561  -0.17498
 Alpha  occ. eigenvalues --   -0.16212
 Alpha virt. eigenvalues --   -0.12189  -0.07119  -0.06089  -0.04966  -0.03131
 Alpha virt. eigenvalues --   -0.03096  -0.02600  -0.02236  -0.01224  -0.00044
 Alpha virt. eigenvalues --    0.00682   0.01481   0.02044   0.02396   0.02746

 Mulliken charges:
               1
     1  Mg   0.696688
     2  C   -0.068764
     3  C   -0.101638
     4  C   -0.020164
     5  C   -0.049675
     6  N   -0.249008
     7  C   -0.059822
     8  C    0.024828
     9  C   -0.032978
    10  C    0.131556
    11  C    0.108588
    12  C    0.166052
    13  C    0.149284
    14  C    0.026736
    15  O   -0.190137
    16  O   -0.248248
    17  N   -0.268277
    18  C    0.141814
    19  C   -0.150883
    20  C    0.049793
    21  C    0.053847
    22  C    0.167416
    23  C   -0.085300
    24  O   -0.181844
    25  C    0.117430
    26  N   -0.243280
    27  C    0.039982
    28  C    0.032214
    29  C    0.011893
    30  C    0.070086
    31  C    0.142519
    32  C    0.074217
    33  C    0.061736
    34  N   -0.262697
    35  C    0.066335
    36  C   -0.170839
    37  C    0.111465
    38  C    0.087983
    39  C    0.177988
    40  C   -0.090809
    41  O   -0.151324
    42  C    0.173513
    43  C    0.118356
    44  O   -0.159740
    45  O   -0.300423
    46  C    0.227865
    47  C    0.265393
    48  C   -0.068135
    49  C   -0.167551
    50  C    0.153497
    51  C    0.157592
    52  C    0.069079
    53  C    0.091605
    54  C   -0.064411
    55  C    0.077885
    56  C    0.098890
    57  C    0.098083
    58  C    0.052938
    59  C   -0.086772
    60  C    0.093547
    61  C    0.115145
    62  C    0.057505
    63  C    0.103301
    64  C   -0.133610
    65  C    0.141929
    66  C    0.096034
    67  H   -0.062982
    68  H   -0.042953
    69  H   -0.056212
    70  H   -0.026049
    71  H   -0.028712
    72  H   -0.001888
    73  H   -0.015783
    74  H   -0.013360
    75  H   -0.014750
    76  H   -0.026116
    77  H    0.002359
    78  H   -0.017946
    79  H   -0.000343
    80  H   -0.007438
    81  H   -0.001723
    82  H    0.016173
    83  H   -0.003866
    84  H    0.011467
    85  H   -0.021619
    86  H   -0.044233
    87  H    0.000232
    88  H    0.002271
    89  H   -0.012695
    90  H   -0.021879
    91  H   -0.018063
    92  H   -0.005922
    93  H   -0.004364
    94  H   -0.002315
    95  H   -0.015558
    96  H    0.001790
    97  H    0.006941
    98  H   -0.008308
    99  H    0.006002
   100  H    0.013625
   101  H    0.021558
   102  H   -0.017145
   103  H    0.015724
   104  H   -0.026572
   105  H   -0.027308
   106  H    0.005250
   107  H    0.016474
   108  H   -0.050375
   109  H   -0.022152
   110  H   -0.032726
   111  H   -0.034311
   112  H   -0.030476
   113  H   -0.032683
   114  H   -0.034644
   115  H   -0.004301
   116  H   -0.007951
   117  H   -0.021456
   118  H   -0.042381
   119  H   -0.036859
   120  H   -0.025433
   121  H   -0.021503
   122  H   -0.022934
   123  H   -0.033120
   124  H   -0.029442
   125  H   -0.007443
   126  H   -0.021672
   127  H   -0.005525
   128  H   -0.034290
   129  H   -0.040959
   130  H   -0.017805
   131  H   -0.018483
   132  H   -0.039262
   133  H   -0.042410
   134  H   -0.039681
   135  H   -0.041914
   136  H   -0.008022
   137  H   -0.014394
   138  H   -0.022358
   139  H   -0.016597
   140  H   -0.016477
 Sum of Mulliken charges =  -0.00000

 Dipole moment (field-independent basis, Debye):
    X=             -3.3166    Y=              1.9898    Z=              0.0044  Tot=              3.8677
 Quadrupole moment (field-independent basis, Debye-Ang):
   XX=           -360.7417   YY=           -433.0867   ZZ=           -418.6218
   XY=             13.3278   XZ=              3.6195   YZ=             -6.8191

 Normal termination of Gaussian 16 at Wed May  4 11:12:38 2022.
