 Gaussian 16, Revision A.03,
 Gaussian 16:  ES64L-G16RevA.03 25-Dec-2016

 -----------------------------------
 #p cam-b3lyp/Def2SVP td=(nstates=5)
 -----------------------------------

 --------------------------------------------------------
 step_1651_chromophore_12 TDDFT with cam-b3lyp functional
 --------------------------------------------------------
 Symbolic Z-matrix:
 Charge =  0 Multiplicity = 1

                         Standard orientation:
 ---------------------------------------------------------------------
 Center     Atomic      Atomic             Coordinates (Angstroms)
 Number     Number       Type             X           Y           Z
 ---------------------------------------------------------------------
      1         12           0        4.303806    0.473654    0.196785
      2          6           0        3.327453   -2.894115   -0.450829
      3          6           0        0.943144    1.348428    0.123926
      4          6           0        5.171776    3.769357    0.769393
      5          6           0        7.593669   -0.325978   -0.585279
      6          7           0        2.466396   -0.684355   -0.000903
      7          6           0        2.269408   -1.991831   -0.356690
      8          6           0        0.743959   -2.335683   -0.184328
      9          6           0        0.078736   -0.941666   -0.401604
     10          6           0        1.251050    0.033344   -0.110658
     11          6           0       -0.608002   -0.701069   -1.777770
     12          6           0        0.371327   -3.149654    1.152523
     13          6           0       -0.535914   -4.263133    0.908785
     14          6           0       -1.711225   -4.437671    1.888224
     15          8           0       -1.531225   -4.398635    3.086965
     16          8           0       -2.887970   -4.545398    1.224209
     17          7           0        3.177719    2.233447    0.567585
     18          6           0        1.839704    2.360313    0.537778
     19          6           0        1.472127    3.657221    0.914275
     20          6           0        2.678596    4.344522    1.298741
     21          6           0        3.741669    3.478683    0.844925
     22          6           0        0.016880    4.102112    0.885694
     23          6           0        2.815606    5.661002    2.008822
     24          8           0        3.934165    6.116099    2.291175
     25          6           0        1.577965    6.431640    2.512754
     26          7           0        6.103152    1.575409    0.081217
     27          6           0        6.243131    2.939326    0.407436
     28          6           0        7.697319    3.379505    0.293531
     29          6           0        8.503988    2.030086    0.223473
     30          6           0        7.324859    1.030307   -0.154645
     31          6           0        7.921751    4.318030   -0.881997
     32          6           0        9.316846    1.635384    1.437805
     33          6           0       10.459950    2.607430    1.784553
     34          7           0        5.303872   -1.203461   -0.509660
     35          6           0        6.622761   -1.350932   -0.817715
     36          6           0        6.815763   -2.748313   -1.189286
     37          6           0        5.550615   -3.342712   -0.992470
     38          6           0        4.662303   -2.390983   -0.606582
     39          6           0        8.110181   -3.437917   -1.562605
     40          6           0        4.874097   -4.603319   -1.065264
     41          8           0        5.258455   -5.751656   -1.333978
     42          6           0        3.399033   -4.342577   -0.760974
     43          6           0        2.538357   -4.737391   -1.890494
     44          8           0        2.569556   -4.248113   -2.997533
     45          8           0        1.759586   -5.846741   -1.484289
     46          6           0        1.127093   -6.605720   -2.529519
     47          6           0       -3.992507   -4.373007    2.175080
     48          6           0       -5.385530   -4.623763    1.620316
     49          6           0       -6.526537   -3.959267    1.965763
     50          6           0       -6.707996   -3.179233    3.230853
     51          6           0       -7.835245   -4.185914    1.098048
     52          6           0       -8.093936   -3.220836   -0.072594
     53          6           0       -9.546945   -2.524462   -0.149759
     54          6           0       -9.581076   -1.138193    0.496595
     55          6           0      -10.077999   -1.175014    2.042812
     56          6           0      -10.341432   -0.119995   -0.461373
     57          6           0       -9.429033    0.627417   -1.483344
     58          6           0       -9.526496    2.186142   -1.217877
     59          6           0       -8.164801    2.820494   -0.907005
     60          6           0       -7.869940    2.643765    0.637549
     61          6           0       -8.302900    4.328794   -1.381864
     62          6           0       -7.204965    4.780050   -2.347143
     63          6           0       -6.549807    6.153019   -1.990402
     64          6           0       -5.066314    5.961552   -1.759389
     65          6           0       -4.520003    6.990805   -0.770611
     66          6           0       -4.444586    5.905494   -3.178549
     67          1           0       -0.089105    1.668862   -0.031371
     68          1           0        5.402957    4.801081    1.042447
     69          1           0        8.588756   -0.769957   -0.656057
     70          1           0        0.455883   -2.950265   -1.037087
     71          1           0       -0.776052   -0.868555    0.270624
     72          1           0       -0.497707   -1.508312   -2.500764
     73          1           0       -0.184038    0.173129   -2.274203
     74          1           0       -1.667874   -0.462127   -1.694487
     75          1           0       -0.047023   -2.548316    1.960159
     76          1           0        1.311231   -3.495465    1.583170
     77          1           0       -0.015745   -5.214381    1.021793
     78          1           0       -0.958731   -4.225433   -0.095008
     79          1           0       -0.332196    3.620285   -0.027927
     80          1           0       -0.169687    5.175189    0.866796
     81          1           0       -0.597850    3.608512    1.638528
     82          1           0        0.994471    6.808524    1.672360
     83          1           0        1.937799    7.267644    3.112309
     84          1           0        0.972262    5.741620    3.101357
     85          1           0        7.977607    3.845679    1.237155
     86          1           0        9.237904    2.010876   -0.581667
     87          1           0        8.093744    5.303621   -0.448479
     88          1           0        7.070447    4.304450   -1.562942
     89          1           0        8.794297    4.105492   -1.499328
     90          1           0        9.989516    0.798575    1.251901
     91          1           0        8.642571    1.497495    2.283056
     92          1           0       10.564063    3.266360    0.921420
     93          1           0       11.366754    2.052066    2.024027
     94          1           0       10.135970    3.127456    2.686369
     95          1           0        8.938462   -2.729449   -1.536472
     96          1           0        8.063927   -3.885000   -2.556106
     97          1           0        8.263309   -4.336919   -0.966298
     98          1           0        3.171639   -4.890966    0.153852
     99          1           0        0.321514   -6.032868   -2.987571
    100          1           0        0.684694   -7.479593   -2.049851
    101          1           0        1.938703   -6.842753   -3.216677
    102          1           0       -3.860982   -3.311976    2.384229
    103          1           0       -3.880467   -4.842264    3.152616
    104          1           0       -5.223310   -5.206795    0.713522
    105          1           0       -7.719501   -2.777661    3.279495
    106          1           0       -6.104040   -2.282254    3.367200
    107          1           0       -6.626212   -3.919609    4.026079
    108          1           0       -8.701272   -4.085263    1.751375
    109          1           0       -7.908119   -5.245599    0.850319
    110          1           0       -7.921484   -3.552741   -1.096418
    111          1           0       -7.318379   -2.456644   -0.006550
    112          1           0      -10.270285   -3.162057    0.357043
    113          1           0       -9.861762   -2.486502   -1.193271
    114          1           0       -8.550445   -0.799716    0.602147
    115          1           0       -9.465886   -0.539986    2.682926
    116          1           0      -10.150558   -2.191793    2.428747
    117          1           0      -11.089160   -0.772064    2.084898
    118          1           0      -10.864182    0.647290    0.110263
    119          1           0      -11.185933   -0.599827   -0.955079
    120          1           0       -9.772860    0.353709   -2.480897
    121          1           0       -8.366451    0.397730   -1.403006
    122          1           0      -10.064841    2.564767   -0.348224
    123          1           0       -9.991511    2.628549   -2.097749
    124          1           0       -7.400187    2.313468   -1.496303
    125          1           0       -8.131635    3.650476    0.962554
    126          1           0       -6.851507    2.342245    0.881059
    127          1           0       -8.377931    1.846248    1.179551
    128          1           0       -8.448780    5.075541   -0.601468
    129          1           0       -9.202916    4.463612   -1.982149
    130          1           0       -7.540726    4.819553   -3.383044
    131          1           0       -6.427531    4.031917   -2.193907
    132          1           0       -7.080386    6.645567   -1.175395
    133          1           0       -6.594430    6.889628   -2.791787
    134          1           0       -4.719140    4.985304   -1.418818
    135          1           0       -3.525849    7.263726   -1.125246
    136          1           0       -4.390929    6.507602    0.197110
    137          1           0       -5.051573    7.942705   -0.784935
    138          1           0       -3.555405    5.278062   -3.244513
    139          1           0       -4.254095    6.940806   -3.461949
    140          1           0       -5.183551    5.428876   -3.823138
 ---------------------------------------------------------------------

 SCF Done:  E(RCAM-B3LYP) =  -3007.14227983     A.U. after   18 cycles

 Excitation energies and oscillator strengths:

 Excited State   1:      Singlet-A      1.6390 eV  756.44 nm  f=0.3901  <S**2>=0.000
     245 -> 248        0.16040
     246 -> 247        0.68959
     245 <- 248        0.10375
 This state for optimization and/or second-order correction.
 Total Energy, E(TD-HF/TD-DFT) =  -3007.08204607
 Copying the excited state density for this state as the 1-particle RhoCI density.

 Excited State   2:      Singlet-A      2.1414 eV  578.98 nm  f=0.1669  <S**2>=0.000
     245 -> 247        0.65789
     246 -> 248       -0.23894

 Excited State   3:      Singlet-A      3.0842 eV  402.00 nm  f=0.0031  <S**2>=0.000
     243 -> 247       -0.25406
     244 -> 247        0.64365

 Excited State   4:      Singlet-A      3.2230 eV  384.69 nm  f=0.0104  <S**2>=0.000
     243 -> 247        0.63254
     244 -> 247        0.25304
     246 -> 248        0.10738

 Excited State   5:      Singlet-A      3.3900 eV  365.74 nm  f=0.0052  <S**2>=0.000
     239 -> 247        0.19647
     239 -> 249       -0.11881
     240 -> 247        0.53724
     240 -> 249       -0.27155
     240 -> 250       -0.13479
     241 -> 247       -0.15611

 The electronic state is 1-A.
 Alpha  occ. eigenvalues --  -46.88236 -19.26239 -19.24538 -19.20909 -19.19984
 Alpha  occ. eigenvalues --  -19.18862 -19.18484 -14.42822 -14.42347 -14.39315
 Alpha  occ. eigenvalues --  -14.39031 -10.39812 -10.39212 -10.34962 -10.34817
 Alpha  occ. eigenvalues --  -10.32217 -10.31861 -10.31534 -10.31354 -10.31189
 Alpha  occ. eigenvalues --  -10.30983 -10.30364 -10.30258 -10.28910 -10.28747
 Alpha  occ. eigenvalues --  -10.28618 -10.28341 -10.28178 -10.28129 -10.27939
 Alpha  occ. eigenvalues --  -10.27910 -10.27868 -10.27806 -10.27803 -10.27632
 Alpha  occ. eigenvalues --  -10.27135 -10.26997 -10.26870 -10.26811 -10.26720
 Alpha  occ. eigenvalues --  -10.26532 -10.26452 -10.26411 -10.26390 -10.26321
 Alpha  occ. eigenvalues --  -10.26316 -10.26266 -10.26191 -10.26124 -10.25825
 Alpha  occ. eigenvalues --  -10.25762 -10.25746 -10.25707 -10.25482 -10.25419
 Alpha  occ. eigenvalues --  -10.25354 -10.25229 -10.25196 -10.25115 -10.24784
 Alpha  occ. eigenvalues --  -10.24763 -10.24725 -10.24626 -10.24528 -10.24523
 Alpha  occ. eigenvalues --  -10.24423  -3.16766  -1.91685  -1.91200  -1.91081
 Alpha  occ. eigenvalues --   -1.17641  -1.15909  -1.09056  -1.08944  -1.08801
 Alpha  occ. eigenvalues --   -1.08621  -1.04481  -1.03295  -1.02667  -1.01874
 Alpha  occ. eigenvalues --   -0.93854  -0.90186  -0.89935  -0.89339  -0.89299
 Alpha  occ. eigenvalues --   -0.88772  -0.88514  -0.87450  -0.87384  -0.86605
 Alpha  occ. eigenvalues --   -0.86073  -0.85468  -0.84408  -0.84010  -0.83209
 Alpha  occ. eigenvalues --   -0.82486  -0.81789  -0.81047  -0.80883  -0.80224
 Alpha  occ. eigenvalues --   -0.79735  -0.78330  -0.77633  -0.77341  -0.76263
 Alpha  occ. eigenvalues --   -0.76197  -0.75731  -0.75228  -0.75132  -0.74013
 Alpha  occ. eigenvalues --   -0.73321  -0.72842  -0.71563  -0.70127  -0.68929
 Alpha  occ. eigenvalues --   -0.68664  -0.68430  -0.67355  -0.66821  -0.65265
 Alpha  occ. eigenvalues --   -0.65096  -0.64851  -0.64668  -0.64335  -0.64254
 Alpha  occ. eigenvalues --   -0.64085  -0.63621  -0.62844  -0.62217  -0.60640
 Alpha  occ. eigenvalues --   -0.60091  -0.59927  -0.59422  -0.59311  -0.58830
 Alpha  occ. eigenvalues --   -0.57923  -0.57553  -0.56249  -0.55962  -0.55630
 Alpha  occ. eigenvalues --   -0.55219  -0.54721  -0.54492  -0.54475  -0.54451
 Alpha  occ. eigenvalues --   -0.53678  -0.53642  -0.53239  -0.53163  -0.52844
 Alpha  occ. eigenvalues --   -0.52826  -0.52568  -0.52141  -0.52043  -0.51796
 Alpha  occ. eigenvalues --   -0.51669  -0.51532  -0.51212  -0.51108  -0.50810
 Alpha  occ. eigenvalues --   -0.50416  -0.50256  -0.50007  -0.49740  -0.49723
 Alpha  occ. eigenvalues --   -0.49515  -0.49232  -0.49053  -0.48942  -0.48838
 Alpha  occ. eigenvalues --   -0.48590  -0.48270  -0.48248  -0.47987  -0.47940
 Alpha  occ. eigenvalues --   -0.47312  -0.47145  -0.46967  -0.46844  -0.46611
 Alpha  occ. eigenvalues --   -0.46551  -0.46416  -0.46298  -0.46263  -0.45845
 Alpha  occ. eigenvalues --   -0.45744  -0.45619  -0.45471  -0.45340  -0.45041
 Alpha  occ. eigenvalues --   -0.44969  -0.44848  -0.44494  -0.44386  -0.44302
 Alpha  occ. eigenvalues --   -0.43919  -0.43624  -0.43300  -0.43022  -0.42842
 Alpha  occ. eigenvalues --   -0.42451  -0.42425  -0.42189  -0.42011  -0.41949
 Alpha  occ. eigenvalues --   -0.41899  -0.41816  -0.41542  -0.41355  -0.41248
 Alpha  occ. eigenvalues --   -0.41186  -0.40836  -0.40510  -0.40469  -0.40239
 Alpha  occ. eigenvalues --   -0.40150  -0.40043  -0.39403  -0.39039  -0.38850
 Alpha  occ. eigenvalues --   -0.38686  -0.38194  -0.37995  -0.37747  -0.37431
 Alpha  occ. eigenvalues --   -0.37380  -0.36915  -0.36885  -0.36654  -0.36609
 Alpha  occ. eigenvalues --   -0.36296  -0.35803  -0.35131  -0.35072  -0.34346
 Alpha  occ. eigenvalues --   -0.33944  -0.33175  -0.33057  -0.31625  -0.31055
 Alpha  occ. eigenvalues --   -0.30743  -0.30004  -0.29817  -0.29204  -0.24231
 Alpha  occ. eigenvalues --   -0.21604
 Alpha virt. eigenvalues --   -0.09564  -0.01666   0.00359   0.01953   0.02910
 Alpha virt. eigenvalues --    0.04323   0.04574   0.05421   0.05738   0.06448
 Alpha virt. eigenvalues --    0.07628   0.08126   0.08275   0.08738   0.09025

 Mulliken charges:
               1
     1  Mg   0.828852
     2  C   -0.086947
     3  C   -0.107498
     4  C   -0.031111
     5  C   -0.055146
     6  N   -0.320572
     7  C   -0.011765
     8  C   -0.023124
     9  C   -0.085455
    10  C    0.138805
    11  C    0.052493
    12  C    0.105225
    13  C    0.080175
    14  C    0.111389
    15  O   -0.231844
    16  O   -0.312298
    17  N   -0.354077
    18  C    0.147449
    19  C   -0.160150
    20  C   -0.020019
    21  C    0.075477
    22  C    0.110179
    23  C   -0.009875
    24  O   -0.225383
    25  C    0.042205
    26  N   -0.313077
    27  C    0.051764
    28  C   -0.027196
    29  C   -0.036892
    30  C    0.085662
    31  C    0.082932
    32  C    0.019287
    33  C    0.001214
    34  N   -0.355291
    35  C    0.076896
    36  C   -0.164785
    37  C    0.024259
    38  C    0.126820
    39  C    0.128037
    40  C    0.012776
    41  O   -0.189293
    42  C    0.087691
    43  C    0.204486
    44  O   -0.193742
    45  O   -0.364082
    46  C    0.185944
    47  C    0.226582
    48  C   -0.083584
    49  C   -0.190631
    50  C    0.088064
    51  C    0.099841
    52  C    0.014418
    53  C    0.037315
    54  C   -0.116332
    55  C    0.025185
    56  C    0.041980
    57  C    0.044775
    58  C    0.002729
    59  C   -0.144364
    60  C    0.041693
    61  C    0.060954
    62  C    0.005556
    63  C    0.043288
    64  C   -0.190076
    65  C    0.078157
    66  C    0.038834
    67  H   -0.028011
    68  H   -0.000774
    69  H   -0.020663
    70  H    0.005730
    71  H    0.006744
    72  H    0.022427
    73  H    0.010937
    74  H    0.011000
    75  H    0.019013
    76  H    0.006226
    77  H    0.034120
    78  H    0.016549
    79  H    0.023144
    80  H    0.017573
    81  H    0.025433
    82  H    0.041157
    83  H    0.030373
    84  H    0.038273
    85  H    0.014093
    86  H   -0.008374
    87  H    0.024115
    88  H    0.028540
    89  H    0.011438
    90  H    0.006787
    91  H    0.010365
    92  H    0.016105
    93  H    0.020204
    94  H    0.020798
    95  H    0.008505
    96  H    0.030577
    97  H    0.034854
    98  H    0.037186
    99  H    0.027940
   100  H    0.037210
   101  H    0.044407
   102  H    0.010594
   103  H    0.045868
   104  H    0.008414
   105  H   -0.003025
   106  H    0.029919
   107  H    0.040999
   108  H   -0.020895
   109  H    0.008888
   110  H   -0.002488
   111  H   -0.005176
   112  H   -0.002590
   113  H   -0.002157
   114  H   -0.006985
   115  H    0.016902
   116  H    0.011915
   117  H    0.003581
   118  H   -0.012688
   119  H   -0.007432
   120  H    0.004052
   121  H    0.003735
   122  H    0.003563
   123  H   -0.003078
   124  H    0.000632
   125  H    0.014798
   126  H    0.002642
   127  H    0.013652
   128  H   -0.006340
   129  H   -0.009843
   130  H    0.009476
   131  H    0.006487
   132  H   -0.009187
   133  H   -0.011717
   134  H   -0.008863
   135  H   -0.015919
   136  H    0.016225
   137  H    0.009733
   138  H    0.003276
   139  H    0.007103
   140  H    0.007147
 Sum of Mulliken charges =  -0.00000

 Dipole moment (field-independent basis, Debye):
    X=             -3.3452    Y=              1.9695    Z=             -0.0579  Tot=              3.8824
 Quadrupole moment (field-independent basis, Debye-Ang):
   XX=           -355.9163   YY=           -430.6385   ZZ=           -418.9715
   XY=             12.0705   XZ=              3.1725   YZ=             -5.5725

 Normal termination of Gaussian 16 at Wed May  4 10:17:03 2022.
