 Gaussian 16, Revision A.03,
 Gaussian 16:  ES64L-G16RevA.03 25-Dec-2016

 ---------------------------------
 #p PBE1PBE/Def2SVP td=(nstates=5)
 ---------------------------------

 ------------------------------------------------------
 step_1651_chromophore_12 TDDFT with PBE1PBE functional
 ------------------------------------------------------
 Symbolic Z-matrix:
 Charge =  0 Multiplicity = 1

                         Standard orientation:
 ---------------------------------------------------------------------
 Center     Atomic      Atomic             Coordinates (Angstroms)
 Number     Number       Type             X           Y           Z
 ---------------------------------------------------------------------
      1         12           0        4.303806    0.473654    0.196785
      2          6           0        3.327453   -2.894115   -0.450829
      3          6           0        0.943144    1.348428    0.123926
      4          6           0        5.171776    3.769357    0.769393
      5          6           0        7.593669   -0.325978   -0.585279
      6          7           0        2.466396   -0.684355   -0.000903
      7          6           0        2.269408   -1.991831   -0.356690
      8          6           0        0.743959   -2.335683   -0.184328
      9          6           0        0.078736   -0.941666   -0.401604
     10          6           0        1.251050    0.033344   -0.110658
     11          6           0       -0.608002   -0.701069   -1.777770
     12          6           0        0.371327   -3.149654    1.152523
     13          6           0       -0.535914   -4.263133    0.908785
     14          6           0       -1.711225   -4.437671    1.888224
     15          8           0       -1.531225   -4.398635    3.086965
     16          8           0       -2.887970   -4.545398    1.224209
     17          7           0        3.177719    2.233447    0.567585
     18          6           0        1.839704    2.360313    0.537778
     19          6           0        1.472127    3.657221    0.914275
     20          6           0        2.678596    4.344522    1.298741
     21          6           0        3.741669    3.478683    0.844925
     22          6           0        0.016880    4.102112    0.885694
     23          6           0        2.815606    5.661002    2.008822
     24          8           0        3.934165    6.116099    2.291175
     25          6           0        1.577965    6.431640    2.512754
     26          7           0        6.103152    1.575409    0.081217
     27          6           0        6.243131    2.939326    0.407436
     28          6           0        7.697319    3.379505    0.293531
     29          6           0        8.503988    2.030086    0.223473
     30          6           0        7.324859    1.030307   -0.154645
     31          6           0        7.921751    4.318030   -0.881997
     32          6           0        9.316846    1.635384    1.437805
     33          6           0       10.459950    2.607430    1.784553
     34          7           0        5.303872   -1.203461   -0.509660
     35          6           0        6.622761   -1.350932   -0.817715
     36          6           0        6.815763   -2.748313   -1.189286
     37          6           0        5.550615   -3.342712   -0.992470
     38          6           0        4.662303   -2.390983   -0.606582
     39          6           0        8.110181   -3.437917   -1.562605
     40          6           0        4.874097   -4.603319   -1.065264
     41          8           0        5.258455   -5.751656   -1.333978
     42          6           0        3.399033   -4.342577   -0.760974
     43          6           0        2.538357   -4.737391   -1.890494
     44          8           0        2.569556   -4.248113   -2.997533
     45          8           0        1.759586   -5.846741   -1.484289
     46          6           0        1.127093   -6.605720   -2.529519
     47          6           0       -3.992507   -4.373007    2.175080
     48          6           0       -5.385530   -4.623763    1.620316
     49          6           0       -6.526537   -3.959267    1.965763
     50          6           0       -6.707996   -3.179233    3.230853
     51          6           0       -7.835245   -4.185914    1.098048
     52          6           0       -8.093936   -3.220836   -0.072594
     53          6           0       -9.546945   -2.524462   -0.149759
     54          6           0       -9.581076   -1.138193    0.496595
     55          6           0      -10.077999   -1.175014    2.042812
     56          6           0      -10.341432   -0.119995   -0.461373
     57          6           0       -9.429033    0.627417   -1.483344
     58          6           0       -9.526496    2.186142   -1.217877
     59          6           0       -8.164801    2.820494   -0.907005
     60          6           0       -7.869940    2.643765    0.637549
     61          6           0       -8.302900    4.328794   -1.381864
     62          6           0       -7.204965    4.780050   -2.347143
     63          6           0       -6.549807    6.153019   -1.990402
     64          6           0       -5.066314    5.961552   -1.759389
     65          6           0       -4.520003    6.990805   -0.770611
     66          6           0       -4.444586    5.905494   -3.178549
     67          1           0       -0.089105    1.668862   -0.031371
     68          1           0        5.402957    4.801081    1.042447
     69          1           0        8.588756   -0.769957   -0.656057
     70          1           0        0.455883   -2.950265   -1.037087
     71          1           0       -0.776052   -0.868555    0.270624
     72          1           0       -0.497707   -1.508312   -2.500764
     73          1           0       -0.184038    0.173129   -2.274203
     74          1           0       -1.667874   -0.462127   -1.694487
     75          1           0       -0.047023   -2.548316    1.960159
     76          1           0        1.311231   -3.495465    1.583170
     77          1           0       -0.015745   -5.214381    1.021793
     78          1           0       -0.958731   -4.225433   -0.095008
     79          1           0       -0.332196    3.620285   -0.027927
     80          1           0       -0.169687    5.175189    0.866796
     81          1           0       -0.597850    3.608512    1.638528
     82          1           0        0.994471    6.808524    1.672360
     83          1           0        1.937799    7.267644    3.112309
     84          1           0        0.972262    5.741620    3.101357
     85          1           0        7.977607    3.845679    1.237155
     86          1           0        9.237904    2.010876   -0.581667
     87          1           0        8.093744    5.303621   -0.448479
     88          1           0        7.070447    4.304450   -1.562942
     89          1           0        8.794297    4.105492   -1.499328
     90          1           0        9.989516    0.798575    1.251901
     91          1           0        8.642571    1.497495    2.283056
     92          1           0       10.564063    3.266360    0.921420
     93          1           0       11.366754    2.052066    2.024027
     94          1           0       10.135970    3.127456    2.686369
     95          1           0        8.938462   -2.729449   -1.536472
     96          1           0        8.063927   -3.885000   -2.556106
     97          1           0        8.263309   -4.336919   -0.966298
     98          1           0        3.171639   -4.890966    0.153852
     99          1           0        0.321514   -6.032868   -2.987571
    100          1           0        0.684694   -7.479593   -2.049851
    101          1           0        1.938703   -6.842753   -3.216677
    102          1           0       -3.860982   -3.311976    2.384229
    103          1           0       -3.880467   -4.842264    3.152616
    104          1           0       -5.223310   -5.206795    0.713522
    105          1           0       -7.719501   -2.777661    3.279495
    106          1           0       -6.104040   -2.282254    3.367200
    107          1           0       -6.626212   -3.919609    4.026079
    108          1           0       -8.701272   -4.085263    1.751375
    109          1           0       -7.908119   -5.245599    0.850319
    110          1           0       -7.921484   -3.552741   -1.096418
    111          1           0       -7.318379   -2.456644   -0.006550
    112          1           0      -10.270285   -3.162057    0.357043
    113          1           0       -9.861762   -2.486502   -1.193271
    114          1           0       -8.550445   -0.799716    0.602147
    115          1           0       -9.465886   -0.539986    2.682926
    116          1           0      -10.150558   -2.191793    2.428747
    117          1           0      -11.089160   -0.772064    2.084898
    118          1           0      -10.864182    0.647290    0.110263
    119          1           0      -11.185933   -0.599827   -0.955079
    120          1           0       -9.772860    0.353709   -2.480897
    121          1           0       -8.366451    0.397730   -1.403006
    122          1           0      -10.064841    2.564767   -0.348224
    123          1           0       -9.991511    2.628549   -2.097749
    124          1           0       -7.400187    2.313468   -1.496303
    125          1           0       -8.131635    3.650476    0.962554
    126          1           0       -6.851507    2.342245    0.881059
    127          1           0       -8.377931    1.846248    1.179551
    128          1           0       -8.448780    5.075541   -0.601468
    129          1           0       -9.202916    4.463612   -1.982149
    130          1           0       -7.540726    4.819553   -3.383044
    131          1           0       -6.427531    4.031917   -2.193907
    132          1           0       -7.080386    6.645567   -1.175395
    133          1           0       -6.594430    6.889628   -2.791787
    134          1           0       -4.719140    4.985304   -1.418818
    135          1           0       -3.525849    7.263726   -1.125246
    136          1           0       -4.390929    6.507602    0.197110
    137          1           0       -5.051573    7.942705   -0.784935
    138          1           0       -3.555405    5.278062   -3.244513
    139          1           0       -4.254095    6.940806   -3.461949
    140          1           0       -5.183551    5.428876   -3.823138
 ---------------------------------------------------------------------

 SCF Done:  E(RPBE1PBE) =  -3005.33165349     A.U. after   15 cycles

 Excitation energies and oscillator strengths:

 Excited State   1:      Singlet-A      1.8038 eV  687.36 nm  f=0.3739  <S**2>=0.000
     245 -> 248        0.15319
     246 -> 247        0.69789
     246 <- 247       -0.12121
 This state for optimization and/or second-order correction.
 Total Energy, E(TD-HF/TD-DFT) =  -3005.26536566
 Copying the excited state density for this state as the 1-particle RhoCI density.

 Excited State   2:      Singlet-A      2.1605 eV  573.88 nm  f=0.1505  <S**2>=0.000
     245 -> 247        0.66406
     246 -> 248       -0.21659

 Excited State   3:      Singlet-A      2.7565 eV  449.78 nm  f=0.0044  <S**2>=0.000
     244 -> 247        0.69100

 Excited State   4:      Singlet-A      2.8577 eV  433.85 nm  f=0.0054  <S**2>=0.000
     240 -> 247        0.41686
     240 -> 249       -0.12391
     241 -> 247       -0.19924
     242 -> 247        0.49315

 Excited State   5:      Singlet-A      2.9170 eV  425.04 nm  f=0.0050  <S**2>=0.000
     240 -> 247        0.52500
     241 -> 247        0.10108
     242 -> 247       -0.42918

 The electronic state is 1-A.
 Alpha  occ. eigenvalues --  -46.91643 -19.26959 -19.25160 -19.21034 -19.20309
 Alpha  occ. eigenvalues --  -19.18997 -19.18812 -14.42264 -14.41987 -14.39074
 Alpha  occ. eigenvalues --  -14.38652 -10.36757 -10.36285 -10.32203 -10.31858
 Alpha  occ. eigenvalues --  -10.29883 -10.29292 -10.29187 -10.29045 -10.28833
 Alpha  occ. eigenvalues --  -10.28517 -10.28268 -10.27824 -10.26589 -10.26426
 Alpha  occ. eigenvalues --  -10.26163 -10.26105 -10.25862 -10.25736 -10.25734
 Alpha  occ. eigenvalues --  -10.25643 -10.25641 -10.25620 -10.25535 -10.25410
 Alpha  occ. eigenvalues --  -10.24792 -10.24608 -10.24570 -10.24559 -10.24457
 Alpha  occ. eigenvalues --  -10.24144 -10.24090 -10.24032 -10.23921 -10.23876
 Alpha  occ. eigenvalues --  -10.23770 -10.23699 -10.23694 -10.23467 -10.23337
 Alpha  occ. eigenvalues --  -10.23315 -10.23254 -10.23131 -10.23060 -10.23002
 Alpha  occ. eigenvalues --  -10.22915 -10.22785 -10.22712 -10.22622 -10.22419
 Alpha  occ. eigenvalues --  -10.22323 -10.22311 -10.22242 -10.22119 -10.21924
 Alpha  occ. eigenvalues --  -10.21846  -3.13753  -1.86614  -1.86106  -1.85991
 Alpha  occ. eigenvalues --   -1.12502  -1.10589  -1.03851  -1.03716  -1.03617
 Alpha  occ. eigenvalues --   -1.03362  -0.99061  -0.98077  -0.97236  -0.96526
 Alpha  occ. eigenvalues --   -0.88183  -0.84296  -0.84079  -0.83580  -0.83480
 Alpha  occ. eigenvalues --   -0.82929  -0.82882  -0.81725  -0.81547  -0.80971
 Alpha  occ. eigenvalues --   -0.80327  -0.79769  -0.78662  -0.78191  -0.77519
 Alpha  occ. eigenvalues --   -0.76708  -0.76053  -0.75262  -0.75164  -0.74522
 Alpha  occ. eigenvalues --   -0.73876  -0.72680  -0.71906  -0.71639  -0.70550
 Alpha  occ. eigenvalues --   -0.70314  -0.69889  -0.69609  -0.69287  -0.68259
 Alpha  occ. eigenvalues --   -0.67638  -0.67221  -0.66015  -0.64442  -0.63298
 Alpha  occ. eigenvalues --   -0.63078  -0.62744  -0.61874  -0.61050  -0.59583
 Alpha  occ. eigenvalues --   -0.59481  -0.59414  -0.59132  -0.58689  -0.58588
 Alpha  occ. eigenvalues --   -0.58475  -0.57784  -0.57054  -0.56736  -0.55089
 Alpha  occ. eigenvalues --   -0.54681  -0.54421  -0.53985  -0.53853  -0.53303
 Alpha  occ. eigenvalues --   -0.52552  -0.51918  -0.50836  -0.50435  -0.50181
 Alpha  occ. eigenvalues --   -0.49737  -0.49368  -0.49095  -0.48949  -0.48851
 Alpha  occ. eigenvalues --   -0.48268  -0.48091  -0.47737  -0.47689  -0.47394
 Alpha  occ. eigenvalues --   -0.47263  -0.47141  -0.46690  -0.46651  -0.46348
 Alpha  occ. eigenvalues --   -0.46198  -0.46033  -0.45807  -0.45641  -0.45358
 Alpha  occ. eigenvalues --   -0.44948  -0.44930  -0.44561  -0.44367  -0.44343
 Alpha  occ. eigenvalues --   -0.44000  -0.43865  -0.43721  -0.43554  -0.43494
 Alpha  occ. eigenvalues --   -0.43250  -0.42935  -0.42875  -0.42678  -0.42619
 Alpha  occ. eigenvalues --   -0.41952  -0.41804  -0.41720  -0.41413  -0.41342
 Alpha  occ. eigenvalues --   -0.41232  -0.41124  -0.40938  -0.40925  -0.40543
 Alpha  occ. eigenvalues --   -0.40454  -0.40365  -0.40120  -0.40014  -0.39774
 Alpha  occ. eigenvalues --   -0.39657  -0.39601  -0.39291  -0.39162  -0.39077
 Alpha  occ. eigenvalues --   -0.38685  -0.38421  -0.38099  -0.37906  -0.37671
 Alpha  occ. eigenvalues --   -0.37203  -0.37160  -0.36988  -0.36804  -0.36762
 Alpha  occ. eigenvalues --   -0.36721  -0.36547  -0.36421  -0.36224  -0.36041
 Alpha  occ. eigenvalues --   -0.35963  -0.35714  -0.35411  -0.35240  -0.35037
 Alpha  occ. eigenvalues --   -0.35003  -0.34881  -0.34197  -0.33834  -0.33682
 Alpha  occ. eigenvalues --   -0.33598  -0.33014  -0.32983  -0.32692  -0.32437
 Alpha  occ. eigenvalues --   -0.32308  -0.32000  -0.31719  -0.31529  -0.31482
 Alpha  occ. eigenvalues --   -0.31369  -0.30692  -0.29984  -0.29877  -0.29505
 Alpha  occ. eigenvalues --   -0.28881  -0.28802  -0.28040  -0.27219  -0.25840
 Alpha  occ. eigenvalues --   -0.25687  -0.25349  -0.25283  -0.24916  -0.21190
 Alpha  occ. eigenvalues --   -0.19198
 Alpha virt. eigenvalues --   -0.11908  -0.05317  -0.03840  -0.02445  -0.00276
 Alpha virt. eigenvalues --   -0.00131   0.00091   0.01034   0.01396   0.02892
 Alpha virt. eigenvalues --    0.03556   0.04259   0.04917   0.05306   0.05659

 Mulliken charges:
               1
     1  Mg   0.978523
     2  C   -0.077628
     3  C   -0.088026
     4  C   -0.024670
     5  C   -0.051258
     6  N   -0.418357
     7  C    0.057277
     8  C   -0.091274
     9  C   -0.161499
    10  C    0.159308
    11  C    0.000781
    12  C    0.055367
    13  C    0.001711
    14  C    0.179754
    15  O   -0.263089
    16  O   -0.344381
    17  N   -0.471410
    18  C    0.176323
    19  C   -0.188537
    20  C   -0.067161
    21  C    0.110612
    22  C    0.048830
    23  C    0.039434
    24  O   -0.260298
    25  C   -0.030126
    26  N   -0.416910
    27  C    0.082717
    28  C   -0.110006
    29  C   -0.107765
    30  C    0.122445
    31  C    0.029146
    32  C   -0.041874
    33  C   -0.069636
    34  N   -0.485730
    35  C    0.108383
    36  C   -0.184439
    37  C   -0.030360
    38  C    0.172140
    39  C    0.077465
    40  C    0.108073
    41  O   -0.237165
    42  C   -0.033818
    43  C    0.295144
    44  O   -0.229937
    45  O   -0.396712
    46  C    0.131670
    47  C    0.185702
    48  C   -0.090420
    49  C   -0.238529
    50  C    0.019593
    51  C    0.037454
    52  C   -0.045067
    53  C   -0.018419
    54  C   -0.197418
    55  C   -0.035644
    56  C   -0.015349
    57  C   -0.014672
    58  C   -0.052487
    59  C   -0.233008
    60  C   -0.017518
    61  C    0.014544
    62  C   -0.059137
    63  C   -0.015411
    64  C   -0.278885
    65  C    0.015061
    66  C   -0.024625
    67  H    0.001532
    68  H    0.030518
    69  H    0.011038
    70  H    0.047040
    71  H    0.044043
    72  H    0.049254
    73  H    0.038404
    74  H    0.037833
    75  H    0.049791
    76  H    0.040052
    77  H    0.067366
    78  H    0.048446
    79  H    0.051441
    80  H    0.046277
    81  H    0.054929
    82  H    0.067208
    83  H    0.058121
    84  H    0.065382
    85  H    0.052083
    86  H    0.028582
    87  H    0.050973
    88  H    0.056027
    89  H    0.038693
    90  H    0.040368
    91  H    0.043097
    92  H    0.044264
    93  H    0.047728
    94  H    0.048214
    95  H    0.034625
    96  H    0.057659
    97  H    0.061153
    98  H    0.074730
    99  H    0.049557
   100  H    0.058866
   101  H    0.066178
   102  H    0.039268
   103  H    0.071957
   104  H    0.038532
   105  H    0.028199
   106  H    0.055290
   107  H    0.068639
   108  H    0.013060
   109  H    0.040297
   110  H    0.029413
   111  H    0.027905
   112  H    0.030229
   113  H    0.030339
   114  H    0.031552
   115  H    0.042888
   116  H    0.037617
   117  H    0.031839
   118  H    0.019941
   119  H    0.024663
   120  H    0.036476
   121  H    0.035284
   122  H    0.035404
   123  H    0.030214
   124  H    0.036622
   125  H    0.042200
   126  H    0.030118
   127  H    0.043311
   128  H    0.023537
   129  H    0.023311
   130  H    0.040735
   131  H    0.040221
   132  H    0.022835
   133  H    0.022710
   134  H    0.028098
   135  H    0.012949
   136  H    0.043990
   137  H    0.036692
   138  H    0.031087
   139  H    0.035631
   140  H    0.036669
 Sum of Mulliken charges =  -0.00000

 Dipole moment (field-independent basis, Debye):
    X=             -3.4634    Y=              2.2448    Z=              0.0112  Tot=              4.1273
 Quadrupole moment (field-independent basis, Debye-Ang):
   XX=           -351.8107   YY=           -427.9216   ZZ=           -416.4829
   XY=             13.1486   XZ=              3.7099   YZ=             -5.5612

 Normal termination of Gaussian 16 at Wed May  4 10:36:00 2022.
