 Gaussian 16, Revision A.03,
 Gaussian 16:  ES64L-G16RevA.03 25-Dec-2016

 --------------------------------
 #p wB97XD/Def2SVP td=(nstates=5)
 --------------------------------

 -----------------------------------------------------
 step_1651_chromophore_12 TDDFT with wB97XD functional
 -----------------------------------------------------
 Symbolic Z-matrix:
 Charge =  0 Multiplicity = 1

                         Standard orientation:
 ---------------------------------------------------------------------
 Center     Atomic      Atomic             Coordinates (Angstroms)
 Number     Number       Type             X           Y           Z
 ---------------------------------------------------------------------
      1         12           0        4.303806    0.473654    0.196785
      2          6           0        3.327453   -2.894115   -0.450829
      3          6           0        0.943144    1.348428    0.123926
      4          6           0        5.171776    3.769357    0.769393
      5          6           0        7.593669   -0.325978   -0.585279
      6          7           0        2.466396   -0.684355   -0.000903
      7          6           0        2.269408   -1.991831   -0.356690
      8          6           0        0.743959   -2.335683   -0.184328
      9          6           0        0.078736   -0.941666   -0.401604
     10          6           0        1.251050    0.033344   -0.110658
     11          6           0       -0.608002   -0.701069   -1.777770
     12          6           0        0.371327   -3.149654    1.152523
     13          6           0       -0.535914   -4.263133    0.908785
     14          6           0       -1.711225   -4.437671    1.888224
     15          8           0       -1.531225   -4.398635    3.086965
     16          8           0       -2.887970   -4.545398    1.224209
     17          7           0        3.177719    2.233447    0.567585
     18          6           0        1.839704    2.360313    0.537778
     19          6           0        1.472127    3.657221    0.914275
     20          6           0        2.678596    4.344522    1.298741
     21          6           0        3.741669    3.478683    0.844925
     22          6           0        0.016880    4.102112    0.885694
     23          6           0        2.815606    5.661002    2.008822
     24          8           0        3.934165    6.116099    2.291175
     25          6           0        1.577965    6.431640    2.512754
     26          7           0        6.103152    1.575409    0.081217
     27          6           0        6.243131    2.939326    0.407436
     28          6           0        7.697319    3.379505    0.293531
     29          6           0        8.503988    2.030086    0.223473
     30          6           0        7.324859    1.030307   -0.154645
     31          6           0        7.921751    4.318030   -0.881997
     32          6           0        9.316846    1.635384    1.437805
     33          6           0       10.459950    2.607430    1.784553
     34          7           0        5.303872   -1.203461   -0.509660
     35          6           0        6.622761   -1.350932   -0.817715
     36          6           0        6.815763   -2.748313   -1.189286
     37          6           0        5.550615   -3.342712   -0.992470
     38          6           0        4.662303   -2.390983   -0.606582
     39          6           0        8.110181   -3.437917   -1.562605
     40          6           0        4.874097   -4.603319   -1.065264
     41          8           0        5.258455   -5.751656   -1.333978
     42          6           0        3.399033   -4.342577   -0.760974
     43          6           0        2.538357   -4.737391   -1.890494
     44          8           0        2.569556   -4.248113   -2.997533
     45          8           0        1.759586   -5.846741   -1.484289
     46          6           0        1.127093   -6.605720   -2.529519
     47          6           0       -3.992507   -4.373007    2.175080
     48          6           0       -5.385530   -4.623763    1.620316
     49          6           0       -6.526537   -3.959267    1.965763
     50          6           0       -6.707996   -3.179233    3.230853
     51          6           0       -7.835245   -4.185914    1.098048
     52          6           0       -8.093936   -3.220836   -0.072594
     53          6           0       -9.546945   -2.524462   -0.149759
     54          6           0       -9.581076   -1.138193    0.496595
     55          6           0      -10.077999   -1.175014    2.042812
     56          6           0      -10.341432   -0.119995   -0.461373
     57          6           0       -9.429033    0.627417   -1.483344
     58          6           0       -9.526496    2.186142   -1.217877
     59          6           0       -8.164801    2.820494   -0.907005
     60          6           0       -7.869940    2.643765    0.637549
     61          6           0       -8.302900    4.328794   -1.381864
     62          6           0       -7.204965    4.780050   -2.347143
     63          6           0       -6.549807    6.153019   -1.990402
     64          6           0       -5.066314    5.961552   -1.759389
     65          6           0       -4.520003    6.990805   -0.770611
     66          6           0       -4.444586    5.905494   -3.178549
     67          1           0       -0.089105    1.668862   -0.031371
     68          1           0        5.402957    4.801081    1.042447
     69          1           0        8.588756   -0.769957   -0.656057
     70          1           0        0.455883   -2.950265   -1.037087
     71          1           0       -0.776052   -0.868555    0.270624
     72          1           0       -0.497707   -1.508312   -2.500764
     73          1           0       -0.184038    0.173129   -2.274203
     74          1           0       -1.667874   -0.462127   -1.694487
     75          1           0       -0.047023   -2.548316    1.960159
     76          1           0        1.311231   -3.495465    1.583170
     77          1           0       -0.015745   -5.214381    1.021793
     78          1           0       -0.958731   -4.225433   -0.095008
     79          1           0       -0.332196    3.620285   -0.027927
     80          1           0       -0.169687    5.175189    0.866796
     81          1           0       -0.597850    3.608512    1.638528
     82          1           0        0.994471    6.808524    1.672360
     83          1           0        1.937799    7.267644    3.112309
     84          1           0        0.972262    5.741620    3.101357
     85          1           0        7.977607    3.845679    1.237155
     86          1           0        9.237904    2.010876   -0.581667
     87          1           0        8.093744    5.303621   -0.448479
     88          1           0        7.070447    4.304450   -1.562942
     89          1           0        8.794297    4.105492   -1.499328
     90          1           0        9.989516    0.798575    1.251901
     91          1           0        8.642571    1.497495    2.283056
     92          1           0       10.564063    3.266360    0.921420
     93          1           0       11.366754    2.052066    2.024027
     94          1           0       10.135970    3.127456    2.686369
     95          1           0        8.938462   -2.729449   -1.536472
     96          1           0        8.063927   -3.885000   -2.556106
     97          1           0        8.263309   -4.336919   -0.966298
     98          1           0        3.171639   -4.890966    0.153852
     99          1           0        0.321514   -6.032868   -2.987571
    100          1           0        0.684694   -7.479593   -2.049851
    101          1           0        1.938703   -6.842753   -3.216677
    102          1           0       -3.860982   -3.311976    2.384229
    103          1           0       -3.880467   -4.842264    3.152616
    104          1           0       -5.223310   -5.206795    0.713522
    105          1           0       -7.719501   -2.777661    3.279495
    106          1           0       -6.104040   -2.282254    3.367200
    107          1           0       -6.626212   -3.919609    4.026079
    108          1           0       -8.701272   -4.085263    1.751375
    109          1           0       -7.908119   -5.245599    0.850319
    110          1           0       -7.921484   -3.552741   -1.096418
    111          1           0       -7.318379   -2.456644   -0.006550
    112          1           0      -10.270285   -3.162057    0.357043
    113          1           0       -9.861762   -2.486502   -1.193271
    114          1           0       -8.550445   -0.799716    0.602147
    115          1           0       -9.465886   -0.539986    2.682926
    116          1           0      -10.150558   -2.191793    2.428747
    117          1           0      -11.089160   -0.772064    2.084898
    118          1           0      -10.864182    0.647290    0.110263
    119          1           0      -11.185933   -0.599827   -0.955079
    120          1           0       -9.772860    0.353709   -2.480897
    121          1           0       -8.366451    0.397730   -1.403006
    122          1           0      -10.064841    2.564767   -0.348224
    123          1           0       -9.991511    2.628549   -2.097749
    124          1           0       -7.400187    2.313468   -1.496303
    125          1           0       -8.131635    3.650476    0.962554
    126          1           0       -6.851507    2.342245    0.881059
    127          1           0       -8.377931    1.846248    1.179551
    128          1           0       -8.448780    5.075541   -0.601468
    129          1           0       -9.202916    4.463612   -1.982149
    130          1           0       -7.540726    4.819553   -3.383044
    131          1           0       -6.427531    4.031917   -2.193907
    132          1           0       -7.080386    6.645567   -1.175395
    133          1           0       -6.594430    6.889628   -2.791787
    134          1           0       -4.719140    4.985304   -1.418818
    135          1           0       -3.525849    7.263726   -1.125246
    136          1           0       -4.390929    6.507602    0.197110
    137          1           0       -5.051573    7.942705   -0.784935
    138          1           0       -3.555405    5.278062   -3.244513
    139          1           0       -4.254095    6.940806   -3.461949
    140          1           0       -5.183551    5.428876   -3.823138
 ---------------------------------------------------------------------

 SCF Done:  E(RwB97XD) =  -3007.83902405     A.U. after   19 cycles

 Excitation energies and oscillator strengths:

 Excited State   1:      Singlet-A      1.5810 eV  784.23 nm  f=0.3897  <S**2>=0.000
     245 -> 248        0.16614
     246 -> 247        0.68704
     245 <- 248        0.11308
 This state for optimization and/or second-order correction.
 Total Energy, E(TD-HF/TD-DFT) =  -3007.78092434
 Copying the excited state density for this state as the 1-particle RhoCI density.

 Excited State   2:      Singlet-A      2.0847 eV  594.73 nm  f=0.1620  <S**2>=0.000
     245 -> 247        0.65540
     246 -> 248       -0.24296

 Excited State   3:      Singlet-A      3.1114 eV  398.48 nm  f=0.0025  <S**2>=0.000
     243 -> 247       -0.34066
     244 -> 247        0.59494

 Excited State   4:      Singlet-A      3.2543 eV  380.99 nm  f=0.0075  <S**2>=0.000
     243 -> 247        0.57830
     244 -> 247        0.33651
     246 -> 248        0.13349

 Excited State   5:      Singlet-A      3.4118 eV  363.39 nm  f=0.0043  <S**2>=0.000
     239 -> 247        0.14146
     240 -> 247        0.55655
     240 -> 249       -0.30524
     240 -> 250       -0.14640

 The electronic state is 1-A.
 Alpha  occ. eigenvalues --  -46.94591 -19.31501 -19.29785 -19.25851 -19.24947
 Alpha  occ. eigenvalues --  -19.23978 -19.23472 -14.47465 -14.46962 -14.43902
 Alpha  occ. eigenvalues --  -14.43657 -10.43688 -10.43032 -10.38896 -10.38876
 Alpha  occ. eigenvalues --  -10.36293 -10.35760 -10.35606 -10.35207 -10.35078
 Alpha  occ. eigenvalues --  -10.34998 -10.34373 -10.34345 -10.32961 -10.32838
 Alpha  occ. eigenvalues --  -10.32695 -10.32433 -10.32252 -10.32216 -10.32029
 Alpha  occ. eigenvalues --  -10.32003 -10.31921 -10.31835 -10.31828 -10.31708
 Alpha  occ. eigenvalues --  -10.31201 -10.30905 -10.30829 -10.30812 -10.30763
 Alpha  occ. eigenvalues --  -10.30498 -10.30426 -10.30345 -10.30319 -10.30283
 Alpha  occ. eigenvalues --  -10.30266 -10.30152 -10.30112 -10.29954 -10.29690
 Alpha  occ. eigenvalues --  -10.29663 -10.29597 -10.29533 -10.29416 -10.29366
 Alpha  occ. eigenvalues --  -10.29220 -10.29151 -10.29070 -10.29027 -10.28844
 Alpha  occ. eigenvalues --  -10.28734 -10.28645 -10.28569 -10.28439 -10.28322
 Alpha  occ. eigenvalues --  -10.28237  -3.20551  -1.94161  -1.93654  -1.93538
 Alpha  occ. eigenvalues --   -1.19848  -1.18076  -1.11321  -1.11161  -1.10968
 Alpha  occ. eigenvalues --   -1.10853  -1.06557  -1.05304  -1.04675  -1.03893
 Alpha  occ. eigenvalues --   -0.95892  -0.91943  -0.91754  -0.91184  -0.91130
 Alpha  occ. eigenvalues --   -0.90546  -0.90436  -0.89341  -0.89211  -0.88524
 Alpha  occ. eigenvalues --   -0.88049  -0.87361  -0.86340  -0.85846  -0.85119
 Alpha  occ. eigenvalues --   -0.84351  -0.83709  -0.82926  -0.82822  -0.82164
 Alpha  occ. eigenvalues --   -0.81553  -0.80279  -0.79531  -0.79261  -0.78217
 Alpha  occ. eigenvalues --   -0.77977  -0.77579  -0.77158  -0.76953  -0.75889
 Alpha  occ. eigenvalues --   -0.75249  -0.74827  -0.73529  -0.72043  -0.70863
 Alpha  occ. eigenvalues --   -0.70661  -0.70360  -0.69333  -0.68691  -0.67116
 Alpha  occ. eigenvalues --   -0.67087  -0.66857  -0.66621  -0.66197  -0.66140
 Alpha  occ. eigenvalues --   -0.66055  -0.65441  -0.64668  -0.64236  -0.62582
 Alpha  occ. eigenvalues --   -0.62078  -0.61904  -0.61406  -0.61285  -0.60826
 Alpha  occ. eigenvalues --   -0.59925  -0.59421  -0.58219  -0.57880  -0.57581
 Alpha  occ. eigenvalues --   -0.57129  -0.56720  -0.56440  -0.56431  -0.56293
 Alpha  occ. eigenvalues --   -0.55644  -0.55524  -0.55099  -0.55067  -0.54761
 Alpha  occ. eigenvalues --   -0.54701  -0.54502  -0.54060  -0.53957  -0.53692
 Alpha  occ. eigenvalues --   -0.53611  -0.53446  -0.53112  -0.53034  -0.52700
 Alpha  occ. eigenvalues --   -0.52275  -0.52179  -0.51887  -0.51671  -0.51641
 Alpha  occ. eigenvalues --   -0.51477  -0.51183  -0.50963  -0.50826  -0.50767
 Alpha  occ. eigenvalues --   -0.50524  -0.50180  -0.50134  -0.49921  -0.49836
 Alpha  occ. eigenvalues --   -0.49236  -0.49019  -0.48902  -0.48671  -0.48520
 Alpha  occ. eigenvalues --   -0.48454  -0.48350  -0.48257  -0.48143  -0.47775
 Alpha  occ. eigenvalues --   -0.47697  -0.47543  -0.47435  -0.47216  -0.46990
 Alpha  occ. eigenvalues --   -0.46853  -0.46767  -0.46380  -0.46260  -0.46189
 Alpha  occ. eigenvalues --   -0.45875  -0.45603  -0.45179  -0.44919  -0.44819
 Alpha  occ. eigenvalues --   -0.44440  -0.44307  -0.44111  -0.43967  -0.43860
 Alpha  occ. eigenvalues --   -0.43808  -0.43685  -0.43439  -0.43267  -0.43154
 Alpha  occ. eigenvalues --   -0.43025  -0.42733  -0.42417  -0.42337  -0.42090
 Alpha  occ. eigenvalues --   -0.42066  -0.41928  -0.41240  -0.40875  -0.40713
 Alpha  occ. eigenvalues --   -0.40592  -0.40041  -0.39930  -0.39721  -0.39358
 Alpha  occ. eigenvalues --   -0.39304  -0.39077  -0.38719  -0.38625  -0.38504
 Alpha  occ. eigenvalues --   -0.38209  -0.37661  -0.37090  -0.36923  -0.36334
 Alpha  occ. eigenvalues --   -0.35895  -0.35450  -0.34893  -0.33813  -0.33079
 Alpha  occ. eigenvalues --   -0.32668  -0.32056  -0.32041  -0.31341  -0.26148
 Alpha  occ. eigenvalues --   -0.23411
 Alpha virt. eigenvalues --   -0.07930   0.00266   0.02388   0.04066   0.05925
 Alpha virt. eigenvalues --    0.06576   0.06698   0.07768   0.08102   0.09311
 Alpha virt. eigenvalues --    0.10031   0.11055   0.11675   0.12096   0.12441

 Mulliken charges:
               1
     1  Mg   0.967580
     2  C   -0.091403
     3  C   -0.109059
     4  C   -0.037872
     5  C   -0.063266
     6  N   -0.390706
     7  C    0.031495
     8  C   -0.061259
     9  C   -0.136431
    10  C    0.153110
    11  C    0.008130
    12  C    0.062683
    13  C    0.018829
    14  C    0.171091
    15  O   -0.261927
    16  O   -0.344172
    17  N   -0.436555
    18  C    0.164293
    19  C   -0.179576
    20  C   -0.061565
    21  C    0.098451
    22  C    0.063234
    23  C    0.033939
    24  O   -0.256530
    25  C   -0.018069
    26  N   -0.384336
    27  C    0.068449
    28  C   -0.081777
    29  C   -0.079975
    30  C    0.105867
    31  C    0.035546
    32  C   -0.030172
    33  C   -0.054325
    34  N   -0.446872
    35  C    0.097731
    36  C   -0.179234
    37  C   -0.023528
    38  C    0.159450
    39  C    0.087596
    40  C    0.090029
    41  O   -0.225666
    42  C    0.010822
    43  C    0.269001
    44  O   -0.223193
    45  O   -0.394370
    46  C    0.145309
    47  C    0.201078
    48  C   -0.101917
    49  C   -0.223105
    50  C    0.037555
    51  C    0.057219
    52  C   -0.029515
    53  C   -0.003619
    54  C   -0.168362
    55  C   -0.021383
    56  C    0.002167
    57  C   -0.000700
    58  C   -0.032786
    59  C   -0.201519
    60  C   -0.003572
    61  C    0.025696
    62  C   -0.039102
    63  C    0.002821
    64  C   -0.248268
    65  C    0.025957
    66  C   -0.012649
    67  H   -0.004767
    68  H    0.027143
    69  H    0.005278
    70  H    0.027421
    71  H    0.034189
    72  H    0.044205
    73  H    0.031865
    74  H    0.032878
    75  H    0.043576
    76  H    0.031758
    77  H    0.062041
    78  H    0.041918
    79  H    0.043563
    80  H    0.040115
    81  H    0.049231
    82  H    0.061686
    83  H    0.056404
    84  H    0.059735
    85  H    0.041633
    86  H    0.017382
    87  H    0.046138
    88  H    0.050477
    89  H    0.032740
    90  H    0.031776
    91  H    0.035828
    92  H    0.036437
    93  H    0.043225
    94  H    0.042463
    95  H    0.029985
    96  H    0.054130
    97  H    0.057913
    98  H    0.068645
    99  H    0.045785
   100  H    0.055898
   101  H    0.062196
   102  H    0.031202
   103  H    0.067181
   104  H    0.036392
   105  H    0.017926
   106  H    0.051310
   107  H    0.063293
   108  H   -0.000372
   109  H    0.034708
   110  H    0.023785
   111  H    0.016391
   112  H    0.020761
   113  H    0.022515
   114  H    0.013349
   115  H    0.038210
   116  H    0.029485
   117  H    0.026272
   118  H    0.008719
   119  H    0.017176
   120  H    0.030676
   121  H    0.023670
   122  H    0.023073
   123  H    0.021339
   124  H    0.023505
   125  H    0.034679
   126  H    0.025270
   127  H    0.033122
   128  H    0.014173
   129  H    0.013913
   130  H    0.034345
   131  H    0.024129
   132  H    0.013648
   133  H    0.012074
   134  H    0.016206
   135  H    0.006526
   136  H    0.039031
   137  H    0.031037
   138  H    0.026778
   139  H    0.028489
   140  H    0.028334
 Sum of Mulliken charges =  -0.00000

 Dipole moment (field-independent basis, Debye):
    X=             -3.3200    Y=              1.9292    Z=             -0.0590  Tot=              3.8403
 Quadrupole moment (field-independent basis, Debye-Ang):
   XX=           -350.2169   YY=           -426.7849   ZZ=           -416.1661
   XY=             11.6263   XZ=              3.1849   YZ=             -5.0946

 Normal termination of Gaussian 16 at Wed May  4 10:59:50 2022.
