 Gaussian 16, Revision A.03,
 Gaussian 16:  ES64L-G16RevA.03 25-Dec-2016

 --------------------
 #p ZINDO=(nstates=5)
 --------------------

 ------------------------------
 step_1651_chromophore_12 ZINDO
 ------------------------------
 Symbolic Z-matrix:
 Charge =  0 Multiplicity = 1

                         Standard orientation:
 ---------------------------------------------------------------------
 Center     Atomic      Atomic             Coordinates (Angstroms)
 Number     Number       Type             X           Y           Z
 ---------------------------------------------------------------------
      1         12           0        4.303806    0.473654    0.196785
      2          6           0        3.327453   -2.894115   -0.450829
      3          6           0        0.943144    1.348428    0.123926
      4          6           0        5.171776    3.769357    0.769393
      5          6           0        7.593669   -0.325978   -0.585279
      6          7           0        2.466396   -0.684355   -0.000903
      7          6           0        2.269408   -1.991831   -0.356690
      8          6           0        0.743959   -2.335683   -0.184328
      9          6           0        0.078736   -0.941666   -0.401604
     10          6           0        1.251050    0.033344   -0.110658
     11          6           0       -0.608002   -0.701069   -1.777770
     12          6           0        0.371327   -3.149654    1.152523
     13          6           0       -0.535914   -4.263133    0.908785
     14          6           0       -1.711225   -4.437671    1.888224
     15          8           0       -1.531225   -4.398635    3.086965
     16          8           0       -2.887970   -4.545398    1.224209
     17          7           0        3.177719    2.233447    0.567585
     18          6           0        1.839704    2.360313    0.537778
     19          6           0        1.472127    3.657221    0.914275
     20          6           0        2.678596    4.344522    1.298741
     21          6           0        3.741669    3.478683    0.844925
     22          6           0        0.016880    4.102112    0.885694
     23          6           0        2.815606    5.661002    2.008822
     24          8           0        3.934165    6.116099    2.291175
     25          6           0        1.577965    6.431640    2.512754
     26          7           0        6.103152    1.575409    0.081217
     27          6           0        6.243131    2.939326    0.407436
     28          6           0        7.697319    3.379505    0.293531
     29          6           0        8.503988    2.030086    0.223473
     30          6           0        7.324859    1.030307   -0.154645
     31          6           0        7.921751    4.318030   -0.881997
     32          6           0        9.316846    1.635384    1.437805
     33          6           0       10.459950    2.607430    1.784553
     34          7           0        5.303872   -1.203461   -0.509660
     35          6           0        6.622761   -1.350932   -0.817715
     36          6           0        6.815763   -2.748313   -1.189286
     37          6           0        5.550615   -3.342712   -0.992470
     38          6           0        4.662303   -2.390983   -0.606582
     39          6           0        8.110181   -3.437917   -1.562605
     40          6           0        4.874097   -4.603319   -1.065264
     41          8           0        5.258455   -5.751656   -1.333978
     42          6           0        3.399033   -4.342577   -0.760974
     43          6           0        2.538357   -4.737391   -1.890494
     44          8           0        2.569556   -4.248113   -2.997533
     45          8           0        1.759586   -5.846741   -1.484289
     46          6           0        1.127093   -6.605720   -2.529519
     47          6           0       -3.992507   -4.373007    2.175080
     48          6           0       -5.385530   -4.623763    1.620316
     49          6           0       -6.526537   -3.959267    1.965763
     50          6           0       -6.707996   -3.179233    3.230853
     51          6           0       -7.835245   -4.185914    1.098048
     52          6           0       -8.093936   -3.220836   -0.072594
     53          6           0       -9.546945   -2.524462   -0.149759
     54          6           0       -9.581076   -1.138193    0.496595
     55          6           0      -10.077999   -1.175014    2.042812
     56          6           0      -10.341432   -0.119995   -0.461373
     57          6           0       -9.429033    0.627417   -1.483344
     58          6           0       -9.526496    2.186142   -1.217877
     59          6           0       -8.164801    2.820494   -0.907005
     60          6           0       -7.869940    2.643765    0.637549
     61          6           0       -8.302900    4.328794   -1.381864
     62          6           0       -7.204965    4.780050   -2.347143
     63          6           0       -6.549807    6.153019   -1.990402
     64          6           0       -5.066314    5.961552   -1.759389
     65          6           0       -4.520003    6.990805   -0.770611
     66          6           0       -4.444586    5.905494   -3.178549
     67          1           0       -0.089105    1.668862   -0.031371
     68          1           0        5.402957    4.801081    1.042447
     69          1           0        8.588756   -0.769957   -0.656057
     70          1           0        0.455883   -2.950265   -1.037087
     71          1           0       -0.776052   -0.868555    0.270624
     72          1           0       -0.497707   -1.508312   -2.500764
     73          1           0       -0.184038    0.173129   -2.274203
     74          1           0       -1.667874   -0.462127   -1.694487
     75          1           0       -0.047023   -2.548316    1.960159
     76          1           0        1.311231   -3.495465    1.583170
     77          1           0       -0.015745   -5.214381    1.021793
     78          1           0       -0.958731   -4.225433   -0.095008
     79          1           0       -0.332196    3.620285   -0.027927
     80          1           0       -0.169687    5.175189    0.866796
     81          1           0       -0.597850    3.608512    1.638528
     82          1           0        0.994471    6.808524    1.672360
     83          1           0        1.937799    7.267644    3.112309
     84          1           0        0.972262    5.741620    3.101357
     85          1           0        7.977607    3.845679    1.237155
     86          1           0        9.237904    2.010876   -0.581667
     87          1           0        8.093744    5.303621   -0.448479
     88          1           0        7.070447    4.304450   -1.562942
     89          1           0        8.794297    4.105492   -1.499328
     90          1           0        9.989516    0.798575    1.251901
     91          1           0        8.642571    1.497495    2.283056
     92          1           0       10.564063    3.266360    0.921420
     93          1           0       11.366754    2.052066    2.024027
     94          1           0       10.135970    3.127456    2.686369
     95          1           0        8.938462   -2.729449   -1.536472
     96          1           0        8.063927   -3.885000   -2.556106
     97          1           0        8.263309   -4.336919   -0.966298
     98          1           0        3.171639   -4.890966    0.153852
     99          1           0        0.321514   -6.032868   -2.987571
    100          1           0        0.684694   -7.479593   -2.049851
    101          1           0        1.938703   -6.842753   -3.216677
    102          1           0       -3.860982   -3.311976    2.384229
    103          1           0       -3.880467   -4.842264    3.152616
    104          1           0       -5.223310   -5.206795    0.713522
    105          1           0       -7.719501   -2.777661    3.279495
    106          1           0       -6.104040   -2.282254    3.367200
    107          1           0       -6.626212   -3.919609    4.026079
    108          1           0       -8.701272   -4.085263    1.751375
    109          1           0       -7.908119   -5.245599    0.850319
    110          1           0       -7.921484   -3.552741   -1.096418
    111          1           0       -7.318379   -2.456644   -0.006550
    112          1           0      -10.270285   -3.162057    0.357043
    113          1           0       -9.861762   -2.486502   -1.193271
    114          1           0       -8.550445   -0.799716    0.602147
    115          1           0       -9.465886   -0.539986    2.682926
    116          1           0      -10.150558   -2.191793    2.428747
    117          1           0      -11.089160   -0.772064    2.084898
    118          1           0      -10.864182    0.647290    0.110263
    119          1           0      -11.185933   -0.599827   -0.955079
    120          1           0       -9.772860    0.353709   -2.480897
    121          1           0       -8.366451    0.397730   -1.403006
    122          1           0      -10.064841    2.564767   -0.348224
    123          1           0       -9.991511    2.628549   -2.097749
    124          1           0       -7.400187    2.313468   -1.496303
    125          1           0       -8.131635    3.650476    0.962554
    126          1           0       -6.851507    2.342245    0.881059
    127          1           0       -8.377931    1.846248    1.179551
    128          1           0       -8.448780    5.075541   -0.601468
    129          1           0       -9.202916    4.463612   -1.982149
    130          1           0       -7.540726    4.819553   -3.383044
    131          1           0       -6.427531    4.031917   -2.193907
    132          1           0       -7.080386    6.645567   -1.175395
    133          1           0       -6.594430    6.889628   -2.791787
    134          1           0       -4.719140    4.985304   -1.418818
    135          1           0       -3.525849    7.263726   -1.125246
    136          1           0       -4.390929    6.507602    0.197110
    137          1           0       -5.051573    7.942705   -0.784935
    138          1           0       -3.555405    5.278062   -3.244513
    139          1           0       -4.254095    6.940806   -3.461949
    140          1           0       -5.183551    5.428876   -3.823138
 ---------------------------------------------------------------------

 SCF Done:  E(RZINDO/S) =  -474.163532578     A.U. after   19 cycles

 Excitation energies and oscillator strengths:

 Excited State   1:      Singlet-A      1.2015 eV 1031.88 nm  f=0.6313  <S**2>=0.000
     175 ->178        -0.17564
     176 ->177         0.66625
 This state for optimization and/or second-order correction.
 Total Energy, E(CIS/TDA) =  -474.119376942
 Copying the excited state density for this state as the 1-particle RhoCI density.

 Excited State   2:      Singlet-A      1.8957 eV  654.03 nm  f=0.1214  <S**2>=0.000
     175 ->177         0.58822
     176 ->178         0.36168

 Excited State   3:      Singlet-A      2.8916 eV  428.77 nm  f=0.0114  <S**2>=0.000
     167 ->179        -0.13708
     168 ->177         0.33329
     168 ->179        -0.39492
     168 ->180         0.16266
     168 ->182        -0.10371
     168 ->186         0.17294
     168 ->199         0.10980
     170 ->177         0.10690
     170 ->179        -0.11202
     171 ->177        -0.11779

 Excited State   4:      Singlet-A      2.9444 eV  421.09 nm  f=0.0071  <S**2>=0.000
     169 ->177         0.18620
     169 ->178        -0.13602
     169 ->179         0.16272
     169 ->180         0.27217
     169 ->186        -0.11872
     169 ->187        -0.14256
     171 ->177        -0.16667
     172 ->177        -0.11818
     174 ->177         0.46507

 Excited State   5:      Singlet-A      3.0057 eV  412.49 nm  f=0.0381  <S**2>=0.000
     169 ->177         0.19425
     169 ->178        -0.14323
     169 ->179         0.18922
     169 ->180         0.28558
     169 ->186        -0.12721
     169 ->187        -0.14661
     171 ->177         0.27582
     172 ->177         0.11109
     174 ->177        -0.33268
     176 ->178        -0.10960
     176 ->179         0.10822

 The electronic state is 1-A.
 Alpha  occ. eigenvalues --   -1.86162  -1.80427  -1.78197  -1.75393  -1.72557
 Alpha  occ. eigenvalues --   -1.70129  -1.65354  -1.60453  -1.60422  -1.56875
 Alpha  occ. eigenvalues --   -1.55620  -1.52173  -1.49123  -1.48686  -1.47101
 Alpha  occ. eigenvalues --   -1.45285  -1.43456  -1.39893  -1.38850  -1.37836
 Alpha  occ. eigenvalues --   -1.36499  -1.33305  -1.31955  -1.30981  -1.28390
 Alpha  occ. eigenvalues --   -1.25947  -1.24712  -1.21758  -1.20971  -1.18407
 Alpha  occ. eigenvalues --   -1.17467  -1.17367  -1.14675  -1.14388  -1.13450
 Alpha  occ. eigenvalues --   -1.12603  -1.10043  -1.08419  -1.04852  -1.03318
 Alpha  occ. eigenvalues --   -1.02212  -1.00957  -0.99000  -0.98074  -0.96713
 Alpha  occ. eigenvalues --   -0.95113  -0.93514  -0.93135  -0.92435  -0.91724
 Alpha  occ. eigenvalues --   -0.90920  -0.90891  -0.89507  -0.87618  -0.87166
 Alpha  occ. eigenvalues --   -0.85811  -0.84849  -0.83676  -0.82667  -0.81326
 Alpha  occ. eigenvalues --   -0.79720  -0.79024  -0.77569  -0.77099  -0.76947
 Alpha  occ. eigenvalues --   -0.75806  -0.75532  -0.74545  -0.74251  -0.73946
 Alpha  occ. eigenvalues --   -0.73211  -0.73138  -0.71754  -0.71207  -0.70460
 Alpha  occ. eigenvalues --   -0.69808  -0.69193  -0.68650  -0.68449  -0.67922
 Alpha  occ. eigenvalues --   -0.67401  -0.67224  -0.66959  -0.66248  -0.65927
 Alpha  occ. eigenvalues --   -0.65431  -0.64818  -0.64725  -0.64163  -0.64092
 Alpha  occ. eigenvalues --   -0.63867  -0.63037  -0.62257  -0.61908  -0.61542
 Alpha  occ. eigenvalues --   -0.61210  -0.61120  -0.60584  -0.60507  -0.60203
 Alpha  occ. eigenvalues --   -0.59908  -0.59581  -0.59382  -0.59024  -0.58404
 Alpha  occ. eigenvalues --   -0.57945  -0.57928  -0.57622  -0.57492  -0.56897
 Alpha  occ. eigenvalues --   -0.56453  -0.56095  -0.55552  -0.55391  -0.54572
 Alpha  occ. eigenvalues --   -0.54424  -0.53853  -0.53361  -0.52949  -0.52870
 Alpha  occ. eigenvalues --   -0.52677  -0.52006  -0.51891  -0.51365  -0.51188
 Alpha  occ. eigenvalues --   -0.50905  -0.50712  -0.50539  -0.50326  -0.50269
 Alpha  occ. eigenvalues --   -0.49972  -0.49888  -0.49306  -0.49177  -0.48921
 Alpha  occ. eigenvalues --   -0.48734  -0.48452  -0.48382  -0.48261  -0.48124
 Alpha  occ. eigenvalues --   -0.47913  -0.47449  -0.47207  -0.47126  -0.46464
 Alpha  occ. eigenvalues --   -0.46260  -0.46081  -0.45850  -0.45211  -0.44913
 Alpha  occ. eigenvalues --   -0.44833  -0.44710  -0.44608  -0.44339  -0.44000
 Alpha  occ. eigenvalues --   -0.43741  -0.43541  -0.42790  -0.42645  -0.42524
 Alpha  occ. eigenvalues --   -0.42471  -0.41639  -0.39913  -0.39472  -0.38613
 Alpha  occ. eigenvalues --   -0.38531  -0.37012  -0.35398  -0.34929  -0.34804
 Alpha  occ. eigenvalues --   -0.33229  -0.32757  -0.32415  -0.31666  -0.26861
 Alpha  occ. eigenvalues --   -0.22188
 Alpha virt. eigenvalues --   -0.09377  -0.01878  -0.00747   0.01161   0.02062
 Alpha virt. eigenvalues --    0.02193   0.02527   0.02859   0.03890   0.04497
 Alpha virt. eigenvalues --    0.06039   0.06884   0.07313   0.07930   0.08111

 Mulliken charges:
               1
     1  Mg   0.420965
     2  C   -0.051036
     3  C   -0.067804
     4  C   -0.050991
     5  C   -0.070828
     6  N   -0.297560
     7  C    0.140402
     8  C   -0.004931
     9  C   -0.001106
    10  C    0.113902
    11  C   -0.052756
    12  C   -0.010614
    13  C    0.010858
    14  C    0.468644
    15  O   -0.523208
    16  O   -0.257502
    17  N   -0.323067
    18  C    0.109310
    19  C   -0.013481
    20  C   -0.045279
    21  C    0.121616
    22  C   -0.050875
    23  C    0.319910
    24  O   -0.536374
    25  C   -0.029856
    26  N   -0.259194
    27  C    0.112848
    28  C    0.016232
    29  C    0.002404
    30  C    0.137513
    31  C   -0.044606
    32  C   -0.033492
    33  C   -0.062138
    34  N   -0.326373
    35  C    0.109732
    36  C    0.045072
    37  C   -0.041536
    38  C    0.132838
    39  C   -0.038880
    40  C    0.336927
    41  O   -0.532243
    42  C    0.070048
    43  C    0.495641
    44  O   -0.507070
    45  O   -0.289902
    46  C    0.076998
    47  C    0.095696
    48  C   -0.090911
    49  C   -0.002063
    50  C   -0.038995
    51  C   -0.020421
    52  C   -0.036403
    53  C   -0.032244
    54  C   -0.015788
    55  C   -0.064721
    56  C   -0.036719
    57  C   -0.038095
    58  C   -0.042677
    59  C   -0.012836
    60  C   -0.067488
    61  C   -0.042343
    62  C   -0.041820
    63  C   -0.030356
    64  C   -0.014616
    65  C   -0.058834
    66  C   -0.059875
    67  H    0.032658
    68  H    0.049766
    69  H    0.037783
    70  H    0.024734
    71  H    0.025000
    72  H    0.024663
    73  H    0.017451
    74  H    0.017421
    75  H    0.035484
    76  H    0.022678
    77  H    0.043086
    78  H    0.030105
    79  H    0.023873
    80  H    0.029145
    81  H    0.029743
    82  H    0.037520
    83  H    0.038394
    84  H    0.035329
    85  H    0.031793
    86  H    0.024492
    87  H    0.022418
    88  H    0.028043
    89  H    0.018101
    90  H    0.023049
    91  H    0.027495
    92  H    0.025540
    93  H    0.022271
    94  H    0.019909
    95  H    0.024888
    96  H    0.037237
    97  H    0.040598
    98  H    0.054109
    99  H    0.040337
   100  H    0.032335
   101  H    0.052550
   102  H    0.031563
   103  H    0.061188
   104  H    0.034260
   105  H    0.014517
   106  H    0.034640
   107  H    0.035745
   108  H    0.014753
   109  H    0.023934
   110  H    0.020809
   111  H    0.015286
   112  H    0.019142
   113  H    0.018953
   114  H    0.018371
   115  H    0.022317
   116  H    0.024247
   117  H    0.014925
   118  H    0.013365
   119  H    0.017991
   120  H    0.021690
   121  H    0.025999
   122  H    0.027305
   123  H    0.013580
   124  H    0.023517
   125  H    0.027572
   126  H    0.014662
   127  H    0.024043
   128  H    0.024458
   129  H    0.011728
   130  H    0.024131
   131  H    0.020141
   132  H    0.013626
   133  H    0.016152
   134  H    0.017938
   135  H    0.006347
   136  H    0.023567
   137  H    0.025806
   138  H    0.014579
   139  H    0.021423
   140  H    0.018083
 Sum of Mulliken charges =   0.00000

 Dipole moment (field-independent basis, Debye):
    X=             -3.7094    Y=              1.6688    Z=             -0.7092  Tot=              4.1288
 N-N= 4.438653893413D+03 E-N= 0.000000000000D+00  KE=-9.551291712776D+03
 Leave Link  601 at Wed May  4 11:12:45 2022, MaxMem=  6710886400 cpu:               0.8 elap:               0.0
 (Enter /sw/apps/gaussian-16.0/g16/l9999.exe)
 1\1\GINC-BP1-COMPUTE089\SP\RZINDO CIS\STO-3G\C55H74Mg1N4O6\OF15641\04-
 May-2022\0\\#p ZINDO=(nstates=5)\\step_1651_chromophore_12 ZINDO\\0,1\
 Mg,0,48.269,15.498,27.943\C,0,46.298,14.942,30.862\C,0,50.117,17.809,2
 9.762\C,0,50.191,16.133,25.142\C,0,45.888,13.855,26.018\N,0,48.235,16.
 12,30.033\C,0,47.32,15.876,31.022\C,0,47.882,16.442,32.378\C,0,48.8,17
 .601,31.881\C,0,49.073,17.198,30.407\C,0,48.249,19.048,32.042\C,0,48.5
 2,15.345,33.367\C,0,48.091,15.505,34.75\C,0,49.175,15.394,35.838\O,0,4

 Normal termination of Gaussian 16 at Wed May  4 11:12:45 2022.
