 Gaussian 16, Revision A.03,
 Gaussian 16:  ES64L-G16RevA.03 25-Dec-2016

 ------------------------------
 #p blyp/Def2SVP td=(nstates=5)
 ------------------------------

 --------------------------------------------------
 step_551_chromophore_26 TDDFT with blyp functional
 --------------------------------------------------
 Symbolic Z-matrix:
 Charge =  0 Multiplicity = 1

                         Standard orientation:
 ---------------------------------------------------------------------
 Center     Atomic      Atomic             Coordinates (Angstroms)
 Number     Number       Type             X           Y           Z
 ---------------------------------------------------------------------
      1         12           0       -4.023899    1.171656    0.574764
      2          6           0       -4.448807   -2.225836   -0.199814
      3          6           0       -2.220494    0.027433    3.513364
      4          6           0       -2.792379    4.208823    0.987657
      5          6           0       -4.874002    1.963306   -2.770465
      6          7           0       -3.271480   -0.937639    1.497664
      7          6           0       -3.823229   -2.070556    1.054224
      8          6           0       -3.491624   -3.236043    1.985434
      9          6           0       -2.861996   -2.516941    3.226053
     10          6           0       -2.698017   -1.027757    2.709889
     11          6           0       -3.490845   -2.691096    4.616754
     12          6           0       -2.513167   -4.196003    1.190078
     13          6           0       -1.402532   -3.656940    0.300924
     14          6           0       -0.164181   -4.516509   -0.061330
     15          8           0       -0.159913   -5.733902   -0.108268
     16          8           0        0.939815   -3.780550   -0.264081
     17          7           0       -2.824272    2.019282    2.020187
     18          6           0       -2.133304    1.345779    3.058332
     19          6           0       -1.417988    2.332420    3.853076
     20          6           0       -1.710299    3.536197    3.173266
     21          6           0       -2.512977    3.302144    2.028555
     22          6           0       -0.528057    2.002850    5.105847
     23          6           0       -1.116551    4.869077    3.713385
     24          8           0       -0.325525    4.794571    4.666180
     25          6           0       -1.363955    6.185148    3.091179
     26          7           0       -3.922874    2.861611   -0.696109
     27          6           0       -3.407735    4.003524   -0.253591
     28          6           0       -3.684356    5.091175   -1.288971
     29          6           0       -4.423449    4.382212   -2.459522
     30          6           0       -4.267455    2.954551   -2.000257
     31          6           0       -4.418541    6.371487   -0.652757
     32          6           0       -3.832569    4.727961   -3.874528
     33          6           0       -3.462281    6.196274   -4.107277
     34          7           0       -4.688775    0.151329   -1.070426
     35          6           0       -5.050088    0.595579   -2.302236
     36          6           0       -5.646303   -0.472232   -3.052930
     37          6           0       -5.454026   -1.621433   -2.260268
     38          6           0       -4.819540   -1.186326   -1.047305
     39          6           0       -6.236505   -0.467550   -4.480576
     40          6           0       -5.700529   -3.106184   -2.175492
     41          8           0       -6.255742   -3.837880   -3.023214
     42          6           0       -5.097794   -3.516735   -0.742237
     43          6           0       -6.202677   -3.989010    0.128686
     44          8           0       -6.052457   -5.022450    0.792367
     45          8           0       -7.316046   -3.116970    0.085258
     46          6           0       -8.431790   -3.449932    0.982007
     47          6           0        2.109249   -4.465568   -0.575251
     48          6           0        3.068681   -3.380422   -0.787237
     49          6           0        3.232780   -2.532539   -1.848841
     50          6           0        2.240709   -2.501766   -3.008994
     51          6           0        4.418105   -1.586822   -1.952416
     52          6           0        4.125307   -0.174803   -1.509197
     53          6           0        4.670467    0.985224   -2.418458
     54          6           0        5.505640    1.960997   -1.636298
     55          6           0        5.627372    3.232429   -2.465884
     56          6           0        6.858984    1.281336   -1.381197
     57          6           0        7.392783    1.316809    0.132148
     58          6           0        7.344179    0.078961    0.954092
     59          6           0        8.749468   -0.279141    1.576578
     60          6           0        8.656083   -1.186682    2.798149
     61          6           0        9.556990   -0.959100    0.470663
     62          6           0       10.745503   -0.095955    0.046786
     63          6           0       12.038412   -0.915304   -0.064575
     64          6           0       13.299658   -0.089923   -0.615691
     65          6           0       13.347799    0.171509   -2.179485
     66          6           0       14.529901   -0.699669    0.015043
     67          1           0       -1.801088   -0.307820    4.464107
     68          1           0       -2.591983    5.276574    1.102128
     69          1           0       -5.333966    2.257163   -3.715343
     70          1           0       -4.372390   -3.849090    2.179960
     71          1           0       -1.823744   -2.846633    3.268047
     72          1           0       -2.820675   -3.100510    5.372041
     73          1           0       -4.420379   -3.256820    4.681233
     74          1           0       -3.825430   -1.734959    5.020839
     75          1           0       -3.067451   -5.003091    0.711728
     76          1           0       -2.060794   -4.765101    2.002693
     77          1           0       -1.048235   -2.841318    0.932223
     78          1           0       -1.867380   -3.350531   -0.636701
     79          1           0       -0.647810    0.955287    5.383025
     80          1           0       -0.886258    2.488161    6.013137
     81          1           0        0.541631    2.210674    5.133034
     82          1           0       -2.443440    6.280353    2.982163
     83          1           0       -0.834928    6.197694    2.137990
     84          1           0       -0.988341    6.963390    3.756439
     85          1           0       -2.684524    5.327172   -1.655412
     86          1           0       -5.481472    4.639624   -2.419517
     87          1           0       -3.711663    7.182106   -0.475287
     88          1           0       -4.891743    5.981282    0.249552
     89          1           0       -5.185812    6.765584   -1.319102
     90          1           0       -4.730266    4.609815   -4.481340
     91          1           0       -3.020345    4.047019   -4.128419
     92          1           0       -3.954137    6.480877   -5.037757
     93          1           0       -2.377555    6.225493   -3.997872
     94          1           0       -3.901379    6.888848   -3.388561
     95          1           0       -7.301751   -0.694150   -4.425947
     96          1           0       -5.784925   -1.291509   -5.032164
     97          1           0       -6.193589    0.519356   -4.942775
     98          1           0       -4.398791   -4.342879   -0.867390
     99          1           0       -8.696846   -2.627838    1.647111
    100          1           0       -8.218103   -4.340244    1.573078
    101          1           0       -9.244621   -3.747620    0.319912
    102          1           0        2.067410   -5.136441   -1.432818
    103          1           0        2.509875   -4.929995    0.326224
    104          1           0        3.753554   -3.335365    0.060057
    105          1           0        2.587860   -3.209737   -3.761734
    106          1           0        2.113939   -1.481689   -3.373159
    107          1           0        1.253495   -2.783696   -2.642669
    108          1           0        4.589515   -1.428920   -3.016590
    109          1           0        5.235333   -1.974606   -1.343608
    110          1           0        4.736918   -0.248866   -0.609310
    111          1           0        3.080734   -0.079018   -1.212668
    112          1           0        3.917126    1.605303   -2.903968
    113          1           0        5.412466    0.563441   -3.094949
    114          1           0        5.085346    2.207688   -0.661042
    115          1           0        4.776394    3.892310   -2.295123
    116          1           0        5.592951    3.047500   -3.539427
    117          1           0        6.568674    3.733661   -2.238745
    118          1           0        7.658328    1.674291   -2.008266
    119          1           0        6.915192    0.227609   -1.654911
    120          1           0        6.755609    2.014804    0.675429
    121          1           0        8.332414    1.868907    0.130314
    122          1           0        7.150365   -0.796149    0.334431
    123          1           0        6.618534    0.142890    1.764145
    124          1           0        9.194517    0.620250    2.003217
    125          1           0        8.953249   -0.675108    3.712856
    126          1           0        9.238510   -2.108231    2.813392
    127          1           0        7.616935   -1.486710    2.930837
    128          1           0        8.969749   -1.137176   -0.430622
    129          1           0        9.989187   -1.924738    0.733238
    130          1           0       10.896520    0.776042    0.683555
    131          1           0       10.609630    0.264715   -0.972542
    132          1           0       11.936872   -1.747696   -0.760980
    133          1           0       12.149880   -1.271304    0.959606
    134          1           0       13.189180    0.902654   -0.177546
    135          1           0       13.292841    1.224525   -2.455508
    136          1           0       12.416522   -0.280285   -2.521839
    137          1           0       14.224806   -0.365617   -2.540624
    138          1           0       14.345124   -1.770268    0.107125
    139          1           0       14.610729   -0.289426    1.022330
    140          1           0       15.413265   -0.496977   -0.591829
 ---------------------------------------------------------------------

 SCF Done:  E(RB-LYP) =  -3007.34428904     A.U. after   20 cycles

 Excitation energies and oscillator strengths:

 Excited State   1:      Singlet-A      1.7574 eV  705.51 nm  f=0.0016  <S**2>=0.000
     244 -> 247        0.68384
     245 -> 247        0.17335
 This state for optimization and/or second-order correction.
 Total Energy, E(TD-HF/TD-DFT) =  -3007.27970663
 Copying the excited state density for this state as the 1-particle RhoCI density.

 Excited State   2:      Singlet-A      1.8384 eV  674.41 nm  f=0.2919  <S**2>=0.000
     245 -> 248       -0.20054
     246 -> 247        0.68810
     246 <- 247       -0.14407

 Excited State   3:      Singlet-A      1.9712 eV  628.99 nm  f=0.0118  <S**2>=0.000
     243 -> 247        0.61373
     245 -> 247       -0.32315

 Excited State   4:      Singlet-A      2.0115 eV  616.38 nm  f=0.0007  <S**2>=0.000
     242 -> 247        0.70198

 Excited State   5:      Singlet-A      2.1436 eV  578.39 nm  f=0.0663  <S**2>=0.000
     243 -> 247        0.33405
     244 -> 247       -0.13148
     245 -> 247        0.52989
     246 -> 248        0.27502

 The electronic state is 1-A.
 Alpha  occ. eigenvalues --  -46.28082 -18.83037 -18.82120 -18.77957 -18.76412
 Alpha  occ. eigenvalues --  -18.76127 -18.75003 -14.03135 -14.03076 -14.01574
 Alpha  occ. eigenvalues --  -14.01390 -10.05047 -10.03732 -10.00590  -9.99442
 Alpha  occ. eigenvalues --   -9.98155  -9.96828  -9.96540  -9.96527  -9.96513
 Alpha  occ. eigenvalues --   -9.96115  -9.95991  -9.95950  -9.95896  -9.94849
 Alpha  occ. eigenvalues --   -9.94743  -9.94270  -9.94168  -9.94044  -9.93901
 Alpha  occ. eigenvalues --   -9.93789  -9.93630  -9.93597  -9.93465  -9.93435
 Alpha  occ. eigenvalues --   -9.93341  -9.93165  -9.93085  -9.92875  -9.92646
 Alpha  occ. eigenvalues --   -9.92587  -9.92538  -9.92505  -9.92406  -9.92244
 Alpha  occ. eigenvalues --   -9.92203  -9.92066  -9.91729  -9.91559  -9.91497
 Alpha  occ. eigenvalues --   -9.91413  -9.91373  -9.91360  -9.91156  -9.91154
 Alpha  occ. eigenvalues --   -9.91043  -9.90995  -9.90951  -9.90910  -9.90801
 Alpha  occ. eigenvalues --   -9.90777  -9.90534  -9.90391  -9.90388  -9.90342
 Alpha  occ. eigenvalues --   -9.90188  -2.92739  -1.73122  -1.72681  -1.72413
 Alpha  occ. eigenvalues --   -0.99827  -0.96922  -0.90424  -0.90354  -0.90165
 Alpha  occ. eigenvalues --   -0.90082  -0.87699  -0.86878  -0.86431  -0.85800
 Alpha  occ. eigenvalues --   -0.75596  -0.74040  -0.73073  -0.72947  -0.72487
 Alpha  occ. eigenvalues --   -0.72124  -0.71927  -0.71039  -0.70737  -0.69835
 Alpha  occ. eigenvalues --   -0.69416  -0.68781  -0.68198  -0.67483  -0.67307
 Alpha  occ. eigenvalues --   -0.66957  -0.66211  -0.65362  -0.65215  -0.64870
 Alpha  occ. eigenvalues --   -0.64439  -0.62590  -0.62340  -0.61669  -0.61220
 Alpha  occ. eigenvalues --   -0.60334  -0.60192  -0.60074  -0.59563  -0.58611
 Alpha  occ. eigenvalues --   -0.58239  -0.57848  -0.57280  -0.55628  -0.55242
 Alpha  occ. eigenvalues --   -0.53808  -0.53069  -0.52303  -0.51841  -0.51538
 Alpha  occ. eigenvalues --   -0.51128  -0.50785  -0.50584  -0.50553  -0.49918
 Alpha  occ. eigenvalues --   -0.49817  -0.49703  -0.49655  -0.48085  -0.47020
 Alpha  occ. eigenvalues --   -0.46410  -0.46322  -0.45882  -0.45023  -0.44954
 Alpha  occ. eigenvalues --   -0.44172  -0.43888  -0.43495  -0.43422  -0.42790
 Alpha  occ. eigenvalues --   -0.42135  -0.41948  -0.41842  -0.41695  -0.41683
 Alpha  occ. eigenvalues --   -0.41314  -0.40965  -0.40788  -0.40412  -0.40077
 Alpha  occ. eigenvalues --   -0.40033  -0.39913  -0.39745  -0.39549  -0.39154
 Alpha  occ. eigenvalues --   -0.39034  -0.38832  -0.38759  -0.38309  -0.38021
 Alpha  occ. eigenvalues --   -0.37737  -0.37573  -0.37412  -0.37304  -0.37128
 Alpha  occ. eigenvalues --   -0.37095  -0.36891  -0.36731  -0.36553  -0.36500
 Alpha  occ. eigenvalues --   -0.36392  -0.36294  -0.35715  -0.35607  -0.35502
 Alpha  occ. eigenvalues --   -0.35286  -0.34946  -0.34926  -0.34691  -0.34606
 Alpha  occ. eigenvalues --   -0.34509  -0.34280  -0.34251  -0.33940  -0.33875
 Alpha  occ. eigenvalues --   -0.33760  -0.33719  -0.33601  -0.33454  -0.33307
 Alpha  occ. eigenvalues --   -0.33258  -0.33190  -0.32858  -0.32716  -0.32598
 Alpha  occ. eigenvalues --   -0.32488  -0.31970  -0.31844  -0.31617  -0.31519
 Alpha  occ. eigenvalues --   -0.31061  -0.30983  -0.30705  -0.30637  -0.30547
 Alpha  occ. eigenvalues --   -0.30296  -0.30210  -0.29993  -0.29903  -0.29780
 Alpha  occ. eigenvalues --   -0.29702  -0.29465  -0.29274  -0.28966  -0.28905
 Alpha  occ. eigenvalues --   -0.28431  -0.28276  -0.27929  -0.27746  -0.27596
 Alpha  occ. eigenvalues --   -0.27546  -0.27381  -0.27026  -0.26616  -0.26585
 Alpha  occ. eigenvalues --   -0.26263  -0.25896  -0.25632  -0.25322  -0.25172
 Alpha  occ. eigenvalues --   -0.24974  -0.24918  -0.24642  -0.23978  -0.23259
 Alpha  occ. eigenvalues --   -0.23192  -0.22799  -0.22138  -0.21698  -0.20738
 Alpha  occ. eigenvalues --   -0.20628  -0.19104  -0.18944  -0.18109  -0.17750
 Alpha  occ. eigenvalues --   -0.16127
 Alpha virt. eigenvalues --   -0.11710  -0.07018  -0.06249  -0.04651  -0.04461
 Alpha virt. eigenvalues --   -0.03914  -0.02255  -0.01681  -0.01225  -0.00441
 Alpha virt. eigenvalues --    0.01341   0.01621   0.02163   0.02583   0.02965

 Mulliken charges:
               1
     1  Mg   0.715047
     2  C   -0.024659
     3  C   -0.076426
     4  C   -0.069332
     5  C   -0.096772
     6  N   -0.138204
     7  C   -0.124326
     8  C    0.037448
     9  C    0.079148
    10  C   -0.060667
    11  C    0.131433
    12  C    0.024585
    13  C    0.142515
    14  C    0.073242
    15  O   -0.189186
    16  O   -0.216452
    17  N   -0.303608
    18  C    0.173272
    19  C   -0.112124
    20  C    0.005961
    21  C    0.180127
    22  C    0.195766
    23  C   -0.103458
    24  O   -0.185817
    25  C    0.180623
    26  N   -0.217844
    27  C   -0.042954
    28  C    0.047744
    29  C   -0.018995
    30  C    0.051515
    31  C    0.122094
    32  C    0.070175
    33  C    0.095119
    34  N   -0.256558
    35  C    0.104202
    36  C   -0.192619
    37  C    0.042213
    38  C    0.113676
    39  C    0.183148
    40  C    0.012471
    41  O   -0.149600
    42  C    0.075493
    43  C    0.142304
    44  O   -0.180501
    45  O   -0.296931
    46  C    0.205606
    47  C    0.358237
    48  C   -0.158677
    49  C   -0.159161
    50  C    0.140249
    51  C    0.149182
    52  C    0.072011
    53  C    0.132888
    54  C   -0.072613
    55  C    0.123076
    56  C    0.072082
    57  C    0.063041
    58  C    0.113791
    59  C   -0.088495
    60  C    0.106404
    61  C    0.150497
    62  C    0.049477
    63  C    0.034968
    64  C   -0.106950
    65  C    0.119808
    66  C    0.125112
    67  H   -0.041646
    68  H   -0.088473
    69  H   -0.051866
    70  H   -0.019084
    71  H   -0.030701
    72  H   -0.006475
    73  H   -0.009294
    74  H   -0.019972
    75  H   -0.005594
    76  H   -0.030838
    77  H   -0.003574
    78  H    0.016358
    79  H   -0.050383
    80  H   -0.008563
    81  H    0.010757
    82  H    0.007705
    83  H    0.023264
    84  H   -0.008945
    85  H   -0.034326
    86  H   -0.025758
    87  H    0.003074
    88  H    0.000345
    89  H   -0.004538
    90  H   -0.021496
    91  H   -0.011056
    92  H   -0.004937
    93  H    0.005105
    94  H   -0.026462
    95  H    0.000195
    96  H    0.018903
    97  H   -0.020154
    98  H   -0.000664
    99  H    0.022779
   100  H    0.017222
   101  H    0.021536
   102  H   -0.000090
   103  H   -0.024418
   104  H   -0.048529
   105  H    0.011148
   106  H   -0.008082
   107  H   -0.008276
   108  H   -0.039864
   109  H   -0.014509
   110  H   -0.030391
   111  H   -0.018527
   112  H   -0.038111
   113  H   -0.033439
   114  H   -0.030513
   115  H   -0.018400
   116  H   -0.025188
   117  H   -0.018850
   118  H   -0.043583
   119  H   -0.035867
   120  H   -0.040581
   121  H   -0.028820
   122  H   -0.026315
   123  H   -0.031395
   124  H   -0.031164
   125  H   -0.024375
   126  H   -0.021051
   127  H   -0.031119
   128  H   -0.035206
   129  H   -0.035164
   130  H   -0.025443
   131  H   -0.047978
   132  H   -0.025994
   133  H   -0.028201
   134  H   -0.046671
   135  H   -0.003813
   136  H   -0.021934
   137  H   -0.012864
   138  H   -0.016502
   139  H   -0.012854
   140  H   -0.022330
 Sum of Mulliken charges =  -0.00000

 Dipole moment (field-independent basis, Debye):
    X=             -1.9605    Y=              6.6406    Z=             -0.0674  Tot=              6.9242
 Quadrupole moment (field-independent basis, Debye-Ang):
   XX=           -382.0912   YY=           -432.0335   ZZ=           -408.1773
   XY=            -35.8852   XZ=            -17.9648   YZ=            -32.9639

 Normal termination of Gaussian 16 at Sat Apr 30 04:18:33 2022.
