 Gaussian 16, Revision A.03,
 Gaussian 16:  ES64L-G16RevA.03 25-Dec-2016

 -----------------------------------
 #p cam-b3lyp/Def2SVP td=(nstates=5)
 -----------------------------------

 -------------------------------------------------------
 step_551_chromophore_26 TDDFT with cam-b3lyp functional
 -------------------------------------------------------
 Symbolic Z-matrix:
 Charge =  0 Multiplicity = 1

                         Standard orientation:
 ---------------------------------------------------------------------
 Center     Atomic      Atomic             Coordinates (Angstroms)
 Number     Number       Type             X           Y           Z
 ---------------------------------------------------------------------
      1         12           0       -4.023899    1.171656    0.574764
      2          6           0       -4.448807   -2.225836   -0.199814
      3          6           0       -2.220494    0.027433    3.513364
      4          6           0       -2.792379    4.208823    0.987657
      5          6           0       -4.874002    1.963306   -2.770465
      6          7           0       -3.271480   -0.937639    1.497664
      7          6           0       -3.823229   -2.070556    1.054224
      8          6           0       -3.491624   -3.236043    1.985434
      9          6           0       -2.861996   -2.516941    3.226053
     10          6           0       -2.698017   -1.027757    2.709889
     11          6           0       -3.490845   -2.691096    4.616754
     12          6           0       -2.513167   -4.196003    1.190078
     13          6           0       -1.402532   -3.656940    0.300924
     14          6           0       -0.164181   -4.516509   -0.061330
     15          8           0       -0.159913   -5.733902   -0.108268
     16          8           0        0.939815   -3.780550   -0.264081
     17          7           0       -2.824272    2.019282    2.020187
     18          6           0       -2.133304    1.345779    3.058332
     19          6           0       -1.417988    2.332420    3.853076
     20          6           0       -1.710299    3.536197    3.173266
     21          6           0       -2.512977    3.302144    2.028555
     22          6           0       -0.528057    2.002850    5.105847
     23          6           0       -1.116551    4.869077    3.713385
     24          8           0       -0.325525    4.794571    4.666180
     25          6           0       -1.363955    6.185148    3.091179
     26          7           0       -3.922874    2.861611   -0.696109
     27          6           0       -3.407735    4.003524   -0.253591
     28          6           0       -3.684356    5.091175   -1.288971
     29          6           0       -4.423449    4.382212   -2.459522
     30          6           0       -4.267455    2.954551   -2.000257
     31          6           0       -4.418541    6.371487   -0.652757
     32          6           0       -3.832569    4.727961   -3.874528
     33          6           0       -3.462281    6.196274   -4.107277
     34          7           0       -4.688775    0.151329   -1.070426
     35          6           0       -5.050088    0.595579   -2.302236
     36          6           0       -5.646303   -0.472232   -3.052930
     37          6           0       -5.454026   -1.621433   -2.260268
     38          6           0       -4.819540   -1.186326   -1.047305
     39          6           0       -6.236505   -0.467550   -4.480576
     40          6           0       -5.700529   -3.106184   -2.175492
     41          8           0       -6.255742   -3.837880   -3.023214
     42          6           0       -5.097794   -3.516735   -0.742237
     43          6           0       -6.202677   -3.989010    0.128686
     44          8           0       -6.052457   -5.022450    0.792367
     45          8           0       -7.316046   -3.116970    0.085258
     46          6           0       -8.431790   -3.449932    0.982007
     47          6           0        2.109249   -4.465568   -0.575251
     48          6           0        3.068681   -3.380422   -0.787237
     49          6           0        3.232780   -2.532539   -1.848841
     50          6           0        2.240709   -2.501766   -3.008994
     51          6           0        4.418105   -1.586822   -1.952416
     52          6           0        4.125307   -0.174803   -1.509197
     53          6           0        4.670467    0.985224   -2.418458
     54          6           0        5.505640    1.960997   -1.636298
     55          6           0        5.627372    3.232429   -2.465884
     56          6           0        6.858984    1.281336   -1.381197
     57          6           0        7.392783    1.316809    0.132148
     58          6           0        7.344179    0.078961    0.954092
     59          6           0        8.749468   -0.279141    1.576578
     60          6           0        8.656083   -1.186682    2.798149
     61          6           0        9.556990   -0.959100    0.470663
     62          6           0       10.745503   -0.095955    0.046786
     63          6           0       12.038412   -0.915304   -0.064575
     64          6           0       13.299658   -0.089923   -0.615691
     65          6           0       13.347799    0.171509   -2.179485
     66          6           0       14.529901   -0.699669    0.015043
     67          1           0       -1.801088   -0.307820    4.464107
     68          1           0       -2.591983    5.276574    1.102128
     69          1           0       -5.333966    2.257163   -3.715343
     70          1           0       -4.372390   -3.849090    2.179960
     71          1           0       -1.823744   -2.846633    3.268047
     72          1           0       -2.820675   -3.100510    5.372041
     73          1           0       -4.420379   -3.256820    4.681233
     74          1           0       -3.825430   -1.734959    5.020839
     75          1           0       -3.067451   -5.003091    0.711728
     76          1           0       -2.060794   -4.765101    2.002693
     77          1           0       -1.048235   -2.841318    0.932223
     78          1           0       -1.867380   -3.350531   -0.636701
     79          1           0       -0.647810    0.955287    5.383025
     80          1           0       -0.886258    2.488161    6.013137
     81          1           0        0.541631    2.210674    5.133034
     82          1           0       -2.443440    6.280353    2.982163
     83          1           0       -0.834928    6.197694    2.137990
     84          1           0       -0.988341    6.963390    3.756439
     85          1           0       -2.684524    5.327172   -1.655412
     86          1           0       -5.481472    4.639624   -2.419517
     87          1           0       -3.711663    7.182106   -0.475287
     88          1           0       -4.891743    5.981282    0.249552
     89          1           0       -5.185812    6.765584   -1.319102
     90          1           0       -4.730266    4.609815   -4.481340
     91          1           0       -3.020345    4.047019   -4.128419
     92          1           0       -3.954137    6.480877   -5.037757
     93          1           0       -2.377555    6.225493   -3.997872
     94          1           0       -3.901379    6.888848   -3.388561
     95          1           0       -7.301751   -0.694150   -4.425947
     96          1           0       -5.784925   -1.291509   -5.032164
     97          1           0       -6.193589    0.519356   -4.942775
     98          1           0       -4.398791   -4.342879   -0.867390
     99          1           0       -8.696846   -2.627838    1.647111
    100          1           0       -8.218103   -4.340244    1.573078
    101          1           0       -9.244621   -3.747620    0.319912
    102          1           0        2.067410   -5.136441   -1.432818
    103          1           0        2.509875   -4.929995    0.326224
    104          1           0        3.753554   -3.335365    0.060057
    105          1           0        2.587860   -3.209737   -3.761734
    106          1           0        2.113939   -1.481689   -3.373159
    107          1           0        1.253495   -2.783696   -2.642669
    108          1           0        4.589515   -1.428920   -3.016590
    109          1           0        5.235333   -1.974606   -1.343608
    110          1           0        4.736918   -0.248866   -0.609310
    111          1           0        3.080734   -0.079018   -1.212668
    112          1           0        3.917126    1.605303   -2.903968
    113          1           0        5.412466    0.563441   -3.094949
    114          1           0        5.085346    2.207688   -0.661042
    115          1           0        4.776394    3.892310   -2.295123
    116          1           0        5.592951    3.047500   -3.539427
    117          1           0        6.568674    3.733661   -2.238745
    118          1           0        7.658328    1.674291   -2.008266
    119          1           0        6.915192    0.227609   -1.654911
    120          1           0        6.755609    2.014804    0.675429
    121          1           0        8.332414    1.868907    0.130314
    122          1           0        7.150365   -0.796149    0.334431
    123          1           0        6.618534    0.142890    1.764145
    124          1           0        9.194517    0.620250    2.003217
    125          1           0        8.953249   -0.675108    3.712856
    126          1           0        9.238510   -2.108231    2.813392
    127          1           0        7.616935   -1.486710    2.930837
    128          1           0        8.969749   -1.137176   -0.430622
    129          1           0        9.989187   -1.924738    0.733238
    130          1           0       10.896520    0.776042    0.683555
    131          1           0       10.609630    0.264715   -0.972542
    132          1           0       11.936872   -1.747696   -0.760980
    133          1           0       12.149880   -1.271304    0.959606
    134          1           0       13.189180    0.902654   -0.177546
    135          1           0       13.292841    1.224525   -2.455508
    136          1           0       12.416522   -0.280285   -2.521839
    137          1           0       14.224806   -0.365617   -2.540624
    138          1           0       14.345124   -1.770268    0.107125
    139          1           0       14.610729   -0.289426    1.022330
    140          1           0       15.413265   -0.496977   -0.591829
 ---------------------------------------------------------------------

 SCF Done:  E(RCAM-B3LYP) =  -3007.14470617     A.U. after   17 cycles

 Excitation energies and oscillator strengths:

 Excited State   1:      Singlet-A      1.7273 eV  717.81 nm  f=0.3581  <S**2>=0.000
     245 -> 248       -0.18756
     246 -> 247        0.68478
     245 <- 248       -0.11170
 This state for optimization and/or second-order correction.
 Total Energy, E(TD-HF/TD-DFT) =  -3007.08123044
 Copying the excited state density for this state as the 1-particle RhoCI density.

 Excited State   2:      Singlet-A      2.3355 eV  530.86 nm  f=0.0965  <S**2>=0.000
     245 -> 247        0.62632
     246 -> 248        0.31976

 Excited State   3:      Singlet-A      3.4054 eV  364.08 nm  f=0.0022  <S**2>=0.000
     241 -> 251        0.10602
     242 -> 247        0.13374
     243 -> 247        0.64640

 Excited State   4:      Singlet-A      3.4414 eV  360.27 nm  f=0.0129  <S**2>=0.000
     240 -> 247       -0.37442
     240 -> 249       -0.15679
     240 -> 250        0.17536
     240 -> 251       -0.10213
     242 -> 247        0.46059
     243 -> 247       -0.10058
     246 -> 248       -0.16357

 Excited State   5:      Singlet-A      3.5466 eV  349.58 nm  f=0.0038  <S**2>=0.000
     239 -> 247       -0.15291
     240 -> 247        0.38877
     240 -> 249        0.15184
     240 -> 250       -0.16660
     240 -> 251        0.10718
     241 -> 247        0.11015
     242 -> 247        0.42333
     243 -> 247       -0.14110

 The electronic state is 1-A.
 Alpha  occ. eigenvalues --  -46.89743 -19.26067 -19.24935 -19.21210 -19.19673
 Alpha  occ. eigenvalues --  -19.19029 -19.18219 -14.42166 -14.41718 -14.40104
 Alpha  occ. eigenvalues --  -14.39783 -10.40752 -10.38925 -10.36129 -10.34631
 Alpha  occ. eigenvalues --  -10.32181 -10.31092 -10.31063 -10.30941 -10.30705
 Alpha  occ. eigenvalues --  -10.30504 -10.30414 -10.30364 -10.30170 -10.29302
 Alpha  occ. eigenvalues --  -10.29057 -10.28743 -10.28370 -10.28265 -10.28012
 Alpha  occ. eigenvalues --  -10.27981 -10.27848 -10.27841 -10.27672 -10.27297
 Alpha  occ. eigenvalues --  -10.27246 -10.27004 -10.26883 -10.26808 -10.26683
 Alpha  occ. eigenvalues --  -10.26456 -10.26359 -10.26302 -10.26287 -10.26259
 Alpha  occ. eigenvalues --  -10.26155 -10.26128 -10.25525 -10.25313 -10.25303
 Alpha  occ. eigenvalues --  -10.25181 -10.25009 -10.24998 -10.24766 -10.24761
 Alpha  occ. eigenvalues --  -10.24715 -10.24611 -10.24588 -10.24569 -10.24428
 Alpha  occ. eigenvalues --  -10.24316 -10.24243 -10.24162 -10.23979 -10.23958
 Alpha  occ. eigenvalues --  -10.23764  -3.18298  -1.93155  -1.92789  -1.92566
 Alpha  occ. eigenvalues --   -1.18267  -1.15513  -1.08727  -1.08514  -1.08416
 Alpha  occ. eigenvalues --   -1.08051  -1.05425  -1.04621  -1.04076  -1.03410
 Alpha  occ. eigenvalues --   -0.92802  -0.90886  -0.89863  -0.89658  -0.89218
 Alpha  occ. eigenvalues --   -0.88844  -0.88628  -0.87626  -0.87329  -0.86301
 Alpha  occ. eigenvalues --   -0.85702  -0.85379  -0.84510  -0.83618  -0.83469
 Alpha  occ. eigenvalues --   -0.83080  -0.82388  -0.81321  -0.81012  -0.80808
 Alpha  occ. eigenvalues --   -0.80221  -0.78108  -0.77965  -0.77359  -0.76714
 Alpha  occ. eigenvalues --   -0.75649  -0.75558  -0.75371  -0.74840  -0.73827
 Alpha  occ. eigenvalues --   -0.73276  -0.72844  -0.72232  -0.70378  -0.69910
 Alpha  occ. eigenvalues --   -0.68407  -0.67545  -0.66680  -0.66042  -0.65559
 Alpha  occ. eigenvalues --   -0.65163  -0.64898  -0.64789  -0.64733  -0.63866
 Alpha  occ. eigenvalues --   -0.63777  -0.63609  -0.63513  -0.61969  -0.60760
 Alpha  occ. eigenvalues --   -0.59981  -0.59939  -0.59347  -0.58519  -0.58395
 Alpha  occ. eigenvalues --   -0.57486  -0.57016  -0.56933  -0.56728  -0.55977
 Alpha  occ. eigenvalues --   -0.55362  -0.55088  -0.54824  -0.54774  -0.54611
 Alpha  occ. eigenvalues --   -0.54412  -0.53614  -0.53569  -0.53409  -0.52938
 Alpha  occ. eigenvalues --   -0.52887  -0.52464  -0.52424  -0.52172  -0.51868
 Alpha  occ. eigenvalues --   -0.51568  -0.51478  -0.51168  -0.50682  -0.50298
 Alpha  occ. eigenvalues --   -0.50137  -0.50022  -0.49795  -0.49580  -0.49467
 Alpha  occ. eigenvalues --   -0.49229  -0.49166  -0.48971  -0.48859  -0.48766
 Alpha  occ. eigenvalues --   -0.48512  -0.48490  -0.48053  -0.47884  -0.47579
 Alpha  occ. eigenvalues --   -0.47421  -0.47278  -0.46816  -0.46644  -0.46532
 Alpha  occ. eigenvalues --   -0.46443  -0.46246  -0.46136  -0.45819  -0.45633
 Alpha  occ. eigenvalues --   -0.45574  -0.45423  -0.45392  -0.45105  -0.45059
 Alpha  occ. eigenvalues --   -0.44892  -0.44838  -0.44654  -0.44448  -0.44300
 Alpha  occ. eigenvalues --   -0.44036  -0.43471  -0.43408  -0.43340  -0.43102
 Alpha  occ. eigenvalues --   -0.42841  -0.42607  -0.42488  -0.42332  -0.41947
 Alpha  occ. eigenvalues --   -0.41756  -0.41410  -0.41321  -0.41299  -0.41205
 Alpha  occ. eigenvalues --   -0.41085  -0.40727  -0.40591  -0.40022  -0.39948
 Alpha  occ. eigenvalues --   -0.39620  -0.39266  -0.39060  -0.38551  -0.38514
 Alpha  occ. eigenvalues --   -0.38391  -0.38297  -0.38169  -0.37430  -0.37381
 Alpha  occ. eigenvalues --   -0.37332  -0.36750  -0.36549  -0.36282  -0.36192
 Alpha  occ. eigenvalues --   -0.35953  -0.35566  -0.35428  -0.35127  -0.33929
 Alpha  occ. eigenvalues --   -0.33605  -0.33586  -0.33355  -0.31531  -0.30811
 Alpha  occ. eigenvalues --   -0.30733  -0.30052  -0.29953  -0.28834  -0.24566
 Alpha  occ. eigenvalues --   -0.21430
 Alpha virt. eigenvalues --   -0.08767  -0.02001   0.00023   0.00919   0.02484
 Alpha virt. eigenvalues --    0.03717   0.05290   0.06054   0.06123   0.06498
 Alpha virt. eigenvalues --    0.08116   0.08164   0.08786   0.08921   0.09360

 Mulliken charges:
               1
     1  Mg   0.845934
     2  C   -0.047934
     3  C   -0.087222
     4  C   -0.097813
     5  C   -0.099257
     6  N   -0.200591
     7  C   -0.086599
     8  C   -0.010667
     9  C    0.015560
    10  C   -0.036362
    11  C    0.066892
    12  C   -0.022225
    13  C    0.073772
    14  C    0.155155
    15  O   -0.230290
    16  O   -0.278684
    17  N   -0.394105
    18  C    0.177464
    19  C   -0.118137
    20  C   -0.067219
    21  C    0.216203
    22  C    0.146826
    23  C   -0.020884
    24  O   -0.226750
    25  C    0.091215
    26  N   -0.296498
    27  C   -0.008037
    28  C   -0.018369
    29  C   -0.071837
    30  C    0.073962
    31  C    0.061125
    32  C    0.014476
    33  C    0.031206
    34  N   -0.348619
    35  C    0.108093
    36  C   -0.195906
    37  C   -0.027099
    38  C    0.149241
    39  C    0.135543
    40  C    0.110947
    41  O   -0.188179
    42  C   -0.003220
    43  C    0.233749
    44  O   -0.221529
    45  O   -0.359743
    46  C    0.167845
    47  C    0.315135
    48  C   -0.174522
    49  C   -0.176804
    50  C    0.079397
    51  C    0.090903
    52  C    0.018863
    53  C    0.070503
    54  C   -0.124446
    55  C    0.062111
    56  C    0.019525
    57  C    0.008444
    58  C    0.060347
    59  C   -0.145603
    60  C    0.050235
    61  C    0.091643
    62  C    0.003881
    63  C   -0.018898
    64  C   -0.162078
    65  C    0.059937
    66  C    0.063023
    67  H   -0.005001
    68  H   -0.052148
    69  H   -0.018353
    70  H    0.017831
    71  H    0.005351
    72  H    0.019029
    73  H    0.017337
    74  H    0.006262
    75  H    0.024491
    76  H    0.001655
    77  H    0.026087
    78  H    0.043742
    79  H   -0.024368
    80  H    0.019905
    81  H    0.039621
    82  H    0.033610
    83  H    0.050324
    84  H    0.027999
    85  H    0.001985
    86  H    0.009303
    87  H    0.026264
    88  H    0.025720
    89  H    0.019265
    90  H    0.006869
    91  H    0.019200
    92  H    0.020001
    93  H    0.027597
    94  H   -0.003076
    95  H    0.026406
    96  H    0.043363
    97  H    0.003554
    98  H    0.041985
    99  H    0.043814
   100  H    0.043722
   101  H    0.043715
   102  H    0.029672
   103  H    0.006547
   104  H   -0.016789
   105  H    0.035379
   106  H    0.015505
   107  H    0.016939
   108  H   -0.008901
   109  H    0.012075
   110  H   -0.004193
   111  H    0.012550
   112  H   -0.006817
   113  H   -0.004565
   114  H    0.001434
   115  H    0.006999
   116  H   -0.000008
   117  H    0.005906
   118  H   -0.012815
   119  H   -0.011892
   120  H   -0.010785
   121  H   -0.000157
   122  H   -0.003680
   123  H   -0.001530
   124  H    0.000690
   125  H    0.000433
   126  H    0.003537
   127  H   -0.006481
   128  H   -0.006901
   129  H   -0.004885
   130  H    0.000627
   131  H   -0.022322
   132  H    0.000738
   133  H   -0.000769
   134  H   -0.014521
   135  H    0.020301
   136  H    0.000815
   137  H    0.010812
   138  H    0.006917
   139  H    0.011389
   140  H    0.002661
 Sum of Mulliken charges =  -0.00000

 Dipole moment (field-independent basis, Debye):
    X=             -2.0443    Y=              6.9191    Z=              0.4126  Tot=              7.2266
 Quadrupole moment (field-independent basis, Debye-Ang):
   XX=           -381.4349   YY=           -429.8896   ZZ=           -406.0507
   XY=            -36.5587   XZ=            -19.2520   YZ=            -33.7520

 Normal termination of Gaussian 16 at Sat Apr 30 03:17:28 2022.
