 Gaussian 16, Revision A.03,
 Gaussian 16:  ES64L-G16RevA.03 25-Dec-2016

 ---------------------------------
 #p PBE1PBE/Def2SVP td=(nstates=5)
 ---------------------------------

 -----------------------------------------------------
 step_551_chromophore_26 TDDFT with PBE1PBE functional
 -----------------------------------------------------
 Symbolic Z-matrix:
 Charge =  0 Multiplicity = 1

                         Standard orientation:
 ---------------------------------------------------------------------
 Center     Atomic      Atomic             Coordinates (Angstroms)
 Number     Number       Type             X           Y           Z
 ---------------------------------------------------------------------
      1         12           0       -4.023899    1.171656    0.574764
      2          6           0       -4.448807   -2.225836   -0.199814
      3          6           0       -2.220494    0.027433    3.513364
      4          6           0       -2.792379    4.208823    0.987657
      5          6           0       -4.874002    1.963306   -2.770465
      6          7           0       -3.271480   -0.937639    1.497664
      7          6           0       -3.823229   -2.070556    1.054224
      8          6           0       -3.491624   -3.236043    1.985434
      9          6           0       -2.861996   -2.516941    3.226053
     10          6           0       -2.698017   -1.027757    2.709889
     11          6           0       -3.490845   -2.691096    4.616754
     12          6           0       -2.513167   -4.196003    1.190078
     13          6           0       -1.402532   -3.656940    0.300924
     14          6           0       -0.164181   -4.516509   -0.061330
     15          8           0       -0.159913   -5.733902   -0.108268
     16          8           0        0.939815   -3.780550   -0.264081
     17          7           0       -2.824272    2.019282    2.020187
     18          6           0       -2.133304    1.345779    3.058332
     19          6           0       -1.417988    2.332420    3.853076
     20          6           0       -1.710299    3.536197    3.173266
     21          6           0       -2.512977    3.302144    2.028555
     22          6           0       -0.528057    2.002850    5.105847
     23          6           0       -1.116551    4.869077    3.713385
     24          8           0       -0.325525    4.794571    4.666180
     25          6           0       -1.363955    6.185148    3.091179
     26          7           0       -3.922874    2.861611   -0.696109
     27          6           0       -3.407735    4.003524   -0.253591
     28          6           0       -3.684356    5.091175   -1.288971
     29          6           0       -4.423449    4.382212   -2.459522
     30          6           0       -4.267455    2.954551   -2.000257
     31          6           0       -4.418541    6.371487   -0.652757
     32          6           0       -3.832569    4.727961   -3.874528
     33          6           0       -3.462281    6.196274   -4.107277
     34          7           0       -4.688775    0.151329   -1.070426
     35          6           0       -5.050088    0.595579   -2.302236
     36          6           0       -5.646303   -0.472232   -3.052930
     37          6           0       -5.454026   -1.621433   -2.260268
     38          6           0       -4.819540   -1.186326   -1.047305
     39          6           0       -6.236505   -0.467550   -4.480576
     40          6           0       -5.700529   -3.106184   -2.175492
     41          8           0       -6.255742   -3.837880   -3.023214
     42          6           0       -5.097794   -3.516735   -0.742237
     43          6           0       -6.202677   -3.989010    0.128686
     44          8           0       -6.052457   -5.022450    0.792367
     45          8           0       -7.316046   -3.116970    0.085258
     46          6           0       -8.431790   -3.449932    0.982007
     47          6           0        2.109249   -4.465568   -0.575251
     48          6           0        3.068681   -3.380422   -0.787237
     49          6           0        3.232780   -2.532539   -1.848841
     50          6           0        2.240709   -2.501766   -3.008994
     51          6           0        4.418105   -1.586822   -1.952416
     52          6           0        4.125307   -0.174803   -1.509197
     53          6           0        4.670467    0.985224   -2.418458
     54          6           0        5.505640    1.960997   -1.636298
     55          6           0        5.627372    3.232429   -2.465884
     56          6           0        6.858984    1.281336   -1.381197
     57          6           0        7.392783    1.316809    0.132148
     58          6           0        7.344179    0.078961    0.954092
     59          6           0        8.749468   -0.279141    1.576578
     60          6           0        8.656083   -1.186682    2.798149
     61          6           0        9.556990   -0.959100    0.470663
     62          6           0       10.745503   -0.095955    0.046786
     63          6           0       12.038412   -0.915304   -0.064575
     64          6           0       13.299658   -0.089923   -0.615691
     65          6           0       13.347799    0.171509   -2.179485
     66          6           0       14.529901   -0.699669    0.015043
     67          1           0       -1.801088   -0.307820    4.464107
     68          1           0       -2.591983    5.276574    1.102128
     69          1           0       -5.333966    2.257163   -3.715343
     70          1           0       -4.372390   -3.849090    2.179960
     71          1           0       -1.823744   -2.846633    3.268047
     72          1           0       -2.820675   -3.100510    5.372041
     73          1           0       -4.420379   -3.256820    4.681233
     74          1           0       -3.825430   -1.734959    5.020839
     75          1           0       -3.067451   -5.003091    0.711728
     76          1           0       -2.060794   -4.765101    2.002693
     77          1           0       -1.048235   -2.841318    0.932223
     78          1           0       -1.867380   -3.350531   -0.636701
     79          1           0       -0.647810    0.955287    5.383025
     80          1           0       -0.886258    2.488161    6.013137
     81          1           0        0.541631    2.210674    5.133034
     82          1           0       -2.443440    6.280353    2.982163
     83          1           0       -0.834928    6.197694    2.137990
     84          1           0       -0.988341    6.963390    3.756439
     85          1           0       -2.684524    5.327172   -1.655412
     86          1           0       -5.481472    4.639624   -2.419517
     87          1           0       -3.711663    7.182106   -0.475287
     88          1           0       -4.891743    5.981282    0.249552
     89          1           0       -5.185812    6.765584   -1.319102
     90          1           0       -4.730266    4.609815   -4.481340
     91          1           0       -3.020345    4.047019   -4.128419
     92          1           0       -3.954137    6.480877   -5.037757
     93          1           0       -2.377555    6.225493   -3.997872
     94          1           0       -3.901379    6.888848   -3.388561
     95          1           0       -7.301751   -0.694150   -4.425947
     96          1           0       -5.784925   -1.291509   -5.032164
     97          1           0       -6.193589    0.519356   -4.942775
     98          1           0       -4.398791   -4.342879   -0.867390
     99          1           0       -8.696846   -2.627838    1.647111
    100          1           0       -8.218103   -4.340244    1.573078
    101          1           0       -9.244621   -3.747620    0.319912
    102          1           0        2.067410   -5.136441   -1.432818
    103          1           0        2.509875   -4.929995    0.326224
    104          1           0        3.753554   -3.335365    0.060057
    105          1           0        2.587860   -3.209737   -3.761734
    106          1           0        2.113939   -1.481689   -3.373159
    107          1           0        1.253495   -2.783696   -2.642669
    108          1           0        4.589515   -1.428920   -3.016590
    109          1           0        5.235333   -1.974606   -1.343608
    110          1           0        4.736918   -0.248866   -0.609310
    111          1           0        3.080734   -0.079018   -1.212668
    112          1           0        3.917126    1.605303   -2.903968
    113          1           0        5.412466    0.563441   -3.094949
    114          1           0        5.085346    2.207688   -0.661042
    115          1           0        4.776394    3.892310   -2.295123
    116          1           0        5.592951    3.047500   -3.539427
    117          1           0        6.568674    3.733661   -2.238745
    118          1           0        7.658328    1.674291   -2.008266
    119          1           0        6.915192    0.227609   -1.654911
    120          1           0        6.755609    2.014804    0.675429
    121          1           0        8.332414    1.868907    0.130314
    122          1           0        7.150365   -0.796149    0.334431
    123          1           0        6.618534    0.142890    1.764145
    124          1           0        9.194517    0.620250    2.003217
    125          1           0        8.953249   -0.675108    3.712856
    126          1           0        9.238510   -2.108231    2.813392
    127          1           0        7.616935   -1.486710    2.930837
    128          1           0        8.969749   -1.137176   -0.430622
    129          1           0        9.989187   -1.924738    0.733238
    130          1           0       10.896520    0.776042    0.683555
    131          1           0       10.609630    0.264715   -0.972542
    132          1           0       11.936872   -1.747696   -0.760980
    133          1           0       12.149880   -1.271304    0.959606
    134          1           0       13.189180    0.902654   -0.177546
    135          1           0       13.292841    1.224525   -2.455508
    136          1           0       12.416522   -0.280285   -2.521839
    137          1           0       14.224806   -0.365617   -2.540624
    138          1           0       14.345124   -1.770268    0.107125
    139          1           0       14.610729   -0.289426    1.022330
    140          1           0       15.413265   -0.496977   -0.591829
 ---------------------------------------------------------------------

 SCF Done:  E(RPBE1PBE) =  -3005.33346223     A.U. after   15 cycles

 Excitation energies and oscillator strengths:

 Excited State   1:      Singlet-A      1.8848 eV  657.81 nm  f=0.3491  <S**2>=0.000
     245 -> 248       -0.18168
     246 -> 247        0.69154
     246 <- 247       -0.10248
 This state for optimization and/or second-order correction.
 Total Energy, E(TD-HF/TD-DFT) =  -3005.26419742
 Copying the excited state density for this state as the 1-particle RhoCI density.

 Excited State   2:      Singlet-A      2.3385 eV  530.18 nm  f=0.0976  <S**2>=0.000
     245 -> 247        0.63818
     246 -> 248        0.29495

 Excited State   3:      Singlet-A      2.9112 eV  425.88 nm  f=0.0016  <S**2>=0.000
     243 -> 247        0.68402
     243 -> 249        0.10358

 Excited State   4:      Singlet-A      2.9927 eV  414.28 nm  f=0.0001  <S**2>=0.000
     240 -> 247        0.18259
     241 -> 247        0.28945
     241 -> 249       -0.10699
     242 -> 247        0.57919
     242 -> 249       -0.11156

 Excited State   5:      Singlet-A      3.0693 eV  403.96 nm  f=0.0002  <S**2>=0.000
     244 -> 247        0.70619

 The electronic state is 1-A.
 Alpha  occ. eigenvalues --  -46.93121 -19.26662 -19.25568 -19.21426 -19.19926
 Alpha  occ. eigenvalues --  -19.19285 -19.18419 -14.41519 -14.41341 -14.39695
 Alpha  occ. eigenvalues --  -14.39444 -10.37732 -10.35928 -10.33337 -10.31765
 Alpha  occ. eigenvalues --  -10.29348 -10.28751 -10.28744 -10.28706 -10.28195
 Alpha  occ. eigenvalues --  -10.28032 -10.27999 -10.27977 -10.27965 -10.26894
 Alpha  occ. eigenvalues --  -10.26837 -10.26469 -10.26034 -10.25965 -10.25845
 Alpha  occ. eigenvalues --  -10.25807 -10.25684 -10.25534 -10.25322 -10.24797
 Alpha  occ. eigenvalues --  -10.24764 -10.24738 -10.24574 -10.24557 -10.24349
 Alpha  occ. eigenvalues --  -10.24112 -10.23966 -10.23795 -10.23789 -10.23596
 Alpha  occ. eigenvalues --  -10.23554 -10.23542 -10.23336 -10.22984 -10.22902
 Alpha  occ. eigenvalues --  -10.22681 -10.22660 -10.22533 -10.22332 -10.22316
 Alpha  occ. eigenvalues --  -10.22176 -10.22157 -10.22151 -10.22121 -10.21975
 Alpha  occ. eigenvalues --  -10.21773 -10.21730 -10.21709 -10.21498 -10.21317
 Alpha  occ. eigenvalues --  -10.21159  -3.15252  -1.88047  -1.87663  -1.87442
 Alpha  occ. eigenvalues --   -1.13093  -1.10189  -1.03412  -1.03272  -1.03180
 Alpha  occ. eigenvalues --   -1.02883  -1.00088  -0.99241  -0.98749  -0.98061
 Alpha  occ. eigenvalues --   -0.87108  -0.84986  -0.83981  -0.83968  -0.83405
 Alpha  occ. eigenvalues --   -0.83114  -0.82812  -0.81956  -0.81420  -0.80672
 Alpha  occ. eigenvalues --   -0.79950  -0.79629  -0.78744  -0.77915  -0.77664
 Alpha  occ. eigenvalues --   -0.77266  -0.76592  -0.75540  -0.75359  -0.75005
 Alpha  occ. eigenvalues --   -0.74433  -0.72400  -0.72213  -0.71592  -0.70985
 Alpha  occ. eigenvalues --   -0.69990  -0.69636  -0.69509  -0.68999  -0.67996
 Alpha  occ. eigenvalues --   -0.67723  -0.67171  -0.66661  -0.64688  -0.64286
 Alpha  occ. eigenvalues --   -0.62945  -0.61785  -0.61090  -0.60476  -0.60052
 Alpha  occ. eigenvalues --   -0.59561  -0.59280  -0.59251  -0.58978  -0.58222
 Alpha  occ. eigenvalues --   -0.58013  -0.57986  -0.57764  -0.56156  -0.55317
 Alpha  occ. eigenvalues --   -0.54561  -0.54259  -0.53982  -0.53080  -0.52870
 Alpha  occ. eigenvalues --   -0.51858  -0.51536  -0.51413  -0.51121  -0.50506
 Alpha  occ. eigenvalues --   -0.49755  -0.49678  -0.49331  -0.49206  -0.49025
 Alpha  occ. eigenvalues --   -0.48863  -0.48165  -0.48033  -0.48016  -0.47527
 Alpha  occ. eigenvalues --   -0.47425  -0.46957  -0.46813  -0.46686  -0.46436
 Alpha  occ. eigenvalues --   -0.46184  -0.46038  -0.45666  -0.45193  -0.44820
 Alpha  occ. eigenvalues --   -0.44736  -0.44624  -0.44326  -0.44158  -0.44053
 Alpha  occ. eigenvalues --   -0.43827  -0.43765  -0.43570  -0.43510  -0.43349
 Alpha  occ. eigenvalues --   -0.43182  -0.43056  -0.42686  -0.42567  -0.42249
 Alpha  occ. eigenvalues --   -0.42120  -0.41973  -0.41465  -0.41278  -0.41217
 Alpha  occ. eigenvalues --   -0.41169  -0.40904  -0.40815  -0.40529  -0.40325
 Alpha  occ. eigenvalues --   -0.40216  -0.40129  -0.40023  -0.39755  -0.39719
 Alpha  occ. eigenvalues --   -0.39678  -0.39498  -0.39379  -0.39156  -0.39042
 Alpha  occ. eigenvalues --   -0.38690  -0.38299  -0.38214  -0.38128  -0.37901
 Alpha  occ. eigenvalues --   -0.37686  -0.37399  -0.37258  -0.37109  -0.36734
 Alpha  occ. eigenvalues --   -0.36557  -0.36222  -0.36161  -0.36114  -0.35916
 Alpha  occ. eigenvalues --   -0.35815  -0.35545  -0.35334  -0.35021  -0.34745
 Alpha  occ. eigenvalues --   -0.34506  -0.34033  -0.33902  -0.33414  -0.33324
 Alpha  occ. eigenvalues --   -0.33258  -0.33201  -0.33148  -0.32366  -0.32148
 Alpha  occ. eigenvalues --   -0.32118  -0.31794  -0.31439  -0.31292  -0.31134
 Alpha  occ. eigenvalues --   -0.30757  -0.30358  -0.30271  -0.30038  -0.29059
 Alpha  occ. eigenvalues --   -0.28905  -0.28557  -0.28380  -0.27167  -0.25897
 Alpha  occ. eigenvalues --   -0.25828  -0.25603  -0.24999  -0.24123  -0.21509
 Alpha  occ. eigenvalues --   -0.19068
 Alpha virt. eigenvalues --   -0.11281  -0.05441  -0.03891  -0.02181  -0.01972
 Alpha virt. eigenvalues --   -0.00891   0.00813   0.01627   0.01761   0.02459
 Alpha virt. eigenvalues --    0.04309   0.04512   0.04996   0.05490   0.05891

 Mulliken charges:
               1
     1  Mg   0.982573
     2  C   -0.052497
     3  C   -0.082561
     4  C   -0.088498
     5  C   -0.080824
     6  N   -0.303913
     7  C   -0.008392
     8  C   -0.083352
     9  C   -0.065835
    10  C    0.009436
    11  C    0.009607
    12  C   -0.063747
    13  C   -0.014129
    14  C    0.225701
    15  O   -0.263841
    16  O   -0.311855
    17  N   -0.514070
    18  C    0.193972
    19  C   -0.132803
    20  C   -0.123282
    21  C    0.246981
    22  C    0.088403
    23  C    0.033394
    24  O   -0.259595
    25  C    0.011251
    26  N   -0.402931
    27  C    0.034825
    28  C   -0.097294
    29  C   -0.148560
    30  C    0.116123
    31  C   -0.003170
    32  C   -0.048901
    33  C   -0.042135
    34  N   -0.481049
    35  C    0.125713
    36  C   -0.213587
    37  C   -0.070577
    38  C    0.202050
    39  C    0.079627
    40  C    0.202784
    41  O   -0.232617
    42  C   -0.115597
    43  C    0.321653
    44  O   -0.257200
    45  O   -0.387469
    46  C    0.115214
    47  C    0.268251
    48  C   -0.181856
    49  C   -0.214521
    50  C    0.014505
    51  C    0.017463
    52  C   -0.038628
    53  C    0.004459
    54  C   -0.211880
    55  C    0.001319
    56  C   -0.032712
    57  C   -0.042935
    58  C   -0.009392
    59  C   -0.232676
    60  C   -0.003526
    61  C    0.039451
    62  C   -0.055937
    63  C   -0.082190
    64  C   -0.244317
    65  C   -0.004684
    66  C   -0.003206
    67  H    0.024731
    68  H   -0.015694
    69  H    0.013341
    70  H    0.057108
    71  H    0.044027
    72  H    0.045758
    73  H    0.044358
    74  H    0.034089
    75  H    0.055512
    76  H    0.036692
    77  H    0.061647
    78  H    0.077885
    79  H    0.003715
    80  H    0.047397
    81  H    0.065597
    82  H    0.060102
    83  H    0.076768
    84  H    0.055986
    85  H    0.042197
    86  H    0.047162
    87  H    0.052960
    88  H    0.054630
    89  H    0.045642
    90  H    0.040484
    91  H    0.050912
    92  H    0.047974
    93  H    0.054968
    94  H    0.028042
    95  H    0.055197
    96  H    0.070563
    97  H    0.031061
    98  H    0.078364
    99  H    0.064901
   100  H    0.063666
   101  H    0.065486
   102  H    0.055982
   103  H    0.034297
   104  H    0.013271
   105  H    0.063241
   106  H    0.043312
   107  H    0.046261
   108  H    0.026817
   109  H    0.044355
   110  H    0.034919
   111  H    0.045210
   112  H    0.026822
   113  H    0.028697
   114  H    0.038321
   115  H    0.035872
   116  H    0.027637
   117  H    0.034187
   118  H    0.019495
   119  H    0.022029
   120  H    0.022722
   121  H    0.031404
   122  H    0.031102
   123  H    0.030390
   124  H    0.037199
   125  H    0.027991
   126  H    0.030054
   127  H    0.020802
   128  H    0.025684
   129  H    0.026905
   130  H    0.031178
   131  H    0.013038
   132  H    0.034277
   133  H    0.032868
   134  H    0.024857
   135  H    0.047090
   136  H    0.028664
   137  H    0.038260
   138  H    0.035317
   139  H    0.039841
   140  H    0.030386
 Sum of Mulliken charges =  -0.00000

 Dipole moment (field-independent basis, Debye):
    X=             -2.0998    Y=              7.0540    Z=              0.2413  Tot=              7.3639
 Quadrupole moment (field-independent basis, Debye-Ang):
   XX=           -378.0872   YY=           -426.2574   ZZ=           -402.1480
   XY=            -37.2762   XZ=            -17.9112   YZ=            -35.2616

 Normal termination of Gaussian 16 at Sat Apr 30 03:36:17 2022.
