 Gaussian 16, Revision A.03,
 Gaussian 16:  ES64L-G16RevA.03 25-Dec-2016

 --------------------------------
 #p wB97XD/Def2SVP td=(nstates=5)
 --------------------------------

 ----------------------------------------------------
 step_551_chromophore_26 TDDFT with wB97XD functional
 ----------------------------------------------------
 Symbolic Z-matrix:
 Charge =  0 Multiplicity = 1

                         Standard orientation:
 ---------------------------------------------------------------------
 Center     Atomic      Atomic             Coordinates (Angstroms)
 Number     Number       Type             X           Y           Z
 ---------------------------------------------------------------------
      1         12           0       -4.023899    1.171656    0.574764
      2          6           0       -4.448807   -2.225836   -0.199814
      3          6           0       -2.220494    0.027433    3.513364
      4          6           0       -2.792379    4.208823    0.987657
      5          6           0       -4.874002    1.963306   -2.770465
      6          7           0       -3.271480   -0.937639    1.497664
      7          6           0       -3.823229   -2.070556    1.054224
      8          6           0       -3.491624   -3.236043    1.985434
      9          6           0       -2.861996   -2.516941    3.226053
     10          6           0       -2.698017   -1.027757    2.709889
     11          6           0       -3.490845   -2.691096    4.616754
     12          6           0       -2.513167   -4.196003    1.190078
     13          6           0       -1.402532   -3.656940    0.300924
     14          6           0       -0.164181   -4.516509   -0.061330
     15          8           0       -0.159913   -5.733902   -0.108268
     16          8           0        0.939815   -3.780550   -0.264081
     17          7           0       -2.824272    2.019282    2.020187
     18          6           0       -2.133304    1.345779    3.058332
     19          6           0       -1.417988    2.332420    3.853076
     20          6           0       -1.710299    3.536197    3.173266
     21          6           0       -2.512977    3.302144    2.028555
     22          6           0       -0.528057    2.002850    5.105847
     23          6           0       -1.116551    4.869077    3.713385
     24          8           0       -0.325525    4.794571    4.666180
     25          6           0       -1.363955    6.185148    3.091179
     26          7           0       -3.922874    2.861611   -0.696109
     27          6           0       -3.407735    4.003524   -0.253591
     28          6           0       -3.684356    5.091175   -1.288971
     29          6           0       -4.423449    4.382212   -2.459522
     30          6           0       -4.267455    2.954551   -2.000257
     31          6           0       -4.418541    6.371487   -0.652757
     32          6           0       -3.832569    4.727961   -3.874528
     33          6           0       -3.462281    6.196274   -4.107277
     34          7           0       -4.688775    0.151329   -1.070426
     35          6           0       -5.050088    0.595579   -2.302236
     36          6           0       -5.646303   -0.472232   -3.052930
     37          6           0       -5.454026   -1.621433   -2.260268
     38          6           0       -4.819540   -1.186326   -1.047305
     39          6           0       -6.236505   -0.467550   -4.480576
     40          6           0       -5.700529   -3.106184   -2.175492
     41          8           0       -6.255742   -3.837880   -3.023214
     42          6           0       -5.097794   -3.516735   -0.742237
     43          6           0       -6.202677   -3.989010    0.128686
     44          8           0       -6.052457   -5.022450    0.792367
     45          8           0       -7.316046   -3.116970    0.085258
     46          6           0       -8.431790   -3.449932    0.982007
     47          6           0        2.109249   -4.465568   -0.575251
     48          6           0        3.068681   -3.380422   -0.787237
     49          6           0        3.232780   -2.532539   -1.848841
     50          6           0        2.240709   -2.501766   -3.008994
     51          6           0        4.418105   -1.586822   -1.952416
     52          6           0        4.125307   -0.174803   -1.509197
     53          6           0        4.670467    0.985224   -2.418458
     54          6           0        5.505640    1.960997   -1.636298
     55          6           0        5.627372    3.232429   -2.465884
     56          6           0        6.858984    1.281336   -1.381197
     57          6           0        7.392783    1.316809    0.132148
     58          6           0        7.344179    0.078961    0.954092
     59          6           0        8.749468   -0.279141    1.576578
     60          6           0        8.656083   -1.186682    2.798149
     61          6           0        9.556990   -0.959100    0.470663
     62          6           0       10.745503   -0.095955    0.046786
     63          6           0       12.038412   -0.915304   -0.064575
     64          6           0       13.299658   -0.089923   -0.615691
     65          6           0       13.347799    0.171509   -2.179485
     66          6           0       14.529901   -0.699669    0.015043
     67          1           0       -1.801088   -0.307820    4.464107
     68          1           0       -2.591983    5.276574    1.102128
     69          1           0       -5.333966    2.257163   -3.715343
     70          1           0       -4.372390   -3.849090    2.179960
     71          1           0       -1.823744   -2.846633    3.268047
     72          1           0       -2.820675   -3.100510    5.372041
     73          1           0       -4.420379   -3.256820    4.681233
     74          1           0       -3.825430   -1.734959    5.020839
     75          1           0       -3.067451   -5.003091    0.711728
     76          1           0       -2.060794   -4.765101    2.002693
     77          1           0       -1.048235   -2.841318    0.932223
     78          1           0       -1.867380   -3.350531   -0.636701
     79          1           0       -0.647810    0.955287    5.383025
     80          1           0       -0.886258    2.488161    6.013137
     81          1           0        0.541631    2.210674    5.133034
     82          1           0       -2.443440    6.280353    2.982163
     83          1           0       -0.834928    6.197694    2.137990
     84          1           0       -0.988341    6.963390    3.756439
     85          1           0       -2.684524    5.327172   -1.655412
     86          1           0       -5.481472    4.639624   -2.419517
     87          1           0       -3.711663    7.182106   -0.475287
     88          1           0       -4.891743    5.981282    0.249552
     89          1           0       -5.185812    6.765584   -1.319102
     90          1           0       -4.730266    4.609815   -4.481340
     91          1           0       -3.020345    4.047019   -4.128419
     92          1           0       -3.954137    6.480877   -5.037757
     93          1           0       -2.377555    6.225493   -3.997872
     94          1           0       -3.901379    6.888848   -3.388561
     95          1           0       -7.301751   -0.694150   -4.425947
     96          1           0       -5.784925   -1.291509   -5.032164
     97          1           0       -6.193589    0.519356   -4.942775
     98          1           0       -4.398791   -4.342879   -0.867390
     99          1           0       -8.696846   -2.627838    1.647111
    100          1           0       -8.218103   -4.340244    1.573078
    101          1           0       -9.244621   -3.747620    0.319912
    102          1           0        2.067410   -5.136441   -1.432818
    103          1           0        2.509875   -4.929995    0.326224
    104          1           0        3.753554   -3.335365    0.060057
    105          1           0        2.587860   -3.209737   -3.761734
    106          1           0        2.113939   -1.481689   -3.373159
    107          1           0        1.253495   -2.783696   -2.642669
    108          1           0        4.589515   -1.428920   -3.016590
    109          1           0        5.235333   -1.974606   -1.343608
    110          1           0        4.736918   -0.248866   -0.609310
    111          1           0        3.080734   -0.079018   -1.212668
    112          1           0        3.917126    1.605303   -2.903968
    113          1           0        5.412466    0.563441   -3.094949
    114          1           0        5.085346    2.207688   -0.661042
    115          1           0        4.776394    3.892310   -2.295123
    116          1           0        5.592951    3.047500   -3.539427
    117          1           0        6.568674    3.733661   -2.238745
    118          1           0        7.658328    1.674291   -2.008266
    119          1           0        6.915192    0.227609   -1.654911
    120          1           0        6.755609    2.014804    0.675429
    121          1           0        8.332414    1.868907    0.130314
    122          1           0        7.150365   -0.796149    0.334431
    123          1           0        6.618534    0.142890    1.764145
    124          1           0        9.194517    0.620250    2.003217
    125          1           0        8.953249   -0.675108    3.712856
    126          1           0        9.238510   -2.108231    2.813392
    127          1           0        7.616935   -1.486710    2.930837
    128          1           0        8.969749   -1.137176   -0.430622
    129          1           0        9.989187   -1.924738    0.733238
    130          1           0       10.896520    0.776042    0.683555
    131          1           0       10.609630    0.264715   -0.972542
    132          1           0       11.936872   -1.747696   -0.760980
    133          1           0       12.149880   -1.271304    0.959606
    134          1           0       13.189180    0.902654   -0.177546
    135          1           0       13.292841    1.224525   -2.455508
    136          1           0       12.416522   -0.280285   -2.521839
    137          1           0       14.224806   -0.365617   -2.540624
    138          1           0       14.345124   -1.770268    0.107125
    139          1           0       14.610729   -0.289426    1.022330
    140          1           0       15.413265   -0.496977   -0.591829
 ---------------------------------------------------------------------

 SCF Done:  E(RwB97XD) =  -3007.84608580     A.U. after   18 cycles

 Excitation energies and oscillator strengths:

 Excited State   1:      Singlet-A      1.6701 eV  742.36 nm  f=0.3572  <S**2>=0.000
     245 -> 248       -0.19262
     246 -> 247        0.68290
     245 <- 248       -0.12081
 This state for optimization and/or second-order correction.
 Total Energy, E(TD-HF/TD-DFT) =  -3007.78470919
 Copying the excited state density for this state as the 1-particle RhoCI density.

 Excited State   2:      Singlet-A      2.2860 eV  542.37 nm  f=0.0936  <S**2>=0.000
     245 -> 247        0.62435
     246 -> 248        0.32158

 Excited State   3:      Singlet-A      3.4200 eV  362.53 nm  f=0.0047  <S**2>=0.000
     241 -> 247       -0.19373
     243 -> 247        0.62152
     243 -> 249       -0.14366
     246 -> 248       -0.11271

 Excited State   4:      Singlet-A      3.4603 eV  358.31 nm  f=0.0211  <S**2>=0.000
     240 -> 247       -0.31595
     240 -> 249       -0.21177
     240 -> 251       -0.10151
     242 -> 247        0.50635
     246 -> 248       -0.18445

 Excited State   5:      Singlet-A      3.5763 eV  346.68 nm  f=0.0198  <S**2>=0.000
     239 -> 247       -0.13599
     240 -> 247        0.40440
     240 -> 249        0.25643
     240 -> 251        0.10759
     241 -> 247        0.17614
     242 -> 247        0.36742
     246 -> 248       -0.13382

 The electronic state is 1-A.
 Alpha  occ. eigenvalues --  -46.96090 -19.31298 -19.30136 -19.26180 -19.24761
 Alpha  occ. eigenvalues --  -19.23955 -19.23236 -14.46768 -14.46271 -14.44702
 Alpha  occ. eigenvalues --  -14.44362 -10.44632 -10.42717 -10.40204 -10.38592
 Alpha  occ. eigenvalues --  -10.35895 -10.35115 -10.35098 -10.34936 -10.34539
 Alpha  occ. eigenvalues --  -10.34534 -10.34436 -10.34411 -10.34179 -10.33367
 Alpha  occ. eigenvalues --  -10.33042 -10.32907 -10.32544 -10.32323 -10.32058
 Alpha  occ. eigenvalues --  -10.32051 -10.31950 -10.31936 -10.31707 -10.31201
 Alpha  occ. eigenvalues --  -10.31149 -10.31009 -10.30848 -10.30821 -10.30682
 Alpha  occ. eigenvalues --  -10.30540 -10.30294 -10.30228 -10.30155 -10.30120
 Alpha  occ. eigenvalues --  -10.30112 -10.29967 -10.29595 -10.29250 -10.29161
 Alpha  occ. eigenvalues --  -10.29106 -10.28957 -10.28905 -10.28685 -10.28655
 Alpha  occ. eigenvalues --  -10.28568 -10.28530 -10.28511 -10.28479 -10.28341
 Alpha  occ. eigenvalues --  -10.28142 -10.28136 -10.28077 -10.27872 -10.27750
 Alpha  occ. eigenvalues --  -10.27575  -3.22101  -1.95642  -1.95256  -1.95034
 Alpha  occ. eigenvalues --   -1.20451  -1.17676  -1.10924  -1.10755  -1.10649
 Alpha  occ. eigenvalues --   -1.10221  -1.07419  -1.06626  -1.06119  -1.05460
 Alpha  occ. eigenvalues --   -0.94773  -0.92640  -0.91632  -0.91539  -0.91049
 Alpha  occ. eigenvalues --   -0.90742  -0.90452  -0.89549  -0.89082  -0.88238
 Alpha  occ. eigenvalues --   -0.87580  -0.87343  -0.86404  -0.85517  -0.85311
 Alpha  occ. eigenvalues --   -0.84919  -0.84305  -0.83195  -0.82977  -0.82654
 Alpha  occ. eigenvalues --   -0.82079  -0.80022  -0.79858  -0.79304  -0.78642
 Alpha  occ. eigenvalues --   -0.77590  -0.77336  -0.77185  -0.76658  -0.75651
 Alpha  occ. eigenvalues --   -0.75251  -0.74770  -0.74203  -0.72286  -0.71834
 Alpha  occ. eigenvalues --   -0.70437  -0.69406  -0.68646  -0.67987  -0.67522
 Alpha  occ. eigenvalues --   -0.67071  -0.66818  -0.66780  -0.66607  -0.65705
 Alpha  occ. eigenvalues --   -0.65662  -0.65496  -0.65419  -0.63791  -0.62778
 Alpha  occ. eigenvalues --   -0.61962  -0.61794  -0.61340  -0.60476  -0.60331
 Alpha  occ. eigenvalues --   -0.59368  -0.58948  -0.58889  -0.58628  -0.57931
 Alpha  occ. eigenvalues --   -0.57236  -0.57072  -0.56758  -0.56652  -0.56468
 Alpha  occ. eigenvalues --   -0.56308  -0.55513  -0.55443  -0.55353  -0.54901
 Alpha  occ. eigenvalues --   -0.54822  -0.54362  -0.54327  -0.54055  -0.53769
 Alpha  occ. eigenvalues --   -0.53537  -0.53383  -0.53026  -0.52541  -0.52161
 Alpha  occ. eigenvalues --   -0.52079  -0.51978  -0.51761  -0.51476  -0.51391
 Alpha  occ. eigenvalues --   -0.51138  -0.51074  -0.50883  -0.50762  -0.50646
 Alpha  occ. eigenvalues --   -0.50424  -0.50352  -0.49978  -0.49841  -0.49463
 Alpha  occ. eigenvalues --   -0.49343  -0.49191  -0.48693  -0.48560  -0.48433
 Alpha  occ. eigenvalues --   -0.48372  -0.48164  -0.48052  -0.47729  -0.47497
 Alpha  occ. eigenvalues --   -0.47456  -0.47345  -0.47250  -0.47006  -0.46928
 Alpha  occ. eigenvalues --   -0.46794  -0.46696  -0.46575  -0.46342  -0.46202
 Alpha  occ. eigenvalues --   -0.45883  -0.45373  -0.45306  -0.45288  -0.45055
 Alpha  occ. eigenvalues --   -0.44814  -0.44508  -0.44423  -0.44299  -0.43846
 Alpha  occ. eigenvalues --   -0.43639  -0.43400  -0.43239  -0.43212  -0.43055
 Alpha  occ. eigenvalues --   -0.42943  -0.42597  -0.42430  -0.41941  -0.41789
 Alpha  occ. eigenvalues --   -0.41532  -0.41101  -0.40946  -0.40397  -0.40353
 Alpha  occ. eigenvalues --   -0.40283  -0.40217  -0.40069  -0.39423  -0.39214
 Alpha  occ. eigenvalues --   -0.39175  -0.38849  -0.38416  -0.38215  -0.38145
 Alpha  occ. eigenvalues --   -0.37784  -0.37388  -0.37374  -0.36959  -0.35913
 Alpha  occ. eigenvalues --   -0.35594  -0.35499  -0.35410  -0.33746  -0.32824
 Alpha  occ. eigenvalues --   -0.32754  -0.32189  -0.32033  -0.30839  -0.26487
 Alpha  occ. eigenvalues --   -0.23243
 Alpha virt. eigenvalues --   -0.07114  -0.00100   0.02431   0.03847   0.04584
 Alpha virt. eigenvalues --    0.05853   0.07524   0.08430   0.08605   0.09081
 Alpha virt. eigenvalues --    0.10835   0.11152   0.11774   0.12138   0.12673

 Mulliken charges:
               1
     1  Mg   0.977086
     2  C   -0.057502
     3  C   -0.095326
     4  C   -0.107559
     5  C   -0.102549
     6  N   -0.263910
     7  C   -0.043256
     8  C   -0.058626
     9  C   -0.040277
    10  C   -0.009749
    11  C    0.019218
    12  C   -0.055341
    13  C    0.012890
    14  C    0.215293
    15  O   -0.261062
    16  O   -0.309125
    17  N   -0.480824
    18  C    0.189160
    19  C   -0.129301
    20  C   -0.115505
    21  C    0.244480
    22  C    0.100396
    23  C    0.027241
    24  O   -0.255422
    25  C    0.025918
    26  N   -0.370548
    27  C    0.025274
    28  C   -0.072407
    29  C   -0.121962
    30  C    0.100000
    31  C    0.009301
    32  C   -0.034607
    33  C   -0.025701
    34  N   -0.440586
    35  C    0.121180
    36  C   -0.212992
    37  C   -0.067481
    38  C    0.182667
    39  C    0.093419
    40  C    0.184646
    41  O   -0.223104
    42  C   -0.073758
    43  C    0.299156
    44  O   -0.251899
    45  O   -0.388801
    46  C    0.130888
    47  C    0.278609
    48  C   -0.189769
    49  C   -0.203884
    50  C    0.029212
    51  C    0.043278
    52  C   -0.023749
    53  C    0.028749
    54  C   -0.181361
    55  C    0.012215
    56  C   -0.016048
    57  C   -0.032888
    58  C    0.018532
    59  C   -0.202681
    60  C    0.006115
    61  C    0.053255
    62  C   -0.036996
    63  C   -0.061611
    64  C   -0.219751
    65  C    0.008741
    66  C    0.011515
    67  H    0.019212
    68  H   -0.030941
    69  H    0.006090
    70  H    0.045759
    71  H    0.032382
    72  H    0.041380
    73  H    0.039928
    74  H    0.026381
    75  H    0.048111
    76  H    0.027618
    77  H    0.049231
    78  H    0.068556
    79  H   -0.002093
    80  H    0.043331
    81  H    0.063416
    82  H    0.053602
    83  H    0.072065
    84  H    0.055134
    85  H    0.029235
    86  H    0.036685
    87  H    0.048255
    88  H    0.047371
    89  H    0.040492
    90  H    0.031575
    91  H    0.044964
    92  H    0.043315
    93  H    0.049371
    94  H    0.018079
    95  H    0.049402
    96  H    0.065765
    97  H    0.025307
    98  H    0.071563
    99  H    0.061372
   100  H    0.059740
   101  H    0.061579
   102  H    0.052337
   103  H    0.030612
   104  H    0.009471
   105  H    0.058156
   106  H    0.037389
   107  H    0.039123
   108  H    0.014909
   109  H    0.036338
   110  H    0.017233
   111  H    0.038525
   112  H    0.019254
   113  H    0.015160
   114  H    0.026349
   115  H    0.030349
   116  H    0.021077
   117  H    0.028227
   118  H    0.011954
   119  H    0.004957
   120  H    0.013615
   121  H    0.022826
   122  H    0.013379
   123  H    0.023179
   124  H    0.025044
   125  H    0.022847
   126  H    0.024379
   127  H    0.014096
   128  H    0.016501
   129  H    0.016277
   130  H    0.021223
   131  H    0.000711
   132  H    0.023947
   133  H    0.021939
   134  H    0.012482
   135  H    0.042719
   136  H    0.020689
   137  H    0.032495
   138  H    0.027708
   139  H    0.033853
   140  H    0.024920
 Sum of Mulliken charges =  -0.00000

 Dipole moment (field-independent basis, Debye):
    X=             -2.0960    Y=              7.0614    Z=              0.4915  Tot=              7.3823
 Quadrupole moment (field-independent basis, Debye-Ang):
   XX=           -377.5274   YY=           -426.0421   ZZ=           -401.7024
   XY=            -36.8274   XZ=            -19.0368   YZ=            -34.4107

 Normal termination of Gaussian 16 at Sat Apr 30 04:05:35 2022.
