 Gaussian 16, Revision A.03,
 Gaussian 16:  ES64L-G16RevA.03 25-Dec-2016

 --------------------
 #p ZINDO=(nstates=5)
 --------------------

 -----------------------------
 step_551_chromophore_26 ZINDO
 -----------------------------
 Symbolic Z-matrix:
 Charge =  0 Multiplicity = 1

                         Standard orientation:
 ---------------------------------------------------------------------
 Center     Atomic      Atomic             Coordinates (Angstroms)
 Number     Number       Type             X           Y           Z
 ---------------------------------------------------------------------
      1         12           0       -4.023899    1.171656    0.574764
      2          6           0       -4.448807   -2.225836   -0.199814
      3          6           0       -2.220494    0.027433    3.513364
      4          6           0       -2.792379    4.208823    0.987657
      5          6           0       -4.874002    1.963306   -2.770465
      6          7           0       -3.271480   -0.937639    1.497664
      7          6           0       -3.823229   -2.070556    1.054224
      8          6           0       -3.491624   -3.236043    1.985434
      9          6           0       -2.861996   -2.516941    3.226053
     10          6           0       -2.698017   -1.027757    2.709889
     11          6           0       -3.490845   -2.691096    4.616754
     12          6           0       -2.513167   -4.196003    1.190078
     13          6           0       -1.402532   -3.656940    0.300924
     14          6           0       -0.164181   -4.516509   -0.061330
     15          8           0       -0.159913   -5.733902   -0.108268
     16          8           0        0.939815   -3.780550   -0.264081
     17          7           0       -2.824272    2.019282    2.020187
     18          6           0       -2.133304    1.345779    3.058332
     19          6           0       -1.417988    2.332420    3.853076
     20          6           0       -1.710299    3.536197    3.173266
     21          6           0       -2.512977    3.302144    2.028555
     22          6           0       -0.528057    2.002850    5.105847
     23          6           0       -1.116551    4.869077    3.713385
     24          8           0       -0.325525    4.794571    4.666180
     25          6           0       -1.363955    6.185148    3.091179
     26          7           0       -3.922874    2.861611   -0.696109
     27          6           0       -3.407735    4.003524   -0.253591
     28          6           0       -3.684356    5.091175   -1.288971
     29          6           0       -4.423449    4.382212   -2.459522
     30          6           0       -4.267455    2.954551   -2.000257
     31          6           0       -4.418541    6.371487   -0.652757
     32          6           0       -3.832569    4.727961   -3.874528
     33          6           0       -3.462281    6.196274   -4.107277
     34          7           0       -4.688775    0.151329   -1.070426
     35          6           0       -5.050088    0.595579   -2.302236
     36          6           0       -5.646303   -0.472232   -3.052930
     37          6           0       -5.454026   -1.621433   -2.260268
     38          6           0       -4.819540   -1.186326   -1.047305
     39          6           0       -6.236505   -0.467550   -4.480576
     40          6           0       -5.700529   -3.106184   -2.175492
     41          8           0       -6.255742   -3.837880   -3.023214
     42          6           0       -5.097794   -3.516735   -0.742237
     43          6           0       -6.202677   -3.989010    0.128686
     44          8           0       -6.052457   -5.022450    0.792367
     45          8           0       -7.316046   -3.116970    0.085258
     46          6           0       -8.431790   -3.449932    0.982007
     47          6           0        2.109249   -4.465568   -0.575251
     48          6           0        3.068681   -3.380422   -0.787237
     49          6           0        3.232780   -2.532539   -1.848841
     50          6           0        2.240709   -2.501766   -3.008994
     51          6           0        4.418105   -1.586822   -1.952416
     52          6           0        4.125307   -0.174803   -1.509197
     53          6           0        4.670467    0.985224   -2.418458
     54          6           0        5.505640    1.960997   -1.636298
     55          6           0        5.627372    3.232429   -2.465884
     56          6           0        6.858984    1.281336   -1.381197
     57          6           0        7.392783    1.316809    0.132148
     58          6           0        7.344179    0.078961    0.954092
     59          6           0        8.749468   -0.279141    1.576578
     60          6           0        8.656083   -1.186682    2.798149
     61          6           0        9.556990   -0.959100    0.470663
     62          6           0       10.745503   -0.095955    0.046786
     63          6           0       12.038412   -0.915304   -0.064575
     64          6           0       13.299658   -0.089923   -0.615691
     65          6           0       13.347799    0.171509   -2.179485
     66          6           0       14.529901   -0.699669    0.015043
     67          1           0       -1.801088   -0.307820    4.464107
     68          1           0       -2.591983    5.276574    1.102128
     69          1           0       -5.333966    2.257163   -3.715343
     70          1           0       -4.372390   -3.849090    2.179960
     71          1           0       -1.823744   -2.846633    3.268047
     72          1           0       -2.820675   -3.100510    5.372041
     73          1           0       -4.420379   -3.256820    4.681233
     74          1           0       -3.825430   -1.734959    5.020839
     75          1           0       -3.067451   -5.003091    0.711728
     76          1           0       -2.060794   -4.765101    2.002693
     77          1           0       -1.048235   -2.841318    0.932223
     78          1           0       -1.867380   -3.350531   -0.636701
     79          1           0       -0.647810    0.955287    5.383025
     80          1           0       -0.886258    2.488161    6.013137
     81          1           0        0.541631    2.210674    5.133034
     82          1           0       -2.443440    6.280353    2.982163
     83          1           0       -0.834928    6.197694    2.137990
     84          1           0       -0.988341    6.963390    3.756439
     85          1           0       -2.684524    5.327172   -1.655412
     86          1           0       -5.481472    4.639624   -2.419517
     87          1           0       -3.711663    7.182106   -0.475287
     88          1           0       -4.891743    5.981282    0.249552
     89          1           0       -5.185812    6.765584   -1.319102
     90          1           0       -4.730266    4.609815   -4.481340
     91          1           0       -3.020345    4.047019   -4.128419
     92          1           0       -3.954137    6.480877   -5.037757
     93          1           0       -2.377555    6.225493   -3.997872
     94          1           0       -3.901379    6.888848   -3.388561
     95          1           0       -7.301751   -0.694150   -4.425947
     96          1           0       -5.784925   -1.291509   -5.032164
     97          1           0       -6.193589    0.519356   -4.942775
     98          1           0       -4.398791   -4.342879   -0.867390
     99          1           0       -8.696846   -2.627838    1.647111
    100          1           0       -8.218103   -4.340244    1.573078
    101          1           0       -9.244621   -3.747620    0.319912
    102          1           0        2.067410   -5.136441   -1.432818
    103          1           0        2.509875   -4.929995    0.326224
    104          1           0        3.753554   -3.335365    0.060057
    105          1           0        2.587860   -3.209737   -3.761734
    106          1           0        2.113939   -1.481689   -3.373159
    107          1           0        1.253495   -2.783696   -2.642669
    108          1           0        4.589515   -1.428920   -3.016590
    109          1           0        5.235333   -1.974606   -1.343608
    110          1           0        4.736918   -0.248866   -0.609310
    111          1           0        3.080734   -0.079018   -1.212668
    112          1           0        3.917126    1.605303   -2.903968
    113          1           0        5.412466    0.563441   -3.094949
    114          1           0        5.085346    2.207688   -0.661042
    115          1           0        4.776394    3.892310   -2.295123
    116          1           0        5.592951    3.047500   -3.539427
    117          1           0        6.568674    3.733661   -2.238745
    118          1           0        7.658328    1.674291   -2.008266
    119          1           0        6.915192    0.227609   -1.654911
    120          1           0        6.755609    2.014804    0.675429
    121          1           0        8.332414    1.868907    0.130314
    122          1           0        7.150365   -0.796149    0.334431
    123          1           0        6.618534    0.142890    1.764145
    124          1           0        9.194517    0.620250    2.003217
    125          1           0        8.953249   -0.675108    3.712856
    126          1           0        9.238510   -2.108231    2.813392
    127          1           0        7.616935   -1.486710    2.930837
    128          1           0        8.969749   -1.137176   -0.430622
    129          1           0        9.989187   -1.924738    0.733238
    130          1           0       10.896520    0.776042    0.683555
    131          1           0       10.609630    0.264715   -0.972542
    132          1           0       11.936872   -1.747696   -0.760980
    133          1           0       12.149880   -1.271304    0.959606
    134          1           0       13.189180    0.902654   -0.177546
    135          1           0       13.292841    1.224525   -2.455508
    136          1           0       12.416522   -0.280285   -2.521839
    137          1           0       14.224806   -0.365617   -2.540624
    138          1           0       14.345124   -1.770268    0.107125
    139          1           0       14.610729   -0.289426    1.022330
    140          1           0       15.413265   -0.496977   -0.591829
 ---------------------------------------------------------------------

 SCF Done:  E(RZINDO/S) =  -474.398582718     A.U. after   19 cycles

 Excitation energies and oscillator strengths:

 Excited State   1:      Singlet-A      1.2758 eV  971.82 nm  f=0.5703  <S**2>=0.000
     175 ->178        -0.19790
     176 ->177         0.66209
 This state for optimization and/or second-order correction.
 Total Energy, E(CIS/TDA) =  -474.351698032
 Copying the excited state density for this state as the 1-particle RhoCI density.

 Excited State   2:      Singlet-A      1.9649 eV  630.99 nm  f=0.0278  <S**2>=0.000
     175 ->177         0.52944
     176 ->178         0.44642

 Excited State   3:      Singlet-A      2.8486 eV  435.25 nm  f=0.0057  <S**2>=0.000
     176 ->179         0.37561
     176 ->180         0.58685

 Excited State   4:      Singlet-A      2.9560 eV  419.43 nm  f=0.0165  <S**2>=0.000
     167 ->181        -0.10197
     168 ->177         0.23071
     168 ->179        -0.28552
     168 ->181        -0.35202
     168 ->185        -0.21286
     168 ->187        -0.11090
     171 ->177         0.15629
     171 ->179        -0.11542
     171 ->181        -0.13225

 Excited State   5:      Singlet-A      3.0207 eV  410.45 nm  f=0.9042  <S**2>=0.000
     175 ->177        -0.36286
     176 ->178         0.45817
     176 ->179         0.22026
     176 ->180        -0.22270
     176 ->182        -0.10345

 The electronic state is 1-A.
 Alpha  occ. eigenvalues --   -1.85385  -1.83381  -1.81479  -1.77653  -1.72778
 Alpha  occ. eigenvalues --   -1.69899  -1.68025  -1.62686  -1.59073  -1.54979
 Alpha  occ. eigenvalues --   -1.54649  -1.53114  -1.50039  -1.48922  -1.47714
 Alpha  occ. eigenvalues --   -1.45854  -1.42729  -1.41004  -1.38681  -1.37372
 Alpha  occ. eigenvalues --   -1.34885  -1.32970  -1.32580  -1.30658  -1.29419
 Alpha  occ. eigenvalues --   -1.27978  -1.27160  -1.23409  -1.22500  -1.18627
 Alpha  occ. eigenvalues --   -1.17327  -1.16372  -1.15342  -1.13865  -1.13069
 Alpha  occ. eigenvalues --   -1.12285  -1.10769  -1.09869  -1.05699  -1.04714
 Alpha  occ. eigenvalues --   -1.02296  -1.02071  -0.99391  -0.98863  -0.96918
 Alpha  occ. eigenvalues --   -0.95742  -0.94323  -0.92844  -0.91943  -0.91716
 Alpha  occ. eigenvalues --   -0.90686  -0.89953  -0.89178  -0.87929  -0.86079
 Alpha  occ. eigenvalues --   -0.85899  -0.85085  -0.84167  -0.83257  -0.82129
 Alpha  occ. eigenvalues --   -0.80263  -0.79088  -0.78508  -0.77929  -0.77231
 Alpha  occ. eigenvalues --   -0.77130  -0.76367  -0.75861  -0.75498  -0.74021
 Alpha  occ. eigenvalues --   -0.73061  -0.72655  -0.72129  -0.71518  -0.70779
 Alpha  occ. eigenvalues --   -0.69863  -0.69579  -0.69513  -0.68808  -0.68446
 Alpha  occ. eigenvalues --   -0.67530  -0.66555  -0.66359  -0.65973  -0.65823
 Alpha  occ. eigenvalues --   -0.65645  -0.64919  -0.64730  -0.63706  -0.63669
 Alpha  occ. eigenvalues --   -0.62970  -0.62696  -0.61951  -0.61670  -0.61280
 Alpha  occ. eigenvalues --   -0.61102  -0.60798  -0.60726  -0.60290  -0.59967
 Alpha  occ. eigenvalues --   -0.59509  -0.59057  -0.58947  -0.58252  -0.58027
 Alpha  occ. eigenvalues --   -0.57969  -0.57796  -0.57181  -0.57092  -0.56969
 Alpha  occ. eigenvalues --   -0.56124  -0.55966  -0.55795  -0.55430  -0.55076
 Alpha  occ. eigenvalues --   -0.54441  -0.54271  -0.53914  -0.53441  -0.53399
 Alpha  occ. eigenvalues --   -0.53036  -0.52757  -0.52357  -0.52200  -0.52027
 Alpha  occ. eigenvalues --   -0.51701  -0.51212  -0.51002  -0.50797  -0.50375
 Alpha  occ. eigenvalues --   -0.50176  -0.49955  -0.49738  -0.49369  -0.49133
 Alpha  occ. eigenvalues --   -0.48704  -0.48579  -0.48373  -0.48144  -0.47961
 Alpha  occ. eigenvalues --   -0.47858  -0.47438  -0.46746  -0.46310  -0.46186
 Alpha  occ. eigenvalues --   -0.45617  -0.45590  -0.45266  -0.45083  -0.45037
 Alpha  occ. eigenvalues --   -0.44851  -0.44700  -0.44670  -0.44363  -0.44010
 Alpha  occ. eigenvalues --   -0.43757  -0.42770  -0.42707  -0.42667  -0.42044
 Alpha  occ. eigenvalues --   -0.41636  -0.41564  -0.41083  -0.39516  -0.38947
 Alpha  occ. eigenvalues --   -0.38702  -0.37199  -0.35530  -0.35343  -0.35186
 Alpha  occ. eigenvalues --   -0.33949  -0.33202  -0.32704  -0.31296  -0.27247
 Alpha  occ. eigenvalues --   -0.22357
 Alpha virt. eigenvalues --   -0.08829  -0.02744  -0.00662  -0.00193   0.01116
 Alpha virt. eigenvalues --    0.01890   0.02463   0.02511   0.04113   0.04776
 Alpha virt. eigenvalues --    0.05748   0.06714   0.07001   0.07474   0.07873

 Mulliken charges:
               1
     1  Mg   0.438721
     2  C   -0.034408
     3  C   -0.050542
     4  C   -0.115825
     5  C   -0.085789
     6  N   -0.274019
     7  C    0.118267
     8  C    0.003528
     9  C    0.005652
    10  C    0.117598
    11  C   -0.047695
    12  C   -0.026612
    13  C    0.007965
    14  C    0.461199
    15  O   -0.518222
    16  O   -0.248108
    17  N   -0.323159
    18  C    0.098446
    19  C    0.037268
    20  C   -0.044888
    21  C    0.168249
    22  C   -0.034693
    23  C    0.315267
    24  O   -0.534159
    25  C   -0.022912
    26  N   -0.275407
    27  C    0.158125
    28  C   -0.005673
    29  C   -0.002192
    30  C    0.103914
    31  C   -0.055157
    32  C   -0.035517
    33  C   -0.062022
    34  N   -0.306600
    35  C    0.097552
    36  C    0.009626
    37  C   -0.062878
    38  C    0.095253
    39  C   -0.041831
    40  C    0.320114
    41  O   -0.513655
    42  C    0.060112
    43  C    0.487896
    44  O   -0.523229
    45  O   -0.267738
    46  C    0.072532
    47  C    0.116880
    48  C   -0.097075
    49  C   -0.013424
    50  C   -0.043117
    51  C   -0.022165
    52  C   -0.043565
    53  C   -0.033643
    54  C   -0.001797
    55  C   -0.054722
    56  C   -0.041369
    57  C   -0.042236
    58  C   -0.025836
    59  C   -0.009924
    60  C   -0.061853
    61  C   -0.030064
    62  C   -0.042393
    63  C   -0.040128
    64  C   -0.026021
    65  C   -0.061015
    66  C   -0.052967
    67  H    0.047386
    68  H    0.022286
    69  H    0.036553
    70  H    0.047776
    71  H    0.026444
    72  H    0.023753
    73  H    0.025360
    74  H    0.014829
    75  H    0.033128
    76  H    0.012476
    77  H    0.035945
    78  H    0.048076
    79  H    0.011396
    80  H    0.034288
    81  H    0.049212
    82  H    0.033673
    83  H    0.046914
    84  H    0.039165
    85  H    0.028716
    86  H    0.035523
    87  H    0.025151
    88  H    0.027650
    89  H    0.022324
    90  H    0.015135
    91  H    0.034322
    92  H    0.025658
    93  H    0.027515
    94  H    0.017317
    95  H    0.030301
    96  H    0.041320
    97  H    0.023137
    98  H    0.062597
    99  H    0.041282
   100  H    0.047237
   101  H    0.039854
   102  H    0.056049
   103  H    0.039639
   104  H    0.017226
   105  H    0.035672
   106  H    0.023409
   107  H    0.022030
   108  H    0.025039
   109  H    0.029700
   110  H    0.018800
   111  H    0.026665
   112  H    0.022568
   113  H    0.026981
   114  H    0.024739
   115  H    0.013816
   116  H    0.016455
   117  H    0.016012
   118  H    0.013547
   119  H    0.015301
   120  H    0.006231
   121  H    0.020371
   122  H    0.021187
   123  H    0.019441
   124  H    0.026048
   125  H    0.011520
   126  H    0.018805
   127  H    0.011816
   128  H    0.018753
   129  H    0.020700
   130  H    0.023578
   131  H    0.009330
   132  H    0.020464
   133  H    0.019733
   134  H    0.007996
   135  H    0.028191
   136  H    0.017878
   137  H    0.027685
   138  H    0.018230
   139  H    0.018289
   140  H    0.018483
 Sum of Mulliken charges =  -0.00000

 Dipole moment (field-independent basis, Debye):
    X=             -0.9387    Y=              8.9941    Z=              1.0625  Tot=              9.1052
 N-N= 4.524206252450D+03 E-N= 0.000000000000D+00  KE=-9.722182244722D+03
 Leave Link  601 at Sat Apr 30 04:18:39 2022, MaxMem=  6710886400 cpu:               0.8 elap:               0.0
 (Enter /sw/apps/gaussian-16.0/g16/l9999.exe)
 1\1\GINC-BP1-COMPUTE103\SP\RZINDO CIS\STO-3G\C55H74Mg1N4O6\OF15641\30-
 Apr-2022\0\\#p ZINDO=(nstates=5)\\step_551_chromophore_26 ZINDO\\0,1\M
 g,0,-8.383,18.287,43.463\C,0,-4.906,18.032,43.052\C,0,-7.982,21.798,42
 .621\C,0,-11.637,18.523,42.946\C,0,-8.594,14.76,43.227\N,0,-6.596,19.7
 58,42.749\C,0,-5.33,19.371,42.928\C,0,-4.373,20.55,42.756\C,0,-5.344,2
 1.778,42.713\C,0,-6.766,21.085,42.62\C,0,-5.202,22.907,43.745\C,0,-3.5
 54,20.287,41.425\C,0,-4.208,19.713,40.177\C,0,-3.59,19.918,38.77\O,0,-

 Normal termination of Gaussian 16 at Sat Apr 30 04:18:40 2022.
