 Gaussian 16, Revision A.03,
 Gaussian 16:  ES64L-G16RevA.03 25-Dec-2016

 ------------------------------
 #p blyp/Def2SVP td=(nstates=5)
 ------------------------------

 --------------------------------------------------
 step_151_chromophore_11 TDDFT with blyp functional
 --------------------------------------------------
 Symbolic Z-matrix:
 Charge =  0 Multiplicity = 1

                         Standard orientation:
 ---------------------------------------------------------------------
 Center     Atomic      Atomic             Coordinates (Angstroms)
 Number     Number       Type             X           Y           Z
 ---------------------------------------------------------------------
      1         12           0       -4.543521    1.400365    0.703699
      2          6           0       -5.563104   -2.010820   -0.054483
      3          6           0       -2.519295    0.163103    3.104628
      4          6           0       -3.121407    4.369359    0.681286
      5          6           0       -6.677295    2.425867   -1.825414
      6          7           0       -3.933424   -0.803622    1.232104
      7          6           0       -4.549409   -1.990759    0.963566
      8          6           0       -4.101593   -3.035214    1.957278
      9          6           0       -3.409754   -2.208282    3.026621
     10          6           0       -3.172438   -0.895477    2.425940
     11          6           0       -4.223806   -2.059267    4.383517
     12          6           0       -3.191517   -4.113493    1.332677
     13          6           0       -1.962395   -3.631604    0.460139
     14          6           0       -0.637154   -4.371197    0.653452
     15          8           0       -0.352608   -5.348553    0.055152
     16          8           0        0.224777   -3.694511    1.530249
     17          7           0       -2.892333    2.092808    1.689709
     18          6           0       -2.278654    1.518425    2.704921
     19          6           0       -1.415936    2.469501    3.257458
     20          6           0       -1.518859    3.734267    2.594587
     21          6           0       -2.546113    3.458575    1.611790
     22          6           0       -0.316291    2.093859    4.353473
     23          6           0       -0.651405    4.973571    2.924343
     24          8           0        0.089460    4.933520    3.906267
     25          6           0       -0.663132    6.185661    2.144245
     26          7           0       -4.574133    3.151739   -0.688791
     27          6           0       -4.015526    4.324275   -0.333716
     28          6           0       -4.586155    5.509332   -1.132480
     29          6           0       -5.765174    4.864680   -1.910512
     30          6           0       -5.696364    3.424204   -1.449405
     31          6           0       -4.980747    6.726689   -0.249745
     32          6           0       -5.653475    4.920990   -3.461759
     33          6           0       -6.937692    4.799932   -4.354227
     34          7           0       -6.006013    0.486222   -0.561709
     35          6           0       -6.828367    1.064728   -1.470978
     36          6           0       -7.729659    0.013908   -1.982002
     37          6           0       -7.244676   -1.200851   -1.500929
     38          6           0       -6.139505   -0.891628   -0.672733
     39          6           0       -8.886940    0.356161   -2.849115
     40          6           0       -7.394991   -2.582692   -1.511285
     41          8           0       -8.146772   -3.265272   -2.174345
     42          6           0       -6.332907   -3.184783   -0.572227
     43          6           0       -5.486576   -3.963287   -1.468314
     44          8           0       -4.864171   -3.499801   -2.428258
     45          8           0       -5.520588   -5.311177   -1.199852
     46          6           0       -4.580516   -6.108949   -1.986768
     47          6           0        1.562442   -4.232305    1.750525
     48          6           0        2.441131   -3.756918    0.564212
     49          6           0        3.678493   -4.153207    0.232063
     50          6           0        4.565998   -5.013904    1.156469
     51          6           0        4.401614   -3.547173   -0.934727
     52          6           0        4.722550   -2.062749   -0.846674
     53          6           0        5.804140   -1.597616   -1.860952
     54          6           0        6.469800   -0.175764   -1.641522
     55          6           0        6.277000    0.692231   -2.891394
     56          6           0        7.854157   -0.267109   -1.153582
     57          6           0        7.960654    0.326135    0.268389
     58          6           0        9.143956    1.351187    0.321386
     59          6           0       10.431747    0.579037    0.463342
     60          6           0       10.812546    0.427850    1.930755
     61          6           0       11.477240    1.208109   -0.462447
     62          6           0       12.735073    0.317298   -0.669713
     63          6           0       14.072322    1.007833   -0.509514
     64          6           0       14.989067    0.956943   -1.831372
     65          6           0       16.333270    0.355191   -1.412923
     66          6           0       15.128926    2.446808   -2.340434
     67          1           0       -2.047900    0.064311    4.084689
     68          1           0       -2.815126    5.411867    0.786403
     69          1           0       -7.463532    2.813537   -2.477452
     70          1           0       -4.942425   -3.506764    2.463973
     71          1           0       -2.391357   -2.568483    3.169105
     72          1           0       -3.429646   -1.720067    5.048182
     73          1           0       -4.501790   -3.093637    4.584599
     74          1           0       -5.100835   -1.412332    4.373255
     75          1           0       -3.844890   -4.767088    0.754918
     76          1           0       -2.821536   -4.718680    2.160365
     77          1           0       -1.726608   -2.579619    0.618639
     78          1           0       -2.274823   -3.766826   -0.575894
     79          1           0       -0.216512    1.012251    4.445716
     80          1           0       -0.528632    2.611636    5.289382
     81          1           0        0.626223    2.494408    3.981201
     82          1           0       -0.421967    5.851059    1.135839
     83          1           0        0.035288    6.971878    2.431585
     84          1           0       -1.689815    6.552206    2.142421
     85          1           0       -3.815122    5.773699   -1.856494
     86          1           0       -6.666612    5.374654   -1.572751
     87          1           0       -4.890360    6.476854    0.806771
     88          1           0       -6.016758    7.036437   -0.386733
     89          1           0       -4.191413    7.420210   -0.540657
     90          1           0       -5.037125    4.057321   -3.713221
     91          1           0       -5.211671    5.897532   -3.664836
     92          1           0       -6.950272    3.842358   -4.874960
     93          1           0       -7.007013    5.500279   -5.187720
     94          1           0       -7.735904    4.945681   -3.626403
     95          1           0       -8.730245    1.319565   -3.333261
     96          1           0       -9.752061    0.179749   -2.210190
     97          1           0       -8.855243   -0.343879   -3.683982
     98          1           0       -6.735526   -3.754406    0.265909
     99          1           0       -4.505811   -7.038984   -1.422836
    100          1           0       -3.575770   -5.686668   -1.997608
    101          1           0       -4.822984   -6.396451   -3.010383
    102          1           0        1.547306   -5.322253    1.780559
    103          1           0        1.913266   -4.029048    2.762354
    104          1           0        1.860651   -3.297832   -0.236022
    105          1           0        5.349838   -4.430426    1.639530
    106          1           0        4.879924   -5.877376    0.569501
    107          1           0        4.043911   -5.615540    1.899902
    108          1           0        3.782254   -3.768278   -1.803480
    109          1           0        5.346634   -4.072113   -1.075529
    110          1           0        4.971174   -1.988910    0.212491
    111          1           0        3.772112   -1.556177   -1.014286
    112          1           0        5.343601   -1.535428   -2.846948
    113          1           0        6.585085   -2.350356   -1.972522
    114          1           0        5.811923    0.285723   -0.904451
    115          1           0        5.424250    0.367744   -3.487417
    116          1           0        7.181071    0.671469   -3.499929
    117          1           0        6.106192    1.752232   -2.702785
    118          1           0        8.562165    0.296242   -1.761422
    119          1           0        8.093166   -1.324292   -1.037183
    120          1           0        8.266281   -0.499965    0.911726
    121          1           0        7.079875    0.807866    0.693106
    122          1           0        9.057278    2.017172    1.179967
    123          1           0        9.083068    1.898248   -0.619498
    124          1           0       10.274057   -0.457554    0.165893
    125          1           0       11.650355    1.114488    2.051841
    126          1           0       11.069452   -0.628258    2.013949
    127          1           0       10.002729    0.706269    2.604939
    128          1           0       11.753395    2.212392   -0.139776
    129          1           0       11.125923    1.239809   -1.494159
    130          1           0       12.881218   -0.023306   -1.694593
    131          1           0       12.772924   -0.475588    0.076963
    132          1           0       14.660009    0.460483    0.227900
    133          1           0       14.024428    2.039315   -0.161133
    134          1           0       14.600189    0.388835   -2.675674
    135          1           0       17.114174    0.604945   -2.131367
    136          1           0       16.176877   -0.720184   -1.325921
    137          1           0       16.617549    0.872844   -0.496772
    138          1           0       16.089980    2.665068   -1.874631
    139          1           0       14.293249    3.079702   -2.042877
    140          1           0       15.311221    2.366408   -3.411371
 ---------------------------------------------------------------------

 SCF Done:  E(RB-LYP) =  -3007.32221940     A.U. after   22 cycles

 Excitation energies and oscillator strengths:

 Excited State   1:      Singlet-A      1.7939 eV  691.14 nm  f=0.2604  <S**2>=0.000
     244 -> 247       -0.15916
     245 -> 248       -0.20000
     246 -> 247        0.66913
     246 <- 247       -0.13999
 This state for optimization and/or second-order correction.
 Total Energy, E(TD-HF/TD-DFT) =  -3007.25629430
 Copying the excited state density for this state as the 1-particle RhoCI density.

 Excited State   2:      Singlet-A      1.8364 eV  675.14 nm  f=0.0191  <S**2>=0.000
     244 -> 247        0.68494
     246 -> 247        0.15671

 Excited State   3:      Singlet-A      1.9605 eV  632.41 nm  f=0.0631  <S**2>=0.000
     240 -> 247        0.10077
     243 -> 247        0.17564
     245 -> 247        0.63108
     246 -> 248        0.23144

 Excited State   4:      Singlet-A      2.0336 eV  609.67 nm  f=0.0059  <S**2>=0.000
     243 -> 247        0.68290
     245 -> 247       -0.15785

 Excited State   5:      Singlet-A      2.2402 eV  553.46 nm  f=0.0000  <S**2>=0.000
     242 -> 247        0.70709

 The electronic state is 1-A.
 Alpha  occ. eigenvalues --  -46.28608 -18.82393 -18.81394 -18.77012 -18.76299
 Alpha  occ. eigenvalues --  -18.75456 -18.75074 -14.03126 -14.03029 -14.01034
 Alpha  occ. eigenvalues --  -14.00856 -10.03860 -10.03656  -9.99861  -9.99191
 Alpha  occ. eigenvalues --   -9.98096  -9.97225  -9.97199  -9.97072  -9.96504
 Alpha  occ. eigenvalues --   -9.96260  -9.95927  -9.95892  -9.94987  -9.94576
 Alpha  occ. eigenvalues --   -9.94494  -9.94271  -9.94266  -9.94148  -9.94060
 Alpha  occ. eigenvalues --   -9.93906  -9.93719  -9.93497  -9.93449  -9.93424
 Alpha  occ. eigenvalues --   -9.93354  -9.93257  -9.93228  -9.93197  -9.92808
 Alpha  occ. eigenvalues --   -9.92605  -9.92496  -9.92480  -9.92395  -9.92364
 Alpha  occ. eigenvalues --   -9.92224  -9.92136  -9.91590  -9.91428  -9.91409
 Alpha  occ. eigenvalues --   -9.91213  -9.91155  -9.91045  -9.90999  -9.90993
 Alpha  occ. eigenvalues --   -9.90744  -9.90705  -9.90694  -9.90626  -9.90562
 Alpha  occ. eigenvalues --   -9.90443  -9.90413  -9.90406  -9.90257  -9.90248
 Alpha  occ. eigenvalues --   -9.90062  -2.92987  -1.73366  -1.72944  -1.72665
 Alpha  occ. eigenvalues --   -0.97847  -0.97617  -0.92028  -0.91100  -0.90803
 Alpha  occ. eigenvalues --   -0.89097  -0.86622  -0.85909  -0.85864  -0.85020
 Alpha  occ. eigenvalues --   -0.76774  -0.73795  -0.73079  -0.73040  -0.72824
 Alpha  occ. eigenvalues --   -0.71981  -0.71943  -0.71179  -0.70911  -0.70177
 Alpha  occ. eigenvalues --   -0.69237  -0.68412  -0.68018  -0.67974  -0.67282
 Alpha  occ. eigenvalues --   -0.66695  -0.66434  -0.65715  -0.64951  -0.64574
 Alpha  occ. eigenvalues --   -0.63964  -0.62757  -0.62381  -0.61564  -0.60972
 Alpha  occ. eigenvalues --   -0.60201  -0.59762  -0.59644  -0.59349  -0.58903
 Alpha  occ. eigenvalues --   -0.58160  -0.57842  -0.57319  -0.56151  -0.55060
 Alpha  occ. eigenvalues --   -0.54773  -0.53337  -0.52801  -0.52035  -0.51846
 Alpha  occ. eigenvalues --   -0.51395  -0.50874  -0.50699  -0.49964  -0.49531
 Alpha  occ. eigenvalues --   -0.49224  -0.48871  -0.48673  -0.48436  -0.46788
 Alpha  occ. eigenvalues --   -0.46185  -0.46011  -0.45889  -0.45592  -0.45357
 Alpha  occ. eigenvalues --   -0.44361  -0.43776  -0.43197  -0.42697  -0.42573
 Alpha  occ. eigenvalues --   -0.42380  -0.41914  -0.41624  -0.41510  -0.41377
 Alpha  occ. eigenvalues --   -0.40916  -0.40570  -0.40297  -0.40133  -0.39844
 Alpha  occ. eigenvalues --   -0.39690  -0.39643  -0.39542  -0.39450  -0.39159
 Alpha  occ. eigenvalues --   -0.39034  -0.38981  -0.38778  -0.38691  -0.38517
 Alpha  occ. eigenvalues --   -0.38292  -0.38064  -0.37774  -0.37752  -0.37695
 Alpha  occ. eigenvalues --   -0.37445  -0.36990  -0.36838  -0.36769  -0.36515
 Alpha  occ. eigenvalues --   -0.36300  -0.36215  -0.35951  -0.35873  -0.35821
 Alpha  occ. eigenvalues --   -0.35585  -0.35428  -0.35053  -0.34918  -0.34565
 Alpha  occ. eigenvalues --   -0.34452  -0.34210  -0.34149  -0.33842  -0.33755
 Alpha  occ. eigenvalues --   -0.33621  -0.33525  -0.33403  -0.33305  -0.33119
 Alpha  occ. eigenvalues --   -0.32905  -0.32854  -0.32770  -0.32678  -0.32479
 Alpha  occ. eigenvalues --   -0.32011  -0.31891  -0.31550  -0.31384  -0.31184
 Alpha  occ. eigenvalues --   -0.31071  -0.30765  -0.30596  -0.30421  -0.30281
 Alpha  occ. eigenvalues --   -0.29986  -0.29881  -0.29741  -0.29703  -0.29405
 Alpha  occ. eigenvalues --   -0.29324  -0.29278  -0.29103  -0.28948  -0.28740
 Alpha  occ. eigenvalues --   -0.28631  -0.28464  -0.28227  -0.28027  -0.27932
 Alpha  occ. eigenvalues --   -0.27585  -0.27176  -0.27062  -0.26844  -0.26585
 Alpha  occ. eigenvalues --   -0.26413  -0.26052  -0.26046  -0.25662  -0.25074
 Alpha  occ. eigenvalues --   -0.24836  -0.24487  -0.23904  -0.23733  -0.23540
 Alpha  occ. eigenvalues --   -0.22626  -0.22263  -0.21918  -0.21617  -0.20578
 Alpha  occ. eigenvalues --   -0.20131  -0.19891  -0.18962  -0.18353  -0.17185
 Alpha  occ. eigenvalues --   -0.15970
 Alpha virt. eigenvalues --   -0.11659  -0.07033  -0.06342  -0.04757  -0.04175
 Alpha virt. eigenvalues --   -0.02708  -0.02275  -0.01836  -0.01659   0.00273
 Alpha virt. eigenvalues --    0.01137   0.02090   0.02236   0.02769   0.03056

 Mulliken charges:
               1
     1  Mg   0.662942
     2  C   -0.050520
     3  C   -0.062822
     4  C   -0.025852
     5  C   -0.049386
     6  N   -0.208929
     7  C   -0.078788
     8  C    0.061415
     9  C    0.011742
    10  C    0.041474
    11  C    0.140240
    12  C    0.094523
    13  C    0.113783
    14  C    0.058137
    15  O   -0.143876
    16  O   -0.294219
    17  N   -0.293064
    18  C    0.068961
    19  C   -0.157958
    20  C    0.044496
    21  C    0.131907
    22  C    0.176223
    23  C   -0.078219
    24  O   -0.175619
    25  C    0.165865
    26  N   -0.211664
    27  C   -0.083734
    28  C    0.059869
    29  C    0.034872
    30  C   -0.007011
    31  C    0.132171
    32  C    0.061405
    33  C    0.074355
    34  N   -0.255145
    35  C    0.115061
    36  C   -0.210678
    37  C    0.190492
    38  C    0.097119
    39  C    0.190842
    40  C   -0.140903
    41  O   -0.119801
    42  C    0.162494
    43  C    0.091982
    44  O   -0.200255
    45  O   -0.258760
    46  C    0.220071
    47  C    0.301026
    48  C   -0.089249
    49  C   -0.148175
    50  C    0.127961
    51  C    0.118303
    52  C    0.094233
    53  C    0.089966
    54  C   -0.052565
    55  C    0.092002
    56  C    0.172108
    57  C    0.035510
    58  C    0.116585
    59  C   -0.134321
    60  C    0.146336
    61  C    0.120689
    62  C    0.106470
    63  C    0.067892
    64  C   -0.167986
    65  C    0.118524
    66  C    0.111922
    67  H   -0.055728
    68  H   -0.104453
    69  H   -0.080642
    70  H   -0.043089
    71  H   -0.030673
    72  H    0.006444
    73  H   -0.007132
    74  H    0.008002
    75  H   -0.006532
    76  H   -0.017633
    77  H    0.012536
    78  H    0.013527
    79  H   -0.019288
    80  H    0.000902
    81  H    0.001774
    82  H    0.004294
    83  H   -0.004143
    84  H    0.022413
    85  H   -0.022385
    86  H   -0.032617
    87  H   -0.003973
    88  H   -0.000889
    89  H    0.006016
    90  H   -0.004905
    91  H   -0.014784
    92  H    0.001129
    93  H   -0.008651
    94  H    0.001899
    95  H   -0.009852
    96  H    0.021689
    97  H    0.003841
    98  H   -0.018525
    99  H    0.001813
   100  H    0.016601
   101  H    0.023890
   102  H   -0.004081
   103  H    0.000564
   104  H   -0.021295
   105  H    0.017895
   106  H   -0.008117
   107  H   -0.035126
   108  H   -0.020421
   109  H   -0.049330
   110  H   -0.029764
   111  H   -0.022448
   112  H   -0.048429
   113  H   -0.040404
   114  H   -0.033327
   115  H   -0.019926
   116  H   -0.023367
   117  H   -0.020736
   118  H   -0.021809
   119  H   -0.034798
   120  H   -0.045604
   121  H   -0.026529
   122  H   -0.043741
   123  H   -0.041507
   124  H   -0.039456
   125  H   -0.017995
   126  H   -0.011284
   127  H   -0.012728
   128  H   -0.030820
   129  H   -0.036618
   130  H   -0.032984
   131  H   -0.035560
   132  H   -0.047255
   133  H   -0.037305
   134  H   -0.025440
   135  H   -0.026257
   136  H   -0.003755
   137  H   -0.009235
   138  H   -0.029560
   139  H    0.004650
   140  H   -0.019444
 Sum of Mulliken charges =  -0.00000

 Dipole moment (field-independent basis, Debye):
    X=             -0.9797    Y=              3.0581    Z=              1.5621  Tot=              3.5710
 Quadrupole moment (field-independent basis, Debye-Ang):
   XX=           -402.9313   YY=           -389.7508   ZZ=           -411.1900
   XY=            -46.6401   XZ=            -20.3937   YZ=            -35.2701

 Normal termination of Gaussian 16 at Thu Apr 28 10:08:46 2022.
