 Gaussian 16, Revision A.03,
 Gaussian 16:  ES64L-G16RevA.03 25-Dec-2016

 -----------------------------------
 #p cam-b3lyp/Def2SVP td=(nstates=5)
 -----------------------------------

 -------------------------------------------------------
 step_151_chromophore_11 TDDFT with cam-b3lyp functional
 -------------------------------------------------------
 Symbolic Z-matrix:
 Charge =  0 Multiplicity = 1

                         Standard orientation:
 ---------------------------------------------------------------------
 Center     Atomic      Atomic             Coordinates (Angstroms)
 Number     Number       Type             X           Y           Z
 ---------------------------------------------------------------------
      1         12           0       -4.543521    1.400365    0.703699
      2          6           0       -5.563104   -2.010820   -0.054483
      3          6           0       -2.519295    0.163103    3.104628
      4          6           0       -3.121407    4.369359    0.681286
      5          6           0       -6.677295    2.425867   -1.825414
      6          7           0       -3.933424   -0.803622    1.232104
      7          6           0       -4.549409   -1.990759    0.963566
      8          6           0       -4.101593   -3.035214    1.957278
      9          6           0       -3.409754   -2.208282    3.026621
     10          6           0       -3.172438   -0.895477    2.425940
     11          6           0       -4.223806   -2.059267    4.383517
     12          6           0       -3.191517   -4.113493    1.332677
     13          6           0       -1.962395   -3.631604    0.460139
     14          6           0       -0.637154   -4.371197    0.653452
     15          8           0       -0.352608   -5.348553    0.055152
     16          8           0        0.224777   -3.694511    1.530249
     17          7           0       -2.892333    2.092808    1.689709
     18          6           0       -2.278654    1.518425    2.704921
     19          6           0       -1.415936    2.469501    3.257458
     20          6           0       -1.518859    3.734267    2.594587
     21          6           0       -2.546113    3.458575    1.611790
     22          6           0       -0.316291    2.093859    4.353473
     23          6           0       -0.651405    4.973571    2.924343
     24          8           0        0.089460    4.933520    3.906267
     25          6           0       -0.663132    6.185661    2.144245
     26          7           0       -4.574133    3.151739   -0.688791
     27          6           0       -4.015526    4.324275   -0.333716
     28          6           0       -4.586155    5.509332   -1.132480
     29          6           0       -5.765174    4.864680   -1.910512
     30          6           0       -5.696364    3.424204   -1.449405
     31          6           0       -4.980747    6.726689   -0.249745
     32          6           0       -5.653475    4.920990   -3.461759
     33          6           0       -6.937692    4.799932   -4.354227
     34          7           0       -6.006013    0.486222   -0.561709
     35          6           0       -6.828367    1.064728   -1.470978
     36          6           0       -7.729659    0.013908   -1.982002
     37          6           0       -7.244676   -1.200851   -1.500929
     38          6           0       -6.139505   -0.891628   -0.672733
     39          6           0       -8.886940    0.356161   -2.849115
     40          6           0       -7.394991   -2.582692   -1.511285
     41          8           0       -8.146772   -3.265272   -2.174345
     42          6           0       -6.332907   -3.184783   -0.572227
     43          6           0       -5.486576   -3.963287   -1.468314
     44          8           0       -4.864171   -3.499801   -2.428258
     45          8           0       -5.520588   -5.311177   -1.199852
     46          6           0       -4.580516   -6.108949   -1.986768
     47          6           0        1.562442   -4.232305    1.750525
     48          6           0        2.441131   -3.756918    0.564212
     49          6           0        3.678493   -4.153207    0.232063
     50          6           0        4.565998   -5.013904    1.156469
     51          6           0        4.401614   -3.547173   -0.934727
     52          6           0        4.722550   -2.062749   -0.846674
     53          6           0        5.804140   -1.597616   -1.860952
     54          6           0        6.469800   -0.175764   -1.641522
     55          6           0        6.277000    0.692231   -2.891394
     56          6           0        7.854157   -0.267109   -1.153582
     57          6           0        7.960654    0.326135    0.268389
     58          6           0        9.143956    1.351187    0.321386
     59          6           0       10.431747    0.579037    0.463342
     60          6           0       10.812546    0.427850    1.930755
     61          6           0       11.477240    1.208109   -0.462447
     62          6           0       12.735073    0.317298   -0.669713
     63          6           0       14.072322    1.007833   -0.509514
     64          6           0       14.989067    0.956943   -1.831372
     65          6           0       16.333270    0.355191   -1.412923
     66          6           0       15.128926    2.446808   -2.340434
     67          1           0       -2.047900    0.064311    4.084689
     68          1           0       -2.815126    5.411867    0.786403
     69          1           0       -7.463532    2.813537   -2.477452
     70          1           0       -4.942425   -3.506764    2.463973
     71          1           0       -2.391357   -2.568483    3.169105
     72          1           0       -3.429646   -1.720067    5.048182
     73          1           0       -4.501790   -3.093637    4.584599
     74          1           0       -5.100835   -1.412332    4.373255
     75          1           0       -3.844890   -4.767088    0.754918
     76          1           0       -2.821536   -4.718680    2.160365
     77          1           0       -1.726608   -2.579619    0.618639
     78          1           0       -2.274823   -3.766826   -0.575894
     79          1           0       -0.216512    1.012251    4.445716
     80          1           0       -0.528632    2.611636    5.289382
     81          1           0        0.626223    2.494408    3.981201
     82          1           0       -0.421967    5.851059    1.135839
     83          1           0        0.035288    6.971878    2.431585
     84          1           0       -1.689815    6.552206    2.142421
     85          1           0       -3.815122    5.773699   -1.856494
     86          1           0       -6.666612    5.374654   -1.572751
     87          1           0       -4.890360    6.476854    0.806771
     88          1           0       -6.016758    7.036437   -0.386733
     89          1           0       -4.191413    7.420210   -0.540657
     90          1           0       -5.037125    4.057321   -3.713221
     91          1           0       -5.211671    5.897532   -3.664836
     92          1           0       -6.950272    3.842358   -4.874960
     93          1           0       -7.007013    5.500279   -5.187720
     94          1           0       -7.735904    4.945681   -3.626403
     95          1           0       -8.730245    1.319565   -3.333261
     96          1           0       -9.752061    0.179749   -2.210190
     97          1           0       -8.855243   -0.343879   -3.683982
     98          1           0       -6.735526   -3.754406    0.265909
     99          1           0       -4.505811   -7.038984   -1.422836
    100          1           0       -3.575770   -5.686668   -1.997608
    101          1           0       -4.822984   -6.396451   -3.010383
    102          1           0        1.547306   -5.322253    1.780559
    103          1           0        1.913266   -4.029048    2.762354
    104          1           0        1.860651   -3.297832   -0.236022
    105          1           0        5.349838   -4.430426    1.639530
    106          1           0        4.879924   -5.877376    0.569501
    107          1           0        4.043911   -5.615540    1.899902
    108          1           0        3.782254   -3.768278   -1.803480
    109          1           0        5.346634   -4.072113   -1.075529
    110          1           0        4.971174   -1.988910    0.212491
    111          1           0        3.772112   -1.556177   -1.014286
    112          1           0        5.343601   -1.535428   -2.846948
    113          1           0        6.585085   -2.350356   -1.972522
    114          1           0        5.811923    0.285723   -0.904451
    115          1           0        5.424250    0.367744   -3.487417
    116          1           0        7.181071    0.671469   -3.499929
    117          1           0        6.106192    1.752232   -2.702785
    118          1           0        8.562165    0.296242   -1.761422
    119          1           0        8.093166   -1.324292   -1.037183
    120          1           0        8.266281   -0.499965    0.911726
    121          1           0        7.079875    0.807866    0.693106
    122          1           0        9.057278    2.017172    1.179967
    123          1           0        9.083068    1.898248   -0.619498
    124          1           0       10.274057   -0.457554    0.165893
    125          1           0       11.650355    1.114488    2.051841
    126          1           0       11.069452   -0.628258    2.013949
    127          1           0       10.002729    0.706269    2.604939
    128          1           0       11.753395    2.212392   -0.139776
    129          1           0       11.125923    1.239809   -1.494159
    130          1           0       12.881218   -0.023306   -1.694593
    131          1           0       12.772924   -0.475588    0.076963
    132          1           0       14.660009    0.460483    0.227900
    133          1           0       14.024428    2.039315   -0.161133
    134          1           0       14.600189    0.388835   -2.675674
    135          1           0       17.114174    0.604945   -2.131367
    136          1           0       16.176877   -0.720184   -1.325921
    137          1           0       16.617549    0.872844   -0.496772
    138          1           0       16.089980    2.665068   -1.874631
    139          1           0       14.293249    3.079702   -2.042877
    140          1           0       15.311221    2.366408   -3.411371
 ---------------------------------------------------------------------

 SCF Done:  E(RCAM-B3LYP) =  -3007.12291881     A.U. after   19 cycles

 Excitation energies and oscillator strengths:

 Excited State   1:      Singlet-A      1.7196 eV  720.99 nm  f=0.3455  <S**2>=0.000
     245 -> 248        0.18774
     246 -> 247        0.68383
     245 <- 248        0.10911
 This state for optimization and/or second-order correction.
 Total Energy, E(TD-HF/TD-DFT) =  -3007.05972317
 Copying the excited state density for this state as the 1-particle RhoCI density.

 Excited State   2:      Singlet-A      2.1755 eV  569.90 nm  f=0.0998  <S**2>=0.000
     245 -> 247        0.64247
     246 -> 248       -0.28289

 Excited State   3:      Singlet-A      3.3300 eV  372.33 nm  f=0.0284  <S**2>=0.000
     242 -> 247       -0.43792
     244 -> 247        0.49868
     246 -> 248        0.18753

 Excited State   4:      Singlet-A      3.4251 eV  361.99 nm  f=0.1191  <S**2>=0.000
     242 -> 247        0.33782
     244 -> 247        0.44748
     245 -> 247       -0.11005
     246 -> 248       -0.37387

 Excited State   5:      Singlet-A      3.4683 eV  357.48 nm  f=0.0589  <S**2>=0.000
     239 -> 247        0.47302
     239 -> 249       -0.27123
     239 -> 250        0.13124
     240 -> 247        0.28701
     240 -> 249       -0.12816
     246 -> 248       -0.18955

 The electronic state is 1-A.
 Alpha  occ. eigenvalues --  -46.90309 -19.25563 -19.24218 -19.20085 -19.19631
 Alpha  occ. eigenvalues --  -19.19112 -19.17911 -14.42150 -14.41938 -14.39650
 Alpha  occ. eigenvalues --  -14.39073 -10.39314 -10.39140 -10.34826 -10.34648
 Alpha  occ. eigenvalues --  -10.32111 -10.32100 -10.32015 -10.31315 -10.30722
 Alpha  occ. eigenvalues --  -10.30714 -10.30247 -10.30048 -10.29814 -10.29297
 Alpha  occ. eigenvalues --  -10.28519 -10.28413 -10.28384 -10.28305 -10.28295
 Alpha  occ. eigenvalues --  -10.28197 -10.27983 -10.27505 -10.27472 -10.27323
 Alpha  occ. eigenvalues --  -10.27256 -10.27203 -10.27078 -10.26935 -10.26685
 Alpha  occ. eigenvalues --  -10.26574 -10.26428 -10.26378 -10.26363 -10.26299
 Alpha  occ. eigenvalues --  -10.25912 -10.25775 -10.25550 -10.25354 -10.25343
 Alpha  occ. eigenvalues --  -10.24984 -10.24756 -10.24663 -10.24631 -10.24630
 Alpha  occ. eigenvalues --  -10.24337 -10.24328 -10.24306 -10.24164 -10.24140
 Alpha  occ. eigenvalues --  -10.24027 -10.23939 -10.23938 -10.23930 -10.23864
 Alpha  occ. eigenvalues --  -10.23641  -3.18576  -1.93435  -1.93078  -1.92844
 Alpha  occ. eigenvalues --   -1.16402  -1.16372  -1.10883  -1.09129  -1.08670
 Alpha  occ. eigenvalues --   -1.07255  -1.04425  -1.03775  -1.03325  -1.02600
 Alpha  occ. eigenvalues --   -0.94298  -0.90626  -0.89889  -0.89797  -0.89612
 Alpha  occ. eigenvalues --   -0.88628  -0.88553  -0.87933  -0.87499  -0.86965
 Alpha  occ. eigenvalues --   -0.85593  -0.84602  -0.84432  -0.84142  -0.83448
 Alpha  occ. eigenvalues --   -0.82703  -0.82479  -0.81736  -0.80763  -0.80429
 Alpha  occ. eigenvalues --   -0.79733  -0.78488  -0.77931  -0.77079  -0.76395
 Alpha  occ. eigenvalues --   -0.75489  -0.75081  -0.74928  -0.74560  -0.74114
 Alpha  occ. eigenvalues --   -0.73233  -0.72902  -0.72309  -0.70987  -0.69860
 Alpha  occ. eigenvalues --   -0.69465  -0.67865  -0.67088  -0.66356  -0.66037
 Alpha  occ. eigenvalues --   -0.65701  -0.64858  -0.64674  -0.64075  -0.63492
 Alpha  occ. eigenvalues --   -0.62917  -0.62827  -0.62542  -0.62262  -0.60540
 Alpha  occ. eigenvalues --   -0.59762  -0.59678  -0.59532  -0.59127  -0.58814
 Alpha  occ. eigenvalues --   -0.57814  -0.57258  -0.56235  -0.55924  -0.55771
 Alpha  occ. eigenvalues --   -0.55295  -0.55044  -0.54707  -0.54289  -0.54233
 Alpha  occ. eigenvalues --   -0.54057  -0.53774  -0.53379  -0.52801  -0.52709
 Alpha  occ. eigenvalues --   -0.52348  -0.52272  -0.52159  -0.51958  -0.51935
 Alpha  occ. eigenvalues --   -0.51503  -0.51455  -0.51324  -0.51072  -0.50954
 Alpha  occ. eigenvalues --   -0.50733  -0.50260  -0.50165  -0.49998  -0.49945
 Alpha  occ. eigenvalues --   -0.49646  -0.49606  -0.49347  -0.49112  -0.48947
 Alpha  occ. eigenvalues --   -0.48618  -0.48530  -0.48397  -0.48011  -0.47860
 Alpha  occ. eigenvalues --   -0.47631  -0.47473  -0.47297  -0.46647  -0.46430
 Alpha  occ. eigenvalues --   -0.46227  -0.46146  -0.46051  -0.46008  -0.45383
 Alpha  occ. eigenvalues --   -0.45349  -0.45256  -0.45183  -0.45081  -0.44973
 Alpha  occ. eigenvalues --   -0.44912  -0.44565  -0.44475  -0.44250  -0.44075
 Alpha  occ. eigenvalues --   -0.43522  -0.43435  -0.43262  -0.42919  -0.42797
 Alpha  occ. eigenvalues --   -0.42752  -0.42404  -0.42102  -0.41824  -0.41674
 Alpha  occ. eigenvalues --   -0.41424  -0.41369  -0.41085  -0.40866  -0.40799
 Alpha  occ. eigenvalues --   -0.40511  -0.40380  -0.40240  -0.40015  -0.39780
 Alpha  occ. eigenvalues --   -0.39711  -0.39563  -0.39221  -0.38936  -0.38892
 Alpha  occ. eigenvalues --   -0.38434  -0.38049  -0.37837  -0.37636  -0.37482
 Alpha  occ. eigenvalues --   -0.37330  -0.36986  -0.36912  -0.36778  -0.36585
 Alpha  occ. eigenvalues --   -0.36035  -0.35023  -0.34647  -0.34472  -0.34205
 Alpha  occ. eigenvalues --   -0.34122  -0.33393  -0.32918  -0.31737  -0.31065
 Alpha  occ. eigenvalues --   -0.30488  -0.30199  -0.29507  -0.29121  -0.23979
 Alpha  occ. eigenvalues --   -0.21365
 Alpha virt. eigenvalues --   -0.08761  -0.02020  -0.00008   0.00812   0.02517
 Alpha virt. eigenvalues --    0.04762   0.05383   0.05681   0.05968   0.07257
 Alpha virt. eigenvalues --    0.08212   0.08268   0.08765   0.09052   0.09398

 Mulliken charges:
               1
     1  Mg   0.792514
     2  C   -0.083284
     3  C   -0.071242
     4  C   -0.053832
     5  C   -0.069155
     6  N   -0.269375
     7  C   -0.031411
     8  C    0.007573
     9  C   -0.054948
    10  C    0.060442
    11  C    0.086279
    12  C    0.048929
    13  C    0.043959
    14  C    0.140584
    15  O   -0.181673
    16  O   -0.359687
    17  N   -0.380725
    18  C    0.069606
    19  C   -0.166987
    20  C   -0.026053
    21  C    0.157649
    22  C    0.124391
    23  C    0.000567
    24  O   -0.216984
    25  C    0.079217
    26  N   -0.276849
    27  C   -0.055665
    28  C    0.004450
    29  C   -0.022185
    30  C    0.020196
    31  C    0.069839
    32  C    0.007873
    33  C    0.010337
    34  N   -0.344929
    35  C    0.127351
    36  C   -0.195778
    37  C    0.103406
    38  C    0.141303
    39  C    0.139184
    40  C   -0.040886
    41  O   -0.155085
    42  C    0.079196
    43  C    0.183914
    44  O   -0.235392
    45  O   -0.321491
    46  C    0.179643
    47  C    0.269630
    48  C   -0.107101
    49  C   -0.171859
    50  C    0.065727
    51  C    0.062007
    52  C    0.042273
    53  C    0.038279
    54  C   -0.114683
    55  C    0.038795
    56  C    0.114218
    57  C   -0.015357
    58  C    0.058981
    59  C   -0.188400
    60  C    0.087032
    61  C    0.066126
    62  C    0.051363
    63  C    0.013931
    64  C   -0.220742
    65  C    0.053768
    66  C    0.053443
    67  H   -0.020296
    68  H   -0.070232
    69  H   -0.045790
    70  H   -0.004295
    71  H    0.007546
    72  H    0.029466
    73  H    0.014469
    74  H    0.031823
    75  H    0.019994
    76  H    0.014520
    77  H    0.045683
    78  H    0.042211
    79  H    0.003399
    80  H    0.026704
    81  H    0.027405
    82  H    0.031589
    83  H    0.030884
    84  H    0.045035
    85  H    0.014142
    86  H    0.002353
    87  H    0.022141
    88  H    0.023411
    89  H    0.029152
    90  H    0.024455
    91  H    0.014124
    92  H    0.023437
    93  H    0.018381
    94  H    0.021409
    95  H    0.015961
    96  H    0.049699
    97  H    0.033716
    98  H    0.028530
    99  H    0.026530
   100  H    0.038480
   101  H    0.047601
   102  H    0.025368
   103  H    0.028718
   104  H    0.008687
   105  H    0.040396
   106  H    0.017057
   107  H   -0.009659
   108  H    0.008798
   109  H   -0.018614
   110  H   -0.003363
   111  H    0.004103
   112  H   -0.018227
   113  H   -0.013227
   114  H    0.000058
   115  H    0.004496
   116  H   -0.000364
   117  H    0.003942
   118  H    0.003096
   119  H   -0.004733
   120  H   -0.017634
   121  H    0.002692
   122  H   -0.013231
   123  H   -0.011913
   124  H   -0.008498
   125  H    0.005528
   126  H    0.011423
   127  H    0.012314
   128  H   -0.003360
   129  H   -0.007127
   130  H   -0.003983
   131  H   -0.007258
   132  H   -0.015456
   133  H   -0.009263
   134  H    0.003666
   135  H   -0.000087
   136  H    0.020506
   137  H    0.013047
   138  H   -0.005512
   139  H    0.026668
   140  H    0.005092
 Sum of Mulliken charges =  -0.00000

 Dipole moment (field-independent basis, Debye):
    X=             -1.6993    Y=              2.7933    Z=              1.1590  Tot=              3.4689
 Quadrupole moment (field-independent basis, Debye-Ang):
   XX=           -395.7082   YY=           -386.6613   ZZ=           -411.3631
   XY=            -46.5532   XZ=            -18.7646   YZ=            -37.6884

 Normal termination of Gaussian 16 at Thu Apr 28 08:48:53 2022.
