 Gaussian 16, Revision A.03,
 Gaussian 16:  ES64L-G16RevA.03 25-Dec-2016

 ---------------------------------
 #p PBE1PBE/Def2SVP td=(nstates=5)
 ---------------------------------

 -----------------------------------------------------
 step_151_chromophore_11 TDDFT with PBE1PBE functional
 -----------------------------------------------------
 Symbolic Z-matrix:
 Charge =  0 Multiplicity = 1

                         Standard orientation:
 ---------------------------------------------------------------------
 Center     Atomic      Atomic             Coordinates (Angstroms)
 Number     Number       Type             X           Y           Z
 ---------------------------------------------------------------------
      1         12           0       -4.543521    1.400365    0.703699
      2          6           0       -5.563104   -2.010820   -0.054483
      3          6           0       -2.519295    0.163103    3.104628
      4          6           0       -3.121407    4.369359    0.681286
      5          6           0       -6.677295    2.425867   -1.825414
      6          7           0       -3.933424   -0.803622    1.232104
      7          6           0       -4.549409   -1.990759    0.963566
      8          6           0       -4.101593   -3.035214    1.957278
      9          6           0       -3.409754   -2.208282    3.026621
     10          6           0       -3.172438   -0.895477    2.425940
     11          6           0       -4.223806   -2.059267    4.383517
     12          6           0       -3.191517   -4.113493    1.332677
     13          6           0       -1.962395   -3.631604    0.460139
     14          6           0       -0.637154   -4.371197    0.653452
     15          8           0       -0.352608   -5.348553    0.055152
     16          8           0        0.224777   -3.694511    1.530249
     17          7           0       -2.892333    2.092808    1.689709
     18          6           0       -2.278654    1.518425    2.704921
     19          6           0       -1.415936    2.469501    3.257458
     20          6           0       -1.518859    3.734267    2.594587
     21          6           0       -2.546113    3.458575    1.611790
     22          6           0       -0.316291    2.093859    4.353473
     23          6           0       -0.651405    4.973571    2.924343
     24          8           0        0.089460    4.933520    3.906267
     25          6           0       -0.663132    6.185661    2.144245
     26          7           0       -4.574133    3.151739   -0.688791
     27          6           0       -4.015526    4.324275   -0.333716
     28          6           0       -4.586155    5.509332   -1.132480
     29          6           0       -5.765174    4.864680   -1.910512
     30          6           0       -5.696364    3.424204   -1.449405
     31          6           0       -4.980747    6.726689   -0.249745
     32          6           0       -5.653475    4.920990   -3.461759
     33          6           0       -6.937692    4.799932   -4.354227
     34          7           0       -6.006013    0.486222   -0.561709
     35          6           0       -6.828367    1.064728   -1.470978
     36          6           0       -7.729659    0.013908   -1.982002
     37          6           0       -7.244676   -1.200851   -1.500929
     38          6           0       -6.139505   -0.891628   -0.672733
     39          6           0       -8.886940    0.356161   -2.849115
     40          6           0       -7.394991   -2.582692   -1.511285
     41          8           0       -8.146772   -3.265272   -2.174345
     42          6           0       -6.332907   -3.184783   -0.572227
     43          6           0       -5.486576   -3.963287   -1.468314
     44          8           0       -4.864171   -3.499801   -2.428258
     45          8           0       -5.520588   -5.311177   -1.199852
     46          6           0       -4.580516   -6.108949   -1.986768
     47          6           0        1.562442   -4.232305    1.750525
     48          6           0        2.441131   -3.756918    0.564212
     49          6           0        3.678493   -4.153207    0.232063
     50          6           0        4.565998   -5.013904    1.156469
     51          6           0        4.401614   -3.547173   -0.934727
     52          6           0        4.722550   -2.062749   -0.846674
     53          6           0        5.804140   -1.597616   -1.860952
     54          6           0        6.469800   -0.175764   -1.641522
     55          6           0        6.277000    0.692231   -2.891394
     56          6           0        7.854157   -0.267109   -1.153582
     57          6           0        7.960654    0.326135    0.268389
     58          6           0        9.143956    1.351187    0.321386
     59          6           0       10.431747    0.579037    0.463342
     60          6           0       10.812546    0.427850    1.930755
     61          6           0       11.477240    1.208109   -0.462447
     62          6           0       12.735073    0.317298   -0.669713
     63          6           0       14.072322    1.007833   -0.509514
     64          6           0       14.989067    0.956943   -1.831372
     65          6           0       16.333270    0.355191   -1.412923
     66          6           0       15.128926    2.446808   -2.340434
     67          1           0       -2.047900    0.064311    4.084689
     68          1           0       -2.815126    5.411867    0.786403
     69          1           0       -7.463532    2.813537   -2.477452
     70          1           0       -4.942425   -3.506764    2.463973
     71          1           0       -2.391357   -2.568483    3.169105
     72          1           0       -3.429646   -1.720067    5.048182
     73          1           0       -4.501790   -3.093637    4.584599
     74          1           0       -5.100835   -1.412332    4.373255
     75          1           0       -3.844890   -4.767088    0.754918
     76          1           0       -2.821536   -4.718680    2.160365
     77          1           0       -1.726608   -2.579619    0.618639
     78          1           0       -2.274823   -3.766826   -0.575894
     79          1           0       -0.216512    1.012251    4.445716
     80          1           0       -0.528632    2.611636    5.289382
     81          1           0        0.626223    2.494408    3.981201
     82          1           0       -0.421967    5.851059    1.135839
     83          1           0        0.035288    6.971878    2.431585
     84          1           0       -1.689815    6.552206    2.142421
     85          1           0       -3.815122    5.773699   -1.856494
     86          1           0       -6.666612    5.374654   -1.572751
     87          1           0       -4.890360    6.476854    0.806771
     88          1           0       -6.016758    7.036437   -0.386733
     89          1           0       -4.191413    7.420210   -0.540657
     90          1           0       -5.037125    4.057321   -3.713221
     91          1           0       -5.211671    5.897532   -3.664836
     92          1           0       -6.950272    3.842358   -4.874960
     93          1           0       -7.007013    5.500279   -5.187720
     94          1           0       -7.735904    4.945681   -3.626403
     95          1           0       -8.730245    1.319565   -3.333261
     96          1           0       -9.752061    0.179749   -2.210190
     97          1           0       -8.855243   -0.343879   -3.683982
     98          1           0       -6.735526   -3.754406    0.265909
     99          1           0       -4.505811   -7.038984   -1.422836
    100          1           0       -3.575770   -5.686668   -1.997608
    101          1           0       -4.822984   -6.396451   -3.010383
    102          1           0        1.547306   -5.322253    1.780559
    103          1           0        1.913266   -4.029048    2.762354
    104          1           0        1.860651   -3.297832   -0.236022
    105          1           0        5.349838   -4.430426    1.639530
    106          1           0        4.879924   -5.877376    0.569501
    107          1           0        4.043911   -5.615540    1.899902
    108          1           0        3.782254   -3.768278   -1.803480
    109          1           0        5.346634   -4.072113   -1.075529
    110          1           0        4.971174   -1.988910    0.212491
    111          1           0        3.772112   -1.556177   -1.014286
    112          1           0        5.343601   -1.535428   -2.846948
    113          1           0        6.585085   -2.350356   -1.972522
    114          1           0        5.811923    0.285723   -0.904451
    115          1           0        5.424250    0.367744   -3.487417
    116          1           0        7.181071    0.671469   -3.499929
    117          1           0        6.106192    1.752232   -2.702785
    118          1           0        8.562165    0.296242   -1.761422
    119          1           0        8.093166   -1.324292   -1.037183
    120          1           0        8.266281   -0.499965    0.911726
    121          1           0        7.079875    0.807866    0.693106
    122          1           0        9.057278    2.017172    1.179967
    123          1           0        9.083068    1.898248   -0.619498
    124          1           0       10.274057   -0.457554    0.165893
    125          1           0       11.650355    1.114488    2.051841
    126          1           0       11.069452   -0.628258    2.013949
    127          1           0       10.002729    0.706269    2.604939
    128          1           0       11.753395    2.212392   -0.139776
    129          1           0       11.125923    1.239809   -1.494159
    130          1           0       12.881218   -0.023306   -1.694593
    131          1           0       12.772924   -0.475588    0.076963
    132          1           0       14.660009    0.460483    0.227900
    133          1           0       14.024428    2.039315   -0.161133
    134          1           0       14.600189    0.388835   -2.675674
    135          1           0       17.114174    0.604945   -2.131367
    136          1           0       16.176877   -0.720184   -1.325921
    137          1           0       16.617549    0.872844   -0.496772
    138          1           0       16.089980    2.665068   -1.874631
    139          1           0       14.293249    3.079702   -2.042877
    140          1           0       15.311221    2.366408   -3.411371
 ---------------------------------------------------------------------

 SCF Done:  E(RPBE1PBE) =  -3005.31219223     A.U. after   15 cycles

 Excitation energies and oscillator strengths:

 Excited State   1:      Singlet-A      1.8491 eV  670.50 nm  f=0.3355  <S**2>=0.000
     245 -> 248       -0.18352
     246 -> 247        0.69038
     246 <- 247       -0.10119
 This state for optimization and/or second-order correction.
 Total Energy, E(TD-HF/TD-DFT) =  -3005.24423780
 Copying the excited state density for this state as the 1-particle RhoCI density.

 Excited State   2:      Singlet-A      2.1807 eV  568.54 nm  f=0.0952  <S**2>=0.000
     245 -> 247        0.65315
     246 -> 248        0.26005

 Excited State   3:      Singlet-A      2.9581 eV  419.14 nm  f=0.0009  <S**2>=0.000
     243 -> 247        0.69436

 Excited State   4:      Singlet-A      3.0326 eV  408.84 nm  f=0.0007  <S**2>=0.000
     239 -> 247        0.13747
     240 -> 247        0.54890
     240 -> 249        0.17317
     241 -> 247       -0.35095
     242 -> 247        0.10678

 Excited State   5:      Singlet-A      3.1122 eV  398.38 nm  f=0.0022  <S**2>=0.000
     240 -> 247       -0.19443
     241 -> 247       -0.13719
     242 -> 247        0.62480
     246 -> 248        0.13275

 The electronic state is 1-A.
 Alpha  occ. eigenvalues --  -46.93672 -19.26071 -19.24929 -19.20281 -19.19718
 Alpha  occ. eigenvalues --  -19.19057 -19.18371 -14.41630 -14.41422 -14.39181
 Alpha  occ. eigenvalues --  -14.38871 -10.36196 -10.36144 -10.32016 -10.31700
 Alpha  occ. eigenvalues --  -10.29633 -10.29530 -10.29507 -10.28644 -10.28452
 Alpha  occ. eigenvalues --  -10.28275 -10.28068 -10.27926 -10.27214 -10.26562
 Alpha  occ. eigenvalues --  -10.26276 -10.26230 -10.26226 -10.26102 -10.26080
 Alpha  occ. eigenvalues --  -10.25715 -10.25561 -10.25166 -10.25094 -10.24996
 Alpha  occ. eigenvalues --  -10.24937 -10.24812 -10.24794 -10.24655 -10.24491
 Alpha  occ. eigenvalues --  -10.24446 -10.24081 -10.24065 -10.23766 -10.23756
 Alpha  occ. eigenvalues --  -10.23373 -10.23169 -10.23064 -10.22920 -10.22918
 Alpha  occ. eigenvalues --  -10.22522 -10.22375 -10.22336 -10.22293 -10.22239
 Alpha  occ. eigenvalues --  -10.22000 -10.21905 -10.21735 -10.21615 -10.21580
 Alpha  occ. eigenvalues --  -10.21541 -10.21531 -10.21503 -10.21403 -10.21342
 Alpha  occ. eigenvalues --  -10.21230  -3.15529  -1.88325  -1.87947  -1.87718
 Alpha  occ. eigenvalues --   -1.11184  -1.10991  -1.05373  -1.04086  -1.03554
 Alpha  occ. eigenvalues --   -1.01914  -0.98990  -0.98286  -0.98097  -0.97263
 Alpha  occ. eigenvalues --   -0.88501  -0.84740  -0.84077  -0.84046  -0.83830
 Alpha  occ. eigenvalues --   -0.82951  -0.82757  -0.82154  -0.81628  -0.81114
 Alpha  occ. eigenvalues --   -0.79909  -0.79070  -0.78613  -0.78401  -0.77660
 Alpha  occ. eigenvalues --   -0.77070  -0.76672  -0.76001  -0.75079  -0.74636
 Alpha  occ. eigenvalues --   -0.73914  -0.72723  -0.72226  -0.71358  -0.70741
 Alpha  occ. eigenvalues --   -0.69655  -0.69191  -0.69065  -0.68955  -0.68304
 Alpha  occ. eigenvalues --   -0.67542  -0.67295  -0.66692  -0.65345  -0.64195
 Alpha  occ. eigenvalues --   -0.63870  -0.62100  -0.61700  -0.60604  -0.60373
 Alpha  occ. eigenvalues --   -0.60141  -0.59398  -0.59240  -0.58314  -0.57643
 Alpha  occ. eigenvalues --   -0.57374  -0.57021  -0.57005  -0.56446  -0.55009
 Alpha  occ. eigenvalues --   -0.54208  -0.54033  -0.53943  -0.53657  -0.53467
 Alpha  occ. eigenvalues --   -0.52432  -0.51660  -0.50830  -0.50493  -0.50325
 Alpha  occ. eigenvalues --   -0.49675  -0.49438  -0.49178  -0.48798  -0.48686
 Alpha  occ. eigenvalues --   -0.48490  -0.48344  -0.47934  -0.47344  -0.47284
 Alpha  occ. eigenvalues --   -0.46823  -0.46739  -0.46641  -0.46443  -0.46383
 Alpha  occ. eigenvalues --   -0.46163  -0.45989  -0.45888  -0.45671  -0.45587
 Alpha  occ. eigenvalues --   -0.45256  -0.44799  -0.44681  -0.44582  -0.44512
 Alpha  occ. eigenvalues --   -0.44276  -0.44095  -0.44044  -0.43667  -0.43561
 Alpha  occ. eigenvalues --   -0.43247  -0.43185  -0.43113  -0.42643  -0.42508
 Alpha  occ. eigenvalues --   -0.42303  -0.42115  -0.41914  -0.41290  -0.41207
 Alpha  occ. eigenvalues --   -0.40878  -0.40813  -0.40746  -0.40636  -0.40141
 Alpha  occ. eigenvalues --   -0.40040  -0.39941  -0.39861  -0.39734  -0.39594
 Alpha  occ. eigenvalues --   -0.39548  -0.39399  -0.39248  -0.38963  -0.38896
 Alpha  occ. eigenvalues --   -0.38326  -0.38141  -0.37997  -0.37762  -0.37584
 Alpha  occ. eigenvalues --   -0.37497  -0.37106  -0.36840  -0.36584  -0.36558
 Alpha  occ. eigenvalues --   -0.36444  -0.36213  -0.35904  -0.35810  -0.35776
 Alpha  occ. eigenvalues --   -0.35393  -0.35140  -0.35119  -0.35018  -0.34625
 Alpha  occ. eigenvalues --   -0.34545  -0.34406  -0.34145  -0.33795  -0.33691
 Alpha  occ. eigenvalues --   -0.33239  -0.32785  -0.32665  -0.32502  -0.32423
 Alpha  occ. eigenvalues --   -0.32154  -0.31968  -0.31919  -0.31583  -0.31493
 Alpha  occ. eigenvalues --   -0.31008  -0.29897  -0.29767  -0.29119  -0.29104
 Alpha  occ. eigenvalues --   -0.28981  -0.28903  -0.27904  -0.26920  -0.26149
 Alpha  occ. eigenvalues --   -0.25629  -0.25429  -0.24906  -0.24769  -0.20894
 Alpha  occ. eigenvalues --   -0.18944
 Alpha virt. eigenvalues --   -0.11256  -0.05467  -0.04093  -0.02223  -0.01854
 Alpha virt. eigenvalues --    0.00246   0.00845   0.01166   0.01455   0.03279
 Alpha virt. eigenvalues --    0.04176   0.04855   0.05040   0.05798   0.05968

 Mulliken charges:
               1
     1  Mg   0.930844
     2  C   -0.098845
     3  C   -0.072479
     4  C   -0.068455
     5  C   -0.067577
     6  N   -0.359425
     7  C    0.055530
     8  C   -0.071843
     9  C   -0.135251
    10  C    0.101574
    11  C    0.024148
    12  C   -0.001377
    13  C   -0.039478
    14  C    0.212033
    15  O   -0.215055
    16  O   -0.391081
    17  N   -0.500210
    18  C    0.107411
    19  C   -0.192692
    20  C   -0.070494
    21  C    0.188108
    22  C    0.064382
    23  C    0.048604
    24  O   -0.250426
    25  C    0.004591
    26  N   -0.367918
    27  C   -0.003110
    28  C   -0.074745
    29  C   -0.097067
    30  C    0.049232
    31  C    0.010463
    32  C   -0.050294
    33  C   -0.063662
    34  N   -0.462233
    35  C    0.153433
    36  C   -0.214292
    37  C    0.045096
    38  C    0.190031
    39  C    0.086821
    40  C    0.056396
    41  O   -0.204079
    42  C   -0.042554
    43  C    0.281546
    44  O   -0.267961
    45  O   -0.355385
    46  C    0.121232
    47  C    0.230211
    48  C   -0.114039
    49  C   -0.219558
    50  C    0.003488
    51  C    0.003196
    52  C   -0.028252
    53  C   -0.012829
    54  C   -0.201367
    55  C   -0.019081
    56  C    0.059531
    57  C   -0.078728
    58  C   -0.003559
    59  C   -0.270618
    60  C    0.029434
    61  C    0.007265
    62  C   -0.013853
    63  C   -0.034342
    64  C   -0.307003
    65  C   -0.015885
    66  C   -0.010780
    67  H    0.012169
    68  H   -0.031961
    69  H   -0.007827
    70  H    0.032567
    71  H    0.044993
    72  H    0.057801
    73  H    0.044355
    74  H    0.059628
    75  H    0.058725
    76  H    0.047030
    77  H    0.078962
    78  H    0.077672
    79  H    0.031181
    80  H    0.056469
    81  H    0.057036
    82  H    0.060040
    83  H    0.059232
    84  H    0.071000
    85  H    0.051394
    86  H    0.038764
    87  H    0.049707
    88  H    0.050864
    89  H    0.056012
    90  H    0.057679
    91  H    0.046660
    92  H    0.051211
    93  H    0.046433
    94  H    0.047545
    95  H    0.040595
    96  H    0.076078
    97  H    0.060752
    98  H    0.063428
    99  H    0.048196
   100  H    0.060959
   101  H    0.069449
   102  H    0.051668
   103  H    0.054230
   104  H    0.037571
   105  H    0.066473
   106  H    0.045197
   107  H    0.017382
   108  H    0.041905
   109  H    0.013865
   110  H    0.031239
   111  H    0.037352
   112  H    0.015236
   113  H    0.017801
   114  H    0.039306
   115  H    0.031283
   116  H    0.027106
   117  H    0.032019
   118  H    0.035248
   119  H    0.027737
   120  H    0.018084
   121  H    0.033217
   122  H    0.020125
   123  H    0.022147
   124  H    0.030458
   125  H    0.034666
   126  H    0.037759
   127  H    0.039082
   128  H    0.028117
   129  H    0.026873
   130  H    0.029699
   131  H    0.025774
   132  H    0.018134
   133  H    0.021637
   134  H    0.038756
   135  H    0.029249
   136  H    0.049886
   137  H    0.040919
   138  H    0.023764
   139  H    0.053565
   140  H    0.033960
 Sum of Mulliken charges =  -0.00000

 Dipole moment (field-independent basis, Debye):
    X=             -1.2453    Y=              3.1632    Z=              1.5392  Tot=              3.7317
 Quadrupole moment (field-independent basis, Debye-Ang):
   XX=           -396.2716   YY=           -382.2445   ZZ=           -407.3268
   XY=            -48.0628   XZ=            -19.5928   YZ=            -38.1587

 Normal termination of Gaussian 16 at Thu Apr 28 09:15:52 2022.
