 Gaussian 16, Revision A.03,
 Gaussian 16:  ES64L-G16RevA.03 25-Dec-2016

 --------------------------------
 #p wB97XD/Def2SVP td=(nstates=5)
 --------------------------------

 ----------------------------------------------------
 step_151_chromophore_11 TDDFT with wB97XD functional
 ----------------------------------------------------
 Symbolic Z-matrix:
 Charge =  0 Multiplicity = 1

                         Standard orientation:
 ---------------------------------------------------------------------
 Center     Atomic      Atomic             Coordinates (Angstroms)
 Number     Number       Type             X           Y           Z
 ---------------------------------------------------------------------
      1         12           0       -4.543521    1.400365    0.703699
      2          6           0       -5.563104   -2.010820   -0.054483
      3          6           0       -2.519295    0.163103    3.104628
      4          6           0       -3.121407    4.369359    0.681286
      5          6           0       -6.677295    2.425867   -1.825414
      6          7           0       -3.933424   -0.803622    1.232104
      7          6           0       -4.549409   -1.990759    0.963566
      8          6           0       -4.101593   -3.035214    1.957278
      9          6           0       -3.409754   -2.208282    3.026621
     10          6           0       -3.172438   -0.895477    2.425940
     11          6           0       -4.223806   -2.059267    4.383517
     12          6           0       -3.191517   -4.113493    1.332677
     13          6           0       -1.962395   -3.631604    0.460139
     14          6           0       -0.637154   -4.371197    0.653452
     15          8           0       -0.352608   -5.348553    0.055152
     16          8           0        0.224777   -3.694511    1.530249
     17          7           0       -2.892333    2.092808    1.689709
     18          6           0       -2.278654    1.518425    2.704921
     19          6           0       -1.415936    2.469501    3.257458
     20          6           0       -1.518859    3.734267    2.594587
     21          6           0       -2.546113    3.458575    1.611790
     22          6           0       -0.316291    2.093859    4.353473
     23          6           0       -0.651405    4.973571    2.924343
     24          8           0        0.089460    4.933520    3.906267
     25          6           0       -0.663132    6.185661    2.144245
     26          7           0       -4.574133    3.151739   -0.688791
     27          6           0       -4.015526    4.324275   -0.333716
     28          6           0       -4.586155    5.509332   -1.132480
     29          6           0       -5.765174    4.864680   -1.910512
     30          6           0       -5.696364    3.424204   -1.449405
     31          6           0       -4.980747    6.726689   -0.249745
     32          6           0       -5.653475    4.920990   -3.461759
     33          6           0       -6.937692    4.799932   -4.354227
     34          7           0       -6.006013    0.486222   -0.561709
     35          6           0       -6.828367    1.064728   -1.470978
     36          6           0       -7.729659    0.013908   -1.982002
     37          6           0       -7.244676   -1.200851   -1.500929
     38          6           0       -6.139505   -0.891628   -0.672733
     39          6           0       -8.886940    0.356161   -2.849115
     40          6           0       -7.394991   -2.582692   -1.511285
     41          8           0       -8.146772   -3.265272   -2.174345
     42          6           0       -6.332907   -3.184783   -0.572227
     43          6           0       -5.486576   -3.963287   -1.468314
     44          8           0       -4.864171   -3.499801   -2.428258
     45          8           0       -5.520588   -5.311177   -1.199852
     46          6           0       -4.580516   -6.108949   -1.986768
     47          6           0        1.562442   -4.232305    1.750525
     48          6           0        2.441131   -3.756918    0.564212
     49          6           0        3.678493   -4.153207    0.232063
     50          6           0        4.565998   -5.013904    1.156469
     51          6           0        4.401614   -3.547173   -0.934727
     52          6           0        4.722550   -2.062749   -0.846674
     53          6           0        5.804140   -1.597616   -1.860952
     54          6           0        6.469800   -0.175764   -1.641522
     55          6           0        6.277000    0.692231   -2.891394
     56          6           0        7.854157   -0.267109   -1.153582
     57          6           0        7.960654    0.326135    0.268389
     58          6           0        9.143956    1.351187    0.321386
     59          6           0       10.431747    0.579037    0.463342
     60          6           0       10.812546    0.427850    1.930755
     61          6           0       11.477240    1.208109   -0.462447
     62          6           0       12.735073    0.317298   -0.669713
     63          6           0       14.072322    1.007833   -0.509514
     64          6           0       14.989067    0.956943   -1.831372
     65          6           0       16.333270    0.355191   -1.412923
     66          6           0       15.128926    2.446808   -2.340434
     67          1           0       -2.047900    0.064311    4.084689
     68          1           0       -2.815126    5.411867    0.786403
     69          1           0       -7.463532    2.813537   -2.477452
     70          1           0       -4.942425   -3.506764    2.463973
     71          1           0       -2.391357   -2.568483    3.169105
     72          1           0       -3.429646   -1.720067    5.048182
     73          1           0       -4.501790   -3.093637    4.584599
     74          1           0       -5.100835   -1.412332    4.373255
     75          1           0       -3.844890   -4.767088    0.754918
     76          1           0       -2.821536   -4.718680    2.160365
     77          1           0       -1.726608   -2.579619    0.618639
     78          1           0       -2.274823   -3.766826   -0.575894
     79          1           0       -0.216512    1.012251    4.445716
     80          1           0       -0.528632    2.611636    5.289382
     81          1           0        0.626223    2.494408    3.981201
     82          1           0       -0.421967    5.851059    1.135839
     83          1           0        0.035288    6.971878    2.431585
     84          1           0       -1.689815    6.552206    2.142421
     85          1           0       -3.815122    5.773699   -1.856494
     86          1           0       -6.666612    5.374654   -1.572751
     87          1           0       -4.890360    6.476854    0.806771
     88          1           0       -6.016758    7.036437   -0.386733
     89          1           0       -4.191413    7.420210   -0.540657
     90          1           0       -5.037125    4.057321   -3.713221
     91          1           0       -5.211671    5.897532   -3.664836
     92          1           0       -6.950272    3.842358   -4.874960
     93          1           0       -7.007013    5.500279   -5.187720
     94          1           0       -7.735904    4.945681   -3.626403
     95          1           0       -8.730245    1.319565   -3.333261
     96          1           0       -9.752061    0.179749   -2.210190
     97          1           0       -8.855243   -0.343879   -3.683982
     98          1           0       -6.735526   -3.754406    0.265909
     99          1           0       -4.505811   -7.038984   -1.422836
    100          1           0       -3.575770   -5.686668   -1.997608
    101          1           0       -4.822984   -6.396451   -3.010383
    102          1           0        1.547306   -5.322253    1.780559
    103          1           0        1.913266   -4.029048    2.762354
    104          1           0        1.860651   -3.297832   -0.236022
    105          1           0        5.349838   -4.430426    1.639530
    106          1           0        4.879924   -5.877376    0.569501
    107          1           0        4.043911   -5.615540    1.899902
    108          1           0        3.782254   -3.768278   -1.803480
    109          1           0        5.346634   -4.072113   -1.075529
    110          1           0        4.971174   -1.988910    0.212491
    111          1           0        3.772112   -1.556177   -1.014286
    112          1           0        5.343601   -1.535428   -2.846948
    113          1           0        6.585085   -2.350356   -1.972522
    114          1           0        5.811923    0.285723   -0.904451
    115          1           0        5.424250    0.367744   -3.487417
    116          1           0        7.181071    0.671469   -3.499929
    117          1           0        6.106192    1.752232   -2.702785
    118          1           0        8.562165    0.296242   -1.761422
    119          1           0        8.093166   -1.324292   -1.037183
    120          1           0        8.266281   -0.499965    0.911726
    121          1           0        7.079875    0.807866    0.693106
    122          1           0        9.057278    2.017172    1.179967
    123          1           0        9.083068    1.898248   -0.619498
    124          1           0       10.274057   -0.457554    0.165893
    125          1           0       11.650355    1.114488    2.051841
    126          1           0       11.069452   -0.628258    2.013949
    127          1           0       10.002729    0.706269    2.604939
    128          1           0       11.753395    2.212392   -0.139776
    129          1           0       11.125923    1.239809   -1.494159
    130          1           0       12.881218   -0.023306   -1.694593
    131          1           0       12.772924   -0.475588    0.076963
    132          1           0       14.660009    0.460483    0.227900
    133          1           0       14.024428    2.039315   -0.161133
    134          1           0       14.600189    0.388835   -2.675674
    135          1           0       17.114174    0.604945   -2.131367
    136          1           0       16.176877   -0.720184   -1.325921
    137          1           0       16.617549    0.872844   -0.496772
    138          1           0       16.089980    2.665068   -1.874631
    139          1           0       14.293249    3.079702   -2.042877
    140          1           0       15.311221    2.366408   -3.411371
 ---------------------------------------------------------------------

 SCF Done:  E(RwB97XD) =  -3007.82179039     A.U. after   19 cycles

 Excitation energies and oscillator strengths:

 Excited State   1:      Singlet-A      1.6757 eV  739.91 nm  f=0.3444  <S**2>=0.000
     245 -> 248        0.19162
     246 -> 247        0.68178
     245 <- 248        0.11754
 This state for optimization and/or second-order correction.
 Total Energy, E(TD-HF/TD-DFT) =  -3007.76021119
 Copying the excited state density for this state as the 1-particle RhoCI density.

 Excited State   2:      Singlet-A      2.1224 eV  584.17 nm  f=0.0968  <S**2>=0.000
     245 -> 247        0.64007
     246 -> 248       -0.28503

 Excited State   3:      Singlet-A      3.3351 eV  371.75 nm  f=0.0542  <S**2>=0.000
     241 -> 247        0.49282
     242 -> 247       -0.20321
     244 -> 247       -0.33723
     246 -> 248       -0.27031

 Excited State   4:      Singlet-A      3.4647 eV  357.85 nm  f=0.0490  <S**2>=0.000
     239 -> 247       -0.23960
     239 -> 249       -0.17488
     240 -> 247       -0.23393
     240 -> 249       -0.11426
     241 -> 247        0.18887
     244 -> 247        0.47125
     246 -> 248       -0.23367

 Excited State   5:      Singlet-A      3.4736 eV  356.93 nm  f=0.1461  <S**2>=0.000
     239 -> 247        0.35658
     239 -> 249        0.23341
     240 -> 247        0.26228
     240 -> 249        0.14692
     244 -> 247        0.27069
     245 -> 247       -0.12887
     246 -> 248       -0.32784

 The electronic state is 1-A.
 Alpha  occ. eigenvalues --  -46.96640 -19.30817 -19.29472 -19.25000 -19.24614
 Alpha  occ. eigenvalues --  -19.24246 -19.22847 -14.46779 -14.46513 -14.44280
 Alpha  occ. eigenvalues --  -14.43598 -10.43197 -10.42953 -10.38888 -10.38517
 Alpha  occ. eigenvalues --  -10.36193 -10.36120 -10.35994 -10.35084 -10.34838
 Alpha  occ. eigenvalues --  -10.34718 -10.34197 -10.33985 -10.33926 -10.33536
 Alpha  occ. eigenvalues --  -10.32690 -10.32453 -10.32434 -10.32372 -10.32358
 Alpha  occ. eigenvalues --  -10.32080 -10.32001 -10.31596 -10.31410 -10.31340
 Alpha  occ. eigenvalues --  -10.31304 -10.31160 -10.30970 -10.30799 -10.30698
 Alpha  occ. eigenvalues --  -10.30524 -10.30399 -10.30375 -10.30291 -10.30228
 Alpha  occ. eigenvalues --  -10.29699 -10.29667 -10.29593 -10.29286 -10.29284
 Alpha  occ. eigenvalues --  -10.28882 -10.28655 -10.28586 -10.28572 -10.28518
 Alpha  occ. eigenvalues --  -10.28258 -10.28248 -10.28141 -10.27972 -10.27948
 Alpha  occ. eigenvalues --  -10.27923 -10.27849 -10.27839 -10.27752 -10.27739
 Alpha  occ. eigenvalues --  -10.27544  -3.22396  -1.95933  -1.95557  -1.95321
 Alpha  occ. eigenvalues --   -1.18573  -1.18560  -1.13192  -1.11252  -1.10892
 Alpha  occ. eigenvalues --   -1.09484  -1.06448  -1.05812  -1.05323  -1.04608
 Alpha  occ. eigenvalues --   -0.96366  -0.92367  -0.91695  -0.91668  -0.91469
 Alpha  occ. eigenvalues --   -0.90455  -0.90384  -0.89894  -0.89258  -0.88937
 Alpha  occ. eigenvalues --   -0.87479  -0.86504  -0.86354  -0.85989  -0.85288
 Alpha  occ. eigenvalues --   -0.84565  -0.84299  -0.83671  -0.82720  -0.82318
 Alpha  occ. eigenvalues --   -0.81581  -0.80421  -0.79850  -0.79019  -0.78325
 Alpha  occ. eigenvalues --   -0.77313  -0.76865  -0.76725  -0.76491  -0.75937
 Alpha  occ. eigenvalues --   -0.75158  -0.74877  -0.74269  -0.72925  -0.71871
 Alpha  occ. eigenvalues --   -0.71423  -0.69712  -0.69029  -0.68211  -0.67951
 Alpha  occ. eigenvalues --   -0.67701  -0.66873  -0.66643  -0.65917  -0.65283
 Alpha  occ. eigenvalues --   -0.64868  -0.64648  -0.64561  -0.64066  -0.62540
 Alpha  occ. eigenvalues --   -0.61738  -0.61595  -0.61485  -0.61129  -0.60776
 Alpha  occ. eigenvalues --   -0.59816  -0.59191  -0.58184  -0.57862  -0.57757
 Alpha  occ. eigenvalues --   -0.57158  -0.56951  -0.56626  -0.56223  -0.56119
 Alpha  occ. eigenvalues --   -0.55918  -0.55737  -0.55338  -0.54744  -0.54648
 Alpha  occ. eigenvalues --   -0.54317  -0.54148  -0.54038  -0.53873  -0.53813
 Alpha  occ. eigenvalues --   -0.53405  -0.53323  -0.53234  -0.52958  -0.52909
 Alpha  occ. eigenvalues --   -0.52619  -0.52133  -0.52045  -0.51877  -0.51825
 Alpha  occ. eigenvalues --   -0.51581  -0.51519  -0.51271  -0.51043  -0.50831
 Alpha  occ. eigenvalues --   -0.50534  -0.50447  -0.50287  -0.49886  -0.49748
 Alpha  occ. eigenvalues --   -0.49528  -0.49381  -0.49249  -0.48493  -0.48357
 Alpha  occ. eigenvalues --   -0.48163  -0.48059  -0.47965  -0.47904  -0.47304
 Alpha  occ. eigenvalues --   -0.47219  -0.47109  -0.47089  -0.46983  -0.46968
 Alpha  occ. eigenvalues --   -0.46767  -0.46441  -0.46401  -0.46136  -0.46035
 Alpha  occ. eigenvalues --   -0.45455  -0.45299  -0.45233  -0.44848  -0.44717
 Alpha  occ. eigenvalues --   -0.44711  -0.44363  -0.44005  -0.43676  -0.43641
 Alpha  occ. eigenvalues --   -0.43348  -0.43291  -0.42913  -0.42823  -0.42721
 Alpha  occ. eigenvalues --   -0.42398  -0.42217  -0.42120  -0.41864  -0.41645
 Alpha  occ. eigenvalues --   -0.41562  -0.41442  -0.41134  -0.40778  -0.40732
 Alpha  occ. eigenvalues --   -0.40263  -0.39864  -0.39666  -0.39473  -0.39421
 Alpha  occ. eigenvalues --   -0.39172  -0.39040  -0.38880  -0.38668  -0.38620
 Alpha  occ. eigenvalues --   -0.37944  -0.36850  -0.36631  -0.36418  -0.36056
 Alpha  occ. eigenvalues --   -0.36033  -0.35660  -0.34733  -0.33826  -0.33249
 Alpha  occ. eigenvalues --   -0.32449  -0.32310  -0.31515  -0.31216  -0.25913
 Alpha  occ. eigenvalues --   -0.23172
 Alpha virt. eigenvalues --   -0.07091  -0.00108   0.02109   0.03840   0.04681
 Alpha virt. eigenvalues --    0.06868   0.07605   0.07952   0.08229   0.09976
 Alpha virt. eigenvalues --    0.10837   0.11428   0.11680   0.12569   0.12675

 Mulliken charges:
               1
     1  Mg   0.925883
     2  C   -0.097748
     3  C   -0.081144
     4  C   -0.070351
     5  C   -0.080042
     6  N   -0.329829
     7  C    0.014061
     8  C   -0.040884
     9  C   -0.110326
    10  C    0.084203
    11  C    0.037125
    12  C    0.011804
    13  C   -0.017195
    14  C    0.199673
    15  O   -0.212357
    16  O   -0.389758
    17  N   -0.467819
    18  C    0.090523
    19  C   -0.187834
    20  C   -0.067774
    21  C    0.180315
    22  C    0.078311
    23  C    0.046337
    24  O   -0.247227
    25  C    0.015512
    26  N   -0.340453
    27  C   -0.022294
    28  C   -0.050749
    29  C   -0.071786
    30  C    0.045049
    31  C    0.022208
    32  C   -0.036817
    33  C   -0.047668
    34  N   -0.430953
    35  C    0.147322
    36  C   -0.207164
    37  C    0.051665
    38  C    0.176033
    39  C    0.096873
    40  C    0.040693
    41  O   -0.192045
    42  C   -0.001098
    43  C    0.254854
    44  O   -0.262831
    45  O   -0.352257
    46  C    0.136112
    47  C    0.245115
    48  C   -0.126630
    49  C   -0.202247
    50  C    0.016400
    51  C    0.018559
    52  C   -0.006514
    53  C    0.003035
    54  C   -0.173699
    55  C   -0.005433
    56  C    0.075103
    57  C   -0.057856
    58  C    0.016550
    59  C   -0.239030
    60  C    0.036583
    61  C    0.023065
    62  C    0.006360
    63  C   -0.022378
    64  C   -0.280164
    65  C    0.000381
    66  C    0.003475
    67  H    0.003784
    68  H   -0.050032
    69  H   -0.023989
    70  H    0.023779
    71  H    0.035268
    72  H    0.051468
    73  H    0.036435
    74  H    0.054149
    75  H    0.043699
    76  H    0.040241
    77  H    0.069734
    78  H    0.069994
    79  H    0.024137
    80  H    0.050829
    81  H    0.049958
    82  H    0.053342
    83  H    0.057925
    84  H    0.064835
    85  H    0.041684
    86  H    0.027248
    87  H    0.042809
    88  H    0.045384
    89  H    0.050894
    90  H    0.048746
    91  H    0.039304
    92  H    0.044721
    93  H    0.042674
    94  H    0.040467
    95  H    0.037548
    96  H    0.073430
    97  H    0.057951
    98  H    0.060497
    99  H    0.045469
   100  H    0.056220
   101  H    0.066626
   102  H    0.045375
   103  H    0.051475
   104  H    0.033312
   105  H    0.061871
   106  H    0.038933
   107  H    0.011871
   108  H    0.034383
   109  H    0.004583
   110  H    0.019471
   111  H    0.028992
   112  H    0.005522
   113  H    0.007756
   114  H    0.024867
   115  H    0.024908
   116  H    0.020341
   117  H    0.026627
   118  H    0.021200
   119  H    0.018457
   120  H    0.005777
   121  H    0.026459
   122  H    0.011940
   123  H    0.010330
   124  H    0.013978
   125  H    0.027395
   126  H    0.033017
   127  H    0.033910
   128  H    0.018858
   129  H    0.017660
   130  H    0.019387
   131  H    0.016619
   132  H    0.008444
   133  H    0.011477
   134  H    0.028302
   135  H    0.023232
   136  H    0.043705
   137  H    0.032320
   138  H    0.015300
   139  H    0.047472
   140  H    0.028418
 Sum of Mulliken charges =  -0.00000

 Dipole moment (field-independent basis, Debye):
    X=             -1.8655    Y=              2.7549    Z=              1.1125  Tot=              3.5082
 Quadrupole moment (field-independent basis, Debye-Ang):
   XX=           -390.2719   YY=           -382.5706   ZZ=           -407.7083
   XY=            -46.6225   XZ=            -18.0052   YZ=            -38.6203

 Normal termination of Gaussian 16 at Thu Apr 28 09:52:56 2022.
