 Gaussian 16, Revision A.03,
 Gaussian 16:  ES64L-G16RevA.03 25-Dec-2016

 --------------------
 #p ZINDO=(nstates=5)
 --------------------

 -----------------------------
 step_151_chromophore_11 ZINDO
 -----------------------------
 Symbolic Z-matrix:
 Charge =  0 Multiplicity = 1

                         Standard orientation:
 ---------------------------------------------------------------------
 Center     Atomic      Atomic             Coordinates (Angstroms)
 Number     Number       Type             X           Y           Z
 ---------------------------------------------------------------------
      1         12           0       -4.543521    1.400365    0.703699
      2          6           0       -5.563104   -2.010820   -0.054483
      3          6           0       -2.519295    0.163103    3.104628
      4          6           0       -3.121407    4.369359    0.681286
      5          6           0       -6.677295    2.425867   -1.825414
      6          7           0       -3.933424   -0.803622    1.232104
      7          6           0       -4.549409   -1.990759    0.963566
      8          6           0       -4.101593   -3.035214    1.957278
      9          6           0       -3.409754   -2.208282    3.026621
     10          6           0       -3.172438   -0.895477    2.425940
     11          6           0       -4.223806   -2.059267    4.383517
     12          6           0       -3.191517   -4.113493    1.332677
     13          6           0       -1.962395   -3.631604    0.460139
     14          6           0       -0.637154   -4.371197    0.653452
     15          8           0       -0.352608   -5.348553    0.055152
     16          8           0        0.224777   -3.694511    1.530249
     17          7           0       -2.892333    2.092808    1.689709
     18          6           0       -2.278654    1.518425    2.704921
     19          6           0       -1.415936    2.469501    3.257458
     20          6           0       -1.518859    3.734267    2.594587
     21          6           0       -2.546113    3.458575    1.611790
     22          6           0       -0.316291    2.093859    4.353473
     23          6           0       -0.651405    4.973571    2.924343
     24          8           0        0.089460    4.933520    3.906267
     25          6           0       -0.663132    6.185661    2.144245
     26          7           0       -4.574133    3.151739   -0.688791
     27          6           0       -4.015526    4.324275   -0.333716
     28          6           0       -4.586155    5.509332   -1.132480
     29          6           0       -5.765174    4.864680   -1.910512
     30          6           0       -5.696364    3.424204   -1.449405
     31          6           0       -4.980747    6.726689   -0.249745
     32          6           0       -5.653475    4.920990   -3.461759
     33          6           0       -6.937692    4.799932   -4.354227
     34          7           0       -6.006013    0.486222   -0.561709
     35          6           0       -6.828367    1.064728   -1.470978
     36          6           0       -7.729659    0.013908   -1.982002
     37          6           0       -7.244676   -1.200851   -1.500929
     38          6           0       -6.139505   -0.891628   -0.672733
     39          6           0       -8.886940    0.356161   -2.849115
     40          6           0       -7.394991   -2.582692   -1.511285
     41          8           0       -8.146772   -3.265272   -2.174345
     42          6           0       -6.332907   -3.184783   -0.572227
     43          6           0       -5.486576   -3.963287   -1.468314
     44          8           0       -4.864171   -3.499801   -2.428258
     45          8           0       -5.520588   -5.311177   -1.199852
     46          6           0       -4.580516   -6.108949   -1.986768
     47          6           0        1.562442   -4.232305    1.750525
     48          6           0        2.441131   -3.756918    0.564212
     49          6           0        3.678493   -4.153207    0.232063
     50          6           0        4.565998   -5.013904    1.156469
     51          6           0        4.401614   -3.547173   -0.934727
     52          6           0        4.722550   -2.062749   -0.846674
     53          6           0        5.804140   -1.597616   -1.860952
     54          6           0        6.469800   -0.175764   -1.641522
     55          6           0        6.277000    0.692231   -2.891394
     56          6           0        7.854157   -0.267109   -1.153582
     57          6           0        7.960654    0.326135    0.268389
     58          6           0        9.143956    1.351187    0.321386
     59          6           0       10.431747    0.579037    0.463342
     60          6           0       10.812546    0.427850    1.930755
     61          6           0       11.477240    1.208109   -0.462447
     62          6           0       12.735073    0.317298   -0.669713
     63          6           0       14.072322    1.007833   -0.509514
     64          6           0       14.989067    0.956943   -1.831372
     65          6           0       16.333270    0.355191   -1.412923
     66          6           0       15.128926    2.446808   -2.340434
     67          1           0       -2.047900    0.064311    4.084689
     68          1           0       -2.815126    5.411867    0.786403
     69          1           0       -7.463532    2.813537   -2.477452
     70          1           0       -4.942425   -3.506764    2.463973
     71          1           0       -2.391357   -2.568483    3.169105
     72          1           0       -3.429646   -1.720067    5.048182
     73          1           0       -4.501790   -3.093637    4.584599
     74          1           0       -5.100835   -1.412332    4.373255
     75          1           0       -3.844890   -4.767088    0.754918
     76          1           0       -2.821536   -4.718680    2.160365
     77          1           0       -1.726608   -2.579619    0.618639
     78          1           0       -2.274823   -3.766826   -0.575894
     79          1           0       -0.216512    1.012251    4.445716
     80          1           0       -0.528632    2.611636    5.289382
     81          1           0        0.626223    2.494408    3.981201
     82          1           0       -0.421967    5.851059    1.135839
     83          1           0        0.035288    6.971878    2.431585
     84          1           0       -1.689815    6.552206    2.142421
     85          1           0       -3.815122    5.773699   -1.856494
     86          1           0       -6.666612    5.374654   -1.572751
     87          1           0       -4.890360    6.476854    0.806771
     88          1           0       -6.016758    7.036437   -0.386733
     89          1           0       -4.191413    7.420210   -0.540657
     90          1           0       -5.037125    4.057321   -3.713221
     91          1           0       -5.211671    5.897532   -3.664836
     92          1           0       -6.950272    3.842358   -4.874960
     93          1           0       -7.007013    5.500279   -5.187720
     94          1           0       -7.735904    4.945681   -3.626403
     95          1           0       -8.730245    1.319565   -3.333261
     96          1           0       -9.752061    0.179749   -2.210190
     97          1           0       -8.855243   -0.343879   -3.683982
     98          1           0       -6.735526   -3.754406    0.265909
     99          1           0       -4.505811   -7.038984   -1.422836
    100          1           0       -3.575770   -5.686668   -1.997608
    101          1           0       -4.822984   -6.396451   -3.010383
    102          1           0        1.547306   -5.322253    1.780559
    103          1           0        1.913266   -4.029048    2.762354
    104          1           0        1.860651   -3.297832   -0.236022
    105          1           0        5.349838   -4.430426    1.639530
    106          1           0        4.879924   -5.877376    0.569501
    107          1           0        4.043911   -5.615540    1.899902
    108          1           0        3.782254   -3.768278   -1.803480
    109          1           0        5.346634   -4.072113   -1.075529
    110          1           0        4.971174   -1.988910    0.212491
    111          1           0        3.772112   -1.556177   -1.014286
    112          1           0        5.343601   -1.535428   -2.846948
    113          1           0        6.585085   -2.350356   -1.972522
    114          1           0        5.811923    0.285723   -0.904451
    115          1           0        5.424250    0.367744   -3.487417
    116          1           0        7.181071    0.671469   -3.499929
    117          1           0        6.106192    1.752232   -2.702785
    118          1           0        8.562165    0.296242   -1.761422
    119          1           0        8.093166   -1.324292   -1.037183
    120          1           0        8.266281   -0.499965    0.911726
    121          1           0        7.079875    0.807866    0.693106
    122          1           0        9.057278    2.017172    1.179967
    123          1           0        9.083068    1.898248   -0.619498
    124          1           0       10.274057   -0.457554    0.165893
    125          1           0       11.650355    1.114488    2.051841
    126          1           0       11.069452   -0.628258    2.013949
    127          1           0       10.002729    0.706269    2.604939
    128          1           0       11.753395    2.212392   -0.139776
    129          1           0       11.125923    1.239809   -1.494159
    130          1           0       12.881218   -0.023306   -1.694593
    131          1           0       12.772924   -0.475588    0.076963
    132          1           0       14.660009    0.460483    0.227900
    133          1           0       14.024428    2.039315   -0.161133
    134          1           0       14.600189    0.388835   -2.675674
    135          1           0       17.114174    0.604945   -2.131367
    136          1           0       16.176877   -0.720184   -1.325921
    137          1           0       16.617549    0.872844   -0.496772
    138          1           0       16.089980    2.665068   -1.874631
    139          1           0       14.293249    3.079702   -2.042877
    140          1           0       15.311221    2.366408   -3.411371
 ---------------------------------------------------------------------

 SCF Done:  E(RZINDO/S) =  -474.512141154     A.U. after   19 cycles

 Excitation energies and oscillator strengths:

 Excited State   1:      Singlet-A      1.2677 eV  978.05 nm  f=0.5031  <S**2>=0.000
     175 ->178         0.17081
     176 ->177         0.66872
 This state for optimization and/or second-order correction.
 Total Energy, E(CIS/TDA) =  -474.465555408
 Copying the excited state density for this state as the 1-particle RhoCI density.

 Excited State   2:      Singlet-A      1.8363 eV  675.20 nm  f=0.0439  <S**2>=0.000
     175 ->177         0.55778
     176 ->178        -0.39183

 Excited State   3:      Singlet-A      2.8479 eV  435.35 nm  f=0.1640  <S**2>=0.000
     168 ->177         0.36190
     168 ->178         0.15642
     168 ->179        -0.37826
     168 ->185         0.15121
     168 ->195         0.10827
     175 ->177         0.14854
     176 ->178         0.24683

 Excited State   4:      Singlet-A      2.8828 eV  430.08 nm  f=0.7008  <S**2>=0.000
     168 ->177        -0.18792
     168 ->179         0.18942
     171 ->177        -0.19054
     175 ->177         0.29810
     176 ->178         0.47754

 Excited State   5:      Singlet-A      3.0150 eV  411.22 nm  f=0.0882  <S**2>=0.000
     176 ->179         0.25979
     176 ->180         0.63274

 The electronic state is 1-A.
 Alpha  occ. eigenvalues --   -1.85607  -1.81639  -1.81212  -1.74778  -1.72991
 Alpha  occ. eigenvalues --   -1.71276  -1.68169  -1.62081  -1.61075  -1.58797
 Alpha  occ. eigenvalues --   -1.56963  -1.52187  -1.50237  -1.48662  -1.47839
 Alpha  occ. eigenvalues --   -1.43505  -1.42715  -1.40655  -1.38836  -1.37906
 Alpha  occ. eigenvalues --   -1.36020  -1.34426  -1.32431  -1.29747  -1.27359
 Alpha  occ. eigenvalues --   -1.26867  -1.26466  -1.23829  -1.20065  -1.18187
 Alpha  occ. eigenvalues --   -1.17263  -1.15303  -1.14645  -1.13982  -1.12844
 Alpha  occ. eigenvalues --   -1.12239  -1.10721  -1.07705  -1.06025  -1.03428
 Alpha  occ. eigenvalues --   -1.01695  -1.01420  -0.99125  -0.97738  -0.97086
 Alpha  occ. eigenvalues --   -0.96928  -0.93980  -0.93220  -0.92633  -0.92235
 Alpha  occ. eigenvalues --   -0.91490  -0.90362  -0.88794  -0.87760  -0.86365
 Alpha  occ. eigenvalues --   -0.86262  -0.84196  -0.83710  -0.81754  -0.80334
 Alpha  occ. eigenvalues --   -0.80203  -0.79395  -0.77831  -0.77419  -0.77193
 Alpha  occ. eigenvalues --   -0.76343  -0.76187  -0.75313  -0.74547  -0.73270
 Alpha  occ. eigenvalues --   -0.72670  -0.72267  -0.71645  -0.70821  -0.70449
 Alpha  occ. eigenvalues --   -0.70045  -0.69680  -0.69248  -0.68865  -0.67377
 Alpha  occ. eigenvalues --   -0.66917  -0.66777  -0.66673  -0.66451  -0.65736
 Alpha  occ. eigenvalues --   -0.65306  -0.64746  -0.64627  -0.64198  -0.64093
 Alpha  occ. eigenvalues --   -0.63521  -0.63325  -0.62509  -0.62303  -0.61883
 Alpha  occ. eigenvalues --   -0.61517  -0.60780  -0.60141  -0.60044  -0.59896
 Alpha  occ. eigenvalues --   -0.59583  -0.59101  -0.58985  -0.57818  -0.57511
 Alpha  occ. eigenvalues --   -0.57343  -0.57186  -0.56921  -0.56398  -0.56109
 Alpha  occ. eigenvalues --   -0.55900  -0.55783  -0.55408  -0.55177  -0.54405
 Alpha  occ. eigenvalues --   -0.53899  -0.53769  -0.53375  -0.52879  -0.52575
 Alpha  occ. eigenvalues --   -0.52394  -0.51979  -0.51495  -0.51445  -0.50985
 Alpha  occ. eigenvalues --   -0.50592  -0.50231  -0.50205  -0.50020  -0.49830
 Alpha  occ. eigenvalues --   -0.49791  -0.49237  -0.48726  -0.48596  -0.48565
 Alpha  occ. eigenvalues --   -0.48357  -0.48310  -0.47904  -0.47643  -0.47192
 Alpha  occ. eigenvalues --   -0.47015  -0.46950  -0.46714  -0.46588  -0.46365
 Alpha  occ. eigenvalues --   -0.46197  -0.45970  -0.45553  -0.45199  -0.45164
 Alpha  occ. eigenvalues --   -0.44938  -0.44475  -0.44185  -0.44052  -0.44045
 Alpha  occ. eigenvalues --   -0.43073  -0.42765  -0.42419  -0.42262  -0.41827
 Alpha  occ. eigenvalues --   -0.41595  -0.41576  -0.39926  -0.38860  -0.38558
 Alpha  occ. eigenvalues --   -0.38385  -0.37530  -0.36066  -0.35002  -0.33959
 Alpha  occ. eigenvalues --   -0.33621  -0.32250  -0.31850  -0.31105  -0.26552
 Alpha  occ. eigenvalues --   -0.21824
 Alpha virt. eigenvalues --   -0.08480  -0.02295  -0.00953   0.00896   0.01633
 Alpha virt. eigenvalues --    0.02261   0.02821   0.02949   0.04644   0.05236
 Alpha virt. eigenvalues --    0.06347   0.06510   0.06984   0.07814   0.08227

 Mulliken charges:
               1
     1  Mg   0.436339
     2  C   -0.057488
     3  C   -0.071721
     4  C   -0.069035
     5  C   -0.095683
     6  N   -0.310133
     7  C    0.168807
     8  C    0.018336
     9  C    0.001906
    10  C    0.089109
    11  C   -0.052182
    12  C   -0.014197
    13  C    0.004450
    14  C    0.472138
    15  O   -0.492904
    16  O   -0.290436
    17  N   -0.309932
    18  C    0.090971
    19  C   -0.011131
    20  C   -0.063925
    21  C    0.084503
    22  C   -0.054878
    23  C    0.338198
    24  O   -0.538426
    25  C   -0.018321
    26  N   -0.281768
    27  C    0.102796
    28  C    0.000468
    29  C    0.008976
    30  C    0.171481
    31  C   -0.056343
    32  C   -0.031542
    33  C   -0.063348
    34  N   -0.346813
    35  C    0.139641
    36  C    0.077315
    37  C   -0.034705
    38  C    0.131633
    39  C   -0.040170
    40  C    0.353697
    41  O   -0.518103
    42  C    0.062779
    43  C    0.498725
    44  O   -0.535081
    45  O   -0.266510
    46  C    0.076903
    47  C    0.104071
    48  C   -0.085601
    49  C    0.001153
    50  C   -0.053656
    51  C   -0.016993
    52  C   -0.026439
    53  C   -0.041559
    54  C   -0.006586
    55  C   -0.057811
    56  C   -0.024882
    57  C   -0.047350
    58  C   -0.040109
    59  C   -0.008998
    60  C   -0.059094
    61  C   -0.033211
    62  C   -0.050796
    63  C   -0.043091
    64  C   -0.030429
    65  C   -0.055543
    66  C   -0.073488
    67  H    0.032903
    68  H    0.006624
    69  H    0.018606
    70  H    0.026338
    71  H    0.031483
    72  H    0.028326
    73  H    0.014400
    74  H    0.038589
    75  H    0.025518
    76  H    0.022121
    77  H    0.042047
    78  H    0.045609
    79  H    0.017580
    80  H    0.035873
    81  H    0.032268
    82  H    0.033206
    83  H    0.040832
    84  H    0.036635
    85  H    0.032823
    86  H    0.032850
    87  H    0.025528
    88  H    0.027400
    89  H    0.026734
    90  H    0.030285
    91  H    0.022231
    92  H    0.023085
    93  H    0.023894
    94  H    0.023388
    95  H    0.033877
    96  H    0.051456
    97  H    0.036319
    98  H    0.053116
    99  H    0.019900
   100  H    0.044053
   101  H    0.054247
   102  H    0.043164
   103  H    0.043143
   104  H    0.035093
   105  H    0.036599
   106  H    0.026166
   107  H    0.014585
   108  H    0.021737
   109  H    0.012018
   110  H    0.024067
   111  H    0.023609
   112  H    0.015516
   113  H    0.018571
   114  H    0.017469
   115  H    0.017773
   116  H    0.013802
   117  H    0.013783
   118  H    0.028966
   119  H    0.022027
   120  H    0.012222
   121  H    0.023397
   122  H    0.016552
   123  H    0.016798
   124  H    0.015509
   125  H    0.021925
   126  H    0.021396
   127  H    0.024682
   128  H    0.026544
   129  H    0.014220
   130  H    0.029317
   131  H    0.020679
   132  H    0.009969
   133  H    0.022425
   134  H    0.024657
   135  H    0.011437
   136  H    0.022206
   137  H    0.021716
   138  H    0.023029
   139  H    0.033299
   140  H    0.015808
 Sum of Mulliken charges =  -0.00000

 Dipole moment (field-independent basis, Debye):
    X=             -5.4777    Y=              2.6690    Z=              0.7373  Tot=              6.1377
 N-N= 4.375750239526D+03 E-N= 0.000000000000D+00  KE=-9.426444405760D+03
 Leave Link  601 at Thu Apr 28 10:08:53 2022, MaxMem=  6710886400 cpu:               1.0 elap:               0.1
 (Enter /sw/apps/gaussian-16.0/g16/l9999.exe)
 1\1\GINC-BP1-COMPUTE142\SP\RZINDO CIS\STO-3G\C55H74Mg1N4O6\OF15641\28-
 Apr-2022\0\\#p ZINDO=(nstates=5)\\step_151_chromophore_11 ZINDO\\0,1\M
 g,0,52.666,24.113,44.349\C,0,49.839,26.298,43.653\C,0,50.652,21.471,43
 .752\C,0,55.445,22.358,44.162\C,0,54.536,26.978,44.893\N,0,50.484,23.9
 9,43.493\C,0,49.487,24.92,43.449\C,0,48.149,24.23,43.337\C,0,48.487,22
 .785,43.659\C,0,49.942,22.68,43.547\C,0,48.003,22.291,45.09\C,0,47.489
 ,24.411,41.954\C,0,48.364,24.111,40.67\C,0,47.69,23.345,39.53\O,0,47.0

 Normal termination of Gaussian 16 at Thu Apr 28 10:08:53 2022.
