 Gaussian 16, Revision A.03,
 Gaussian 16:  ES64L-G16RevA.03 25-Dec-2016

 ------------------------------
 #p blyp/Def2SVP td=(nstates=5)
 ------------------------------

 ---------------------------------------------------
 step_1351_chromophore_25 TDDFT with blyp functional
 ---------------------------------------------------
 Symbolic Z-matrix:
 Charge =  0 Multiplicity = 1

                         Standard orientation:
 ---------------------------------------------------------------------
 Center     Atomic      Atomic             Coordinates (Angstroms)
 Number     Number       Type             X           Y           Z
 ---------------------------------------------------------------------
      1         12           0        6.077831    0.337577    0.278485
      2          6           0        3.614405   -2.012390   -0.345164
      3          6           0        3.800222    2.839312   -0.492132
      4          6           0        8.651498    2.473437   -0.106423
      5          6           0        8.507558   -2.293886    0.452559
      6          7           0        3.965620    0.409144   -0.288857
      7          6           0        3.111788   -0.719804   -0.405530
      8          6           0        1.612570   -0.267239   -0.396710
      9          6           0        1.734588    1.307715   -0.693163
     10          6           0        3.242950    1.534918   -0.570333
     11          6           0        1.075815    1.948990   -1.927850
     12          6           0        0.797825   -0.730213    0.956547
     13          6           0       -0.313907   -1.792538    0.637790
     14          6           0       -1.725970   -1.490583    1.317690
     15          8           0       -1.791196   -1.100281    2.477226
     16          8           0       -2.831605   -1.731948    0.605080
     17          7           0        6.171114    2.426339   -0.143012
     18          6           0        5.112801    3.267983   -0.286529
     19          6           0        5.610248    4.642840   -0.404363
     20          6           0        7.050920    4.565728   -0.365797
     21          6           0        7.355998    3.099382   -0.151040
     22          6           0        4.797724    5.883483   -0.751018
     23          6           0        8.107619    5.680174   -0.484894
     24          8           0        9.281334    5.462191   -0.631257
     25          6           0        7.701357    7.138155   -0.620962
     26          7           0        8.343782    0.071882    0.108928
     27          6           0        9.057509    1.157229    0.142424
     28          6           0       10.520301    0.893398    0.338450
     29          6           0       10.598321   -0.694985    0.502485
     30          6           0        9.102337   -1.050983    0.353718
     31          6           0       11.524833    1.451424   -0.779219
     32          6           0       11.123612   -1.299273    1.875937
     33          6           0       11.992978   -0.433769    2.802482
     34          7           0        6.109154   -1.717014    0.227589
     35          6           0        7.094941   -2.661743    0.415144
     36          6           0        6.609627   -3.990688    0.457335
     37          6           0        5.196975   -3.742568    0.241916
     38          6           0        4.971632   -2.341473    0.044697
     39          6           0        7.351991   -5.257114    0.602480
     40          6           0        3.973004   -4.379464    0.040862
     41          8           0        3.723853   -5.639181    0.102430
     42          6           0        2.848495   -3.333992   -0.223803
     43          6           0        2.168408   -3.811867   -1.419529
     44          8           0        2.682293   -3.790569   -2.524627
     45          8           0        0.924050   -4.279399   -1.012420
     46          6           0       -0.016171   -4.784715   -2.021903
     47          6           0       -4.036789   -1.284204    1.257634
     48          6           0       -5.159650   -1.320675    0.285306
     49          6           0       -6.345020   -0.692406    0.295114
     50          6           0       -6.608752    0.502566    1.189093
     51          6           0       -7.486378   -1.121912   -0.513014
     52          6           0       -7.892869   -0.074255   -1.607073
     53          6           0       -9.371598    0.502103   -1.511753
     54          6           0      -10.239051   -0.017003   -2.724853
     55          6           0      -10.318374    0.984536   -3.876046
     56          6           0      -11.669841   -0.529881   -2.388721
     57          6           0      -12.411380    0.178866   -1.177815
     58          6           0      -13.900948    0.395818   -1.414270
     59          6           0      -14.803956    0.287827   -0.180308
     60          6           0      -16.249949   -0.248738   -0.597145
     61          6           0      -14.945227    1.691340    0.562689
     62          6           0      -14.430506    1.636921    1.995820
     63          6           0      -12.989841    2.148248    2.130352
     64          6           0      -12.079359    1.235250    3.040063
     65          6           0      -11.940685    1.673756    4.468638
     66          6           0      -10.660543    0.880311    2.360114
     67          1           0        3.043164    3.625594   -0.534379
     68          1           0        9.496858    3.161764   -0.175047
     69          1           0        9.190703   -3.107959    0.706409
     70          1           0        1.262154   -0.772421   -1.296452
     71          1           0        1.387075    1.827780    0.199485
     72          1           0        0.155393    1.434160   -2.201175
     73          1           0        1.751670    2.066153   -2.775576
     74          1           0        0.721886    2.977536   -1.859328
     75          1           0        0.332980    0.114403    1.464985
     76          1           0        1.525581   -1.105619    1.675941
     77          1           0       -0.115548   -2.813456    0.962598
     78          1           0       -0.468964   -1.899833   -0.436164
     79          1           0        5.134160    6.003411   -1.780984
     80          1           0        5.184154    6.670736   -0.103363
     81          1           0        3.709913    5.839472   -0.793163
     82          1           0        8.569087    7.797698   -0.624004
     83          1           0        7.057219    7.519171    0.171004
     84          1           0        7.318525    7.265582   -1.634040
     85          1           0       10.801598    1.395842    1.263372
     86          1           0       11.024987   -1.208159   -0.359351
     87          1           0       11.891591    2.422154   -0.446673
     88          1           0       10.896839    1.674479   -1.640691
     89          1           0       12.329609    0.737295   -0.957512
     90          1           0       11.752809   -2.100328    1.489625
     91          1           0       10.392236   -1.847309    2.470437
     92          1           0       11.372403    0.328050    3.274117
     93          1           0       12.807139    0.050803    2.265061
     94          1           0       12.508369   -1.104576    3.490094
     95          1           0        7.652304   -5.481234   -0.420838
     96          1           0        6.700885   -6.041967    0.987486
     97          1           0        8.250535   -5.232151    1.219799
     98          1           0        2.150119   -3.495335    0.597408
     99          1           0        0.481533   -5.048360   -2.955018
    100          1           0       -0.657869   -3.938321   -2.266449
    101          1           0       -0.670462   -5.592887   -1.697659
    102          1           0       -3.933418   -0.282332    1.673269
    103          1           0       -4.404335   -1.957324    2.032607
    104          1           0       -5.081279   -2.158935   -0.407065
    105          1           0       -7.590769    0.356652    1.637158
    106          1           0       -6.686325    1.357638    0.517965
    107          1           0       -5.857229    0.730724    1.945742
    108          1           0       -8.385540   -1.337123    0.063453
    109          1           0       -7.117184   -2.032828   -0.983160
    110          1           0       -7.617477   -0.489806   -2.577078
    111          1           0       -7.244970    0.802476   -1.597565
    112          1           0       -9.369945    1.584357   -1.383753
    113          1           0       -9.704419    0.106903   -0.551870
    114          1           0       -9.715368   -0.923457   -3.029932
    115          1           0      -11.281449    1.443805   -4.096728
    116          1           0       -9.980033    0.427501   -4.749877
    117          1           0       -9.534109    1.729812   -3.740061
    118          1           0      -11.588283   -1.589806   -2.149499
    119          1           0      -12.189729   -0.513361   -3.346867
    120          1           0      -11.920669    1.140178   -1.026931
    121          1           0      -12.256651   -0.447441   -0.299409
    122          1           0      -14.282793   -0.138348   -2.283976
    123          1           0      -13.773635    1.362239   -1.901784
    124          1           0      -14.314277   -0.416460    0.492338
    125          1           0      -16.214051   -1.338313   -0.570557
    126          1           0      -16.497325    0.074627   -1.608076
    127          1           0      -17.066036    0.133020    0.016904
    128          1           0      -15.999141    1.967458    0.560469
    129          1           0      -14.398572    2.476839    0.040239
    130          1           0      -14.556883    0.645226    2.430891
    131          1           0      -15.088161    2.127107    2.713386
    132          1           0      -13.036821    3.108388    2.642873
    133          1           0      -12.513396    2.357771    1.171578
    134          1           0      -12.622588    0.320017    3.275960
    135          1           0      -11.942372    0.794036    5.112649
    136          1           0      -12.655208    2.397609    4.858999
    137          1           0      -10.988766    2.194038    4.573891
    138          1           0      -10.847655    0.116581    1.605791
    139          1           0       -9.915225    0.521739    3.071879
    140          1           0      -10.284551    1.736645    1.800483
 ---------------------------------------------------------------------

 SCF Done:  E(RB-LYP) =  -3007.36384661     A.U. after   21 cycles

 Excitation energies and oscillator strengths:

 Excited State   1:      Singlet-A      1.4625 eV  847.77 nm  f=0.0028  <S**2>=0.000
     245 -> 247        0.69023
     246 -> 247       -0.13335
 This state for optimization and/or second-order correction.
 Total Energy, E(TD-HF/TD-DFT) =  -3007.31010139
 Copying the excited state density for this state as the 1-particle RhoCI density.

 Excited State   2:      Singlet-A      1.7911 eV  692.24 nm  f=0.2952  <S**2>=0.000
     244 -> 248       -0.17319
     245 -> 247        0.13264
     246 -> 247        0.68055
     246 <- 247       -0.14495

 Excited State   3:      Singlet-A      2.0307 eV  610.55 nm  f=0.1144  <S**2>=0.000
     244 -> 247        0.65411
     246 -> 248        0.21579

 Excited State   4:      Singlet-A      2.0651 eV  600.37 nm  f=0.0024  <S**2>=0.000
     243 -> 247        0.70115

 Excited State   5:      Singlet-A      2.2810 eV  543.54 nm  f=0.0000  <S**2>=0.000
     241 -> 247        0.70697

 The electronic state is 1-A.
 Alpha  occ. eigenvalues --  -46.28254 -18.83063 -18.81965 -18.76265 -18.76140
 Alpha  occ. eigenvalues --  -18.76065 -18.73467 -14.03509 -14.02406 -14.01447
 Alpha  occ. eigenvalues --  -14.00761 -10.04085 -10.03252 -10.00442  -9.98018
 Alpha  occ. eigenvalues --   -9.97643  -9.97469  -9.97071  -9.96721  -9.96672
 Alpha  occ. eigenvalues --   -9.96099  -9.95800  -9.95752  -9.95362  -9.95167
 Alpha  occ. eigenvalues --   -9.95053  -9.94975  -9.94462  -9.94422  -9.94185
 Alpha  occ. eigenvalues --   -9.94080  -9.93973  -9.93686  -9.93623  -9.93550
 Alpha  occ. eigenvalues --   -9.93168  -9.93054  -9.92920  -9.92912  -9.92905
 Alpha  occ. eigenvalues --   -9.92574  -9.92416  -9.92393  -9.92318  -9.92240
 Alpha  occ. eigenvalues --   -9.92157  -9.92125  -9.92080  -9.92064  -9.92028
 Alpha  occ. eigenvalues --   -9.91966  -9.91907  -9.91824  -9.91738  -9.91546
 Alpha  occ. eigenvalues --   -9.91324  -9.91270  -9.91213  -9.91188  -9.91110
 Alpha  occ. eigenvalues --   -9.91027  -9.90928  -9.90849  -9.90608  -9.90505
 Alpha  occ. eigenvalues --   -9.90266  -2.92706  -1.73115  -1.72627  -1.72391
 Alpha  occ. eigenvalues --   -0.99682  -0.96523  -0.93153  -0.89825  -0.89706
 Alpha  occ. eigenvalues --   -0.87196  -0.86618  -0.85824  -0.85581  -0.84401
 Alpha  occ. eigenvalues --   -0.74774  -0.74107  -0.72737  -0.71887  -0.71774
 Alpha  occ. eigenvalues --   -0.71429  -0.71200  -0.70642  -0.70528  -0.70454
 Alpha  occ. eigenvalues --   -0.69970  -0.69057  -0.67982  -0.67247  -0.67113
 Alpha  occ. eigenvalues --   -0.66545  -0.65669  -0.65132  -0.64955  -0.64434
 Alpha  occ. eigenvalues --   -0.64068  -0.62516  -0.62298  -0.61792  -0.60974
 Alpha  occ. eigenvalues --   -0.60733  -0.60234  -0.59974  -0.59425  -0.58959
 Alpha  occ. eigenvalues --   -0.58493  -0.57894  -0.56874  -0.55789  -0.55179
 Alpha  occ. eigenvalues --   -0.53964  -0.53745  -0.52900  -0.52703  -0.51864
 Alpha  occ. eigenvalues --   -0.51307  -0.50916  -0.50709  -0.50439  -0.50104
 Alpha  occ. eigenvalues --   -0.49911  -0.49144  -0.48298  -0.48096  -0.46327
 Alpha  occ. eigenvalues --   -0.46313  -0.45492  -0.45285  -0.44720  -0.43903
 Alpha  occ. eigenvalues --   -0.43721  -0.43456  -0.43167  -0.42962  -0.42081
 Alpha  occ. eigenvalues --   -0.41860  -0.41742  -0.41385  -0.41134  -0.40947
 Alpha  occ. eigenvalues --   -0.40906  -0.40782  -0.40515  -0.40321  -0.39798
 Alpha  occ. eigenvalues --   -0.39773  -0.39406  -0.39250  -0.38994  -0.38842
 Alpha  occ. eigenvalues --   -0.38748  -0.38509  -0.38259  -0.38181  -0.38145
 Alpha  occ. eigenvalues --   -0.37950  -0.37772  -0.37462  -0.37423  -0.37148
 Alpha  occ. eigenvalues --   -0.37047  -0.36800  -0.36577  -0.36559  -0.36414
 Alpha  occ. eigenvalues --   -0.36269  -0.36233  -0.36047  -0.35545  -0.35450
 Alpha  occ. eigenvalues --   -0.35355  -0.35190  -0.35084  -0.34768  -0.34607
 Alpha  occ. eigenvalues --   -0.34387  -0.34157  -0.34089  -0.34009  -0.33962
 Alpha  occ. eigenvalues --   -0.33862  -0.33684  -0.33333  -0.33217  -0.33078
 Alpha  occ. eigenvalues --   -0.33004  -0.32954  -0.32715  -0.32622  -0.32407
 Alpha  occ. eigenvalues --   -0.32305  -0.31908  -0.31823  -0.31556  -0.31435
 Alpha  occ. eigenvalues --   -0.31249  -0.31052  -0.30931  -0.30802  -0.30689
 Alpha  occ. eigenvalues --   -0.30370  -0.30307  -0.30157  -0.29812  -0.29798
 Alpha  occ. eigenvalues --   -0.29503  -0.29286  -0.29101  -0.28921  -0.28747
 Alpha  occ. eigenvalues --   -0.28697  -0.28402  -0.28278  -0.28192  -0.27838
 Alpha  occ. eigenvalues --   -0.27731  -0.27625  -0.27529  -0.26223  -0.26132
 Alpha  occ. eigenvalues --   -0.26050  -0.25956  -0.25608  -0.25454  -0.25403
 Alpha  occ. eigenvalues --   -0.25167  -0.24797  -0.24625  -0.23477  -0.23416
 Alpha  occ. eigenvalues --   -0.22926  -0.22074  -0.21388  -0.21300  -0.20801
 Alpha  occ. eigenvalues --   -0.19986  -0.19734  -0.19099  -0.17128  -0.16902
 Alpha  occ. eigenvalues --   -0.15875
 Alpha virt. eigenvalues --   -0.11604  -0.06390  -0.05975  -0.04459  -0.03594
 Alpha virt. eigenvalues --   -0.02356  -0.02006  -0.01428  -0.01325   0.00233
 Alpha virt. eigenvalues --    0.01612   0.01893   0.01990   0.02326   0.02862

 Mulliken charges:
               1
     1  Mg   0.692612
     2  C    0.050995
     3  C   -0.094731
     4  C   -0.035315
     5  C   -0.051006
     6  N   -0.250705
     7  C   -0.091340
     8  C    0.052103
     9  C    0.017214
    10  C    0.032338
    11  C    0.129308
    12  C    0.151245
    13  C    0.105604
    14  C    0.042653
    15  O   -0.218532
    16  O   -0.225448
    17  N   -0.267485
    18  C    0.148052
    19  C   -0.159363
    20  C    0.005271
    21  C    0.090472
    22  C    0.180670
    23  C   -0.064598
    24  O   -0.141789
    25  C    0.118341
    26  N   -0.158460
    27  C    0.014329
    28  C   -0.009513
    29  C    0.082195
    30  C   -0.063209
    31  C    0.117771
    32  C    0.061072
    33  C    0.077315
    34  N   -0.241746
    35  C    0.080209
    36  C   -0.152753
    37  C    0.133106
    38  C    0.048245
    39  C    0.188370
    40  C   -0.123279
    41  O   -0.218885
    42  C    0.099855
    43  C    0.099040
    44  O   -0.167537
    45  O   -0.288449
    46  C    0.213997
    47  C    0.323805
    48  C   -0.126211
    49  C   -0.167252
    50  C    0.145927
    51  C    0.181325
    52  C    0.028762
    53  C    0.084906
    54  C   -0.073229
    55  C    0.126657
    56  C    0.074965
    57  C    0.032241
    58  C    0.097099
    59  C   -0.040498
    60  C    0.090504
    61  C    0.128162
    62  C    0.055047
    63  C    0.127954
    64  C   -0.086217
    65  C    0.090740
    66  C    0.052274
    67  H   -0.069947
    68  H   -0.050381
    69  H   -0.073276
    70  H   -0.018190
    71  H   -0.015441
    72  H   -0.005094
    73  H   -0.003553
    74  H   -0.017612
    75  H   -0.003560
    76  H   -0.004707
    77  H    0.030159
    78  H   -0.011759
    79  H    0.014075
    80  H    0.007775
    81  H   -0.005084
    82  H   -0.019069
    83  H    0.010093
    84  H    0.010397
    85  H   -0.017340
    86  H   -0.014983
    87  H    0.004404
    88  H    0.000952
    89  H    0.004320
    90  H   -0.030045
    91  H   -0.010301
    92  H    0.008750
    93  H   -0.014064
    94  H   -0.006191
    95  H    0.009228
    96  H    0.013357
    97  H   -0.008947
    98  H   -0.005866
    99  H    0.020726
   100  H   -0.000066
   101  H    0.025329
   102  H    0.001236
   103  H    0.012130
   104  H   -0.046672
   105  H   -0.009671
   106  H   -0.007719
   107  H   -0.010938
   108  H   -0.016949
   109  H   -0.044076
   110  H   -0.027727
   111  H   -0.029128
   112  H   -0.023601
   113  H   -0.033621
   114  H   -0.038669
   115  H   -0.001038
   116  H   -0.021352
   117  H   -0.029511
   118  H   -0.043579
   119  H   -0.036053
   120  H   -0.005468
   121  H   -0.014108
   122  H   -0.040385
   123  H   -0.045109
   124  H   -0.026320
   125  H   -0.009331
   126  H   -0.012953
   127  H   -0.014729
   128  H   -0.044130
   129  H   -0.030156
   130  H   -0.039794
   131  H   -0.046832
   132  H   -0.038277
   133  H   -0.031789
   134  H   -0.035166
   135  H   -0.015197
   136  H   -0.021162
   137  H   -0.029538
   138  H    0.004282
   139  H   -0.002282
   140  H   -0.003908
 Sum of Mulliken charges =  -0.00000

 Dipole moment (field-independent basis, Debye):
    X=             -2.3731    Y=              4.8975    Z=              0.7663  Tot=              5.4958
 Quadrupole moment (field-independent basis, Debye-Ang):
   XX=           -365.4144   YY=           -419.8964   ZZ=           -412.6553
   XY=              3.1193   XZ=             22.3337   YZ=             -3.5424

 Normal termination of Gaussian 16 at Thu Apr 28 00:51:21 2022.
