 Gaussian 16, Revision A.03,
 Gaussian 16:  ES64L-G16RevA.03 25-Dec-2016

 -----------------------------------
 #p cam-b3lyp/Def2SVP td=(nstates=5)
 -----------------------------------

 --------------------------------------------------------
 step_1351_chromophore_25 TDDFT with cam-b3lyp functional
 --------------------------------------------------------
 Symbolic Z-matrix:
 Charge =  0 Multiplicity = 1

                         Standard orientation:
 ---------------------------------------------------------------------
 Center     Atomic      Atomic             Coordinates (Angstroms)
 Number     Number       Type             X           Y           Z
 ---------------------------------------------------------------------
      1         12           0        6.077831    0.337577    0.278485
      2          6           0        3.614405   -2.012390   -0.345164
      3          6           0        3.800222    2.839312   -0.492132
      4          6           0        8.651498    2.473437   -0.106423
      5          6           0        8.507558   -2.293886    0.452559
      6          7           0        3.965620    0.409144   -0.288857
      7          6           0        3.111788   -0.719804   -0.405530
      8          6           0        1.612570   -0.267239   -0.396710
      9          6           0        1.734588    1.307715   -0.693163
     10          6           0        3.242950    1.534918   -0.570333
     11          6           0        1.075815    1.948990   -1.927850
     12          6           0        0.797825   -0.730213    0.956547
     13          6           0       -0.313907   -1.792538    0.637790
     14          6           0       -1.725970   -1.490583    1.317690
     15          8           0       -1.791196   -1.100281    2.477226
     16          8           0       -2.831605   -1.731948    0.605080
     17          7           0        6.171114    2.426339   -0.143012
     18          6           0        5.112801    3.267983   -0.286529
     19          6           0        5.610248    4.642840   -0.404363
     20          6           0        7.050920    4.565728   -0.365797
     21          6           0        7.355998    3.099382   -0.151040
     22          6           0        4.797724    5.883483   -0.751018
     23          6           0        8.107619    5.680174   -0.484894
     24          8           0        9.281334    5.462191   -0.631257
     25          6           0        7.701357    7.138155   -0.620962
     26          7           0        8.343782    0.071882    0.108928
     27          6           0        9.057509    1.157229    0.142424
     28          6           0       10.520301    0.893398    0.338450
     29          6           0       10.598321   -0.694985    0.502485
     30          6           0        9.102337   -1.050983    0.353718
     31          6           0       11.524833    1.451424   -0.779219
     32          6           0       11.123612   -1.299273    1.875937
     33          6           0       11.992978   -0.433769    2.802482
     34          7           0        6.109154   -1.717014    0.227589
     35          6           0        7.094941   -2.661743    0.415144
     36          6           0        6.609627   -3.990688    0.457335
     37          6           0        5.196975   -3.742568    0.241916
     38          6           0        4.971632   -2.341473    0.044697
     39          6           0        7.351991   -5.257114    0.602480
     40          6           0        3.973004   -4.379464    0.040862
     41          8           0        3.723853   -5.639181    0.102430
     42          6           0        2.848495   -3.333992   -0.223803
     43          6           0        2.168408   -3.811867   -1.419529
     44          8           0        2.682293   -3.790569   -2.524627
     45          8           0        0.924050   -4.279399   -1.012420
     46          6           0       -0.016171   -4.784715   -2.021903
     47          6           0       -4.036789   -1.284204    1.257634
     48          6           0       -5.159650   -1.320675    0.285306
     49          6           0       -6.345020   -0.692406    0.295114
     50          6           0       -6.608752    0.502566    1.189093
     51          6           0       -7.486378   -1.121912   -0.513014
     52          6           0       -7.892869   -0.074255   -1.607073
     53          6           0       -9.371598    0.502103   -1.511753
     54          6           0      -10.239051   -0.017003   -2.724853
     55          6           0      -10.318374    0.984536   -3.876046
     56          6           0      -11.669841   -0.529881   -2.388721
     57          6           0      -12.411380    0.178866   -1.177815
     58          6           0      -13.900948    0.395818   -1.414270
     59          6           0      -14.803956    0.287827   -0.180308
     60          6           0      -16.249949   -0.248738   -0.597145
     61          6           0      -14.945227    1.691340    0.562689
     62          6           0      -14.430506    1.636921    1.995820
     63          6           0      -12.989841    2.148248    2.130352
     64          6           0      -12.079359    1.235250    3.040063
     65          6           0      -11.940685    1.673756    4.468638
     66          6           0      -10.660543    0.880311    2.360114
     67          1           0        3.043164    3.625594   -0.534379
     68          1           0        9.496858    3.161764   -0.175047
     69          1           0        9.190703   -3.107959    0.706409
     70          1           0        1.262154   -0.772421   -1.296452
     71          1           0        1.387075    1.827780    0.199485
     72          1           0        0.155393    1.434160   -2.201175
     73          1           0        1.751670    2.066153   -2.775576
     74          1           0        0.721886    2.977536   -1.859328
     75          1           0        0.332980    0.114403    1.464985
     76          1           0        1.525581   -1.105619    1.675941
     77          1           0       -0.115548   -2.813456    0.962598
     78          1           0       -0.468964   -1.899833   -0.436164
     79          1           0        5.134160    6.003411   -1.780984
     80          1           0        5.184154    6.670736   -0.103363
     81          1           0        3.709913    5.839472   -0.793163
     82          1           0        8.569087    7.797698   -0.624004
     83          1           0        7.057219    7.519171    0.171004
     84          1           0        7.318525    7.265582   -1.634040
     85          1           0       10.801598    1.395842    1.263372
     86          1           0       11.024987   -1.208159   -0.359351
     87          1           0       11.891591    2.422154   -0.446673
     88          1           0       10.896839    1.674479   -1.640691
     89          1           0       12.329609    0.737295   -0.957512
     90          1           0       11.752809   -2.100328    1.489625
     91          1           0       10.392236   -1.847309    2.470437
     92          1           0       11.372403    0.328050    3.274117
     93          1           0       12.807139    0.050803    2.265061
     94          1           0       12.508369   -1.104576    3.490094
     95          1           0        7.652304   -5.481234   -0.420838
     96          1           0        6.700885   -6.041967    0.987486
     97          1           0        8.250535   -5.232151    1.219799
     98          1           0        2.150119   -3.495335    0.597408
     99          1           0        0.481533   -5.048360   -2.955018
    100          1           0       -0.657869   -3.938321   -2.266449
    101          1           0       -0.670462   -5.592887   -1.697659
    102          1           0       -3.933418   -0.282332    1.673269
    103          1           0       -4.404335   -1.957324    2.032607
    104          1           0       -5.081279   -2.158935   -0.407065
    105          1           0       -7.590769    0.356652    1.637158
    106          1           0       -6.686325    1.357638    0.517965
    107          1           0       -5.857229    0.730724    1.945742
    108          1           0       -8.385540   -1.337123    0.063453
    109          1           0       -7.117184   -2.032828   -0.983160
    110          1           0       -7.617477   -0.489806   -2.577078
    111          1           0       -7.244970    0.802476   -1.597565
    112          1           0       -9.369945    1.584357   -1.383753
    113          1           0       -9.704419    0.106903   -0.551870
    114          1           0       -9.715368   -0.923457   -3.029932
    115          1           0      -11.281449    1.443805   -4.096728
    116          1           0       -9.980033    0.427501   -4.749877
    117          1           0       -9.534109    1.729812   -3.740061
    118          1           0      -11.588283   -1.589806   -2.149499
    119          1           0      -12.189729   -0.513361   -3.346867
    120          1           0      -11.920669    1.140178   -1.026931
    121          1           0      -12.256651   -0.447441   -0.299409
    122          1           0      -14.282793   -0.138348   -2.283976
    123          1           0      -13.773635    1.362239   -1.901784
    124          1           0      -14.314277   -0.416460    0.492338
    125          1           0      -16.214051   -1.338313   -0.570557
    126          1           0      -16.497325    0.074627   -1.608076
    127          1           0      -17.066036    0.133020    0.016904
    128          1           0      -15.999141    1.967458    0.560469
    129          1           0      -14.398572    2.476839    0.040239
    130          1           0      -14.556883    0.645226    2.430891
    131          1           0      -15.088161    2.127107    2.713386
    132          1           0      -13.036821    3.108388    2.642873
    133          1           0      -12.513396    2.357771    1.171578
    134          1           0      -12.622588    0.320017    3.275960
    135          1           0      -11.942372    0.794036    5.112649
    136          1           0      -12.655208    2.397609    4.858999
    137          1           0      -10.988766    2.194038    4.573891
    138          1           0      -10.847655    0.116581    1.605791
    139          1           0       -9.915225    0.521739    3.071879
    140          1           0      -10.284551    1.736645    1.800483
 ---------------------------------------------------------------------

 SCF Done:  E(RCAM-B3LYP) =  -3007.15142871     A.U. after   18 cycles

 Excitation energies and oscillator strengths:

 Excited State   1:      Singlet-A      1.7838 eV  695.04 nm  f=0.3646  <S**2>=0.000
     245 -> 248        0.15753
     246 -> 247        0.68965
 This state for optimization and/or second-order correction.
 Total Energy, E(TD-HF/TD-DFT) =  -3007.08587382
 Copying the excited state density for this state as the 1-particle RhoCI density.

 Excited State   2:      Singlet-A      2.2557 eV  549.65 nm  f=0.1797  <S**2>=0.000
     245 -> 247        0.65611
     246 -> 248       -0.24228

 Excited State   3:      Singlet-A      3.2606 eV  380.25 nm  f=0.0023  <S**2>=0.000
     243 -> 247        0.31568
     243 -> 249        0.15599
     243 -> 251        0.20573
     244 -> 247        0.51469
     244 -> 249        0.13629
     244 -> 251        0.12697

 Excited State   4:      Singlet-A      3.3966 eV  365.02 nm  f=0.0111  <S**2>=0.000
     241 -> 247        0.21317
     243 -> 247        0.50181
     243 -> 249        0.11525
     244 -> 247       -0.39250

 Excited State   5:      Singlet-A      3.4989 eV  354.36 nm  f=0.0072  <S**2>=0.000
     240 -> 247        0.34555
     241 -> 247        0.52610
     243 -> 247       -0.13386
     244 -> 247        0.15279
     246 -> 248        0.21499

 The electronic state is 1-A.
 Alpha  occ. eigenvalues --  -46.89919 -19.25928 -19.24739 -19.19956 -19.19125
 Alpha  occ. eigenvalues --  -19.19034 -19.15641 -14.42495 -14.41260 -14.40263
 Alpha  occ. eigenvalues --  -14.38751 -10.39290 -10.38502 -10.36262 -10.32337
 Alpha  occ. eigenvalues --  -10.32295 -10.31980 -10.31923 -10.31429 -10.31357
 Alpha  occ. eigenvalues --  -10.30990 -10.30613 -10.30602 -10.29544 -10.29541
 Alpha  occ. eigenvalues --  -10.29347 -10.28889 -10.28408 -10.28382 -10.28228
 Alpha  occ. eigenvalues --  -10.28127 -10.28124 -10.28038 -10.27979 -10.27654
 Alpha  occ. eigenvalues --  -10.27258 -10.27012 -10.26878 -10.26733 -10.26682
 Alpha  occ. eigenvalues --  -10.26530 -10.26481 -10.26468 -10.26355 -10.26184
 Alpha  occ. eigenvalues --  -10.26141 -10.25823 -10.25749 -10.25738 -10.25727
 Alpha  occ. eigenvalues --  -10.25583 -10.25558 -10.25518 -10.25236 -10.25226
 Alpha  occ. eigenvalues --  -10.25145 -10.25039 -10.24882 -10.24825 -10.24802
 Alpha  occ. eigenvalues --  -10.24685 -10.24511 -10.24459 -10.24231 -10.24077
 Alpha  occ. eigenvalues --  -10.23379  -3.18264  -1.93152  -1.92744  -1.92535
 Alpha  occ. eigenvalues --   -1.18120  -1.14844  -1.12260  -1.07581  -1.07547
 Alpha  occ. eigenvalues --   -1.04678  -1.04254  -1.03704  -1.02978  -1.02089
 Alpha  occ. eigenvalues --   -0.91526  -0.91038  -0.89524  -0.88807  -0.88460
 Alpha  occ. eigenvalues --   -0.88154  -0.87844  -0.87607  -0.87232  -0.87021
 Alpha  occ. eigenvalues --   -0.86043  -0.85390  -0.84301  -0.83293  -0.83112
 Alpha  occ. eigenvalues --   -0.82619  -0.82007  -0.81272  -0.80785  -0.80319
 Alpha  occ. eigenvalues --   -0.79842  -0.78635  -0.77884  -0.77252  -0.76407
 Alpha  occ. eigenvalues --   -0.75999  -0.75594  -0.75225  -0.74699  -0.74189
 Alpha  occ. eigenvalues --   -0.73516  -0.72819  -0.71850  -0.70662  -0.69766
 Alpha  occ. eigenvalues --   -0.68597  -0.68475  -0.67294  -0.67065  -0.66193
 Alpha  occ. eigenvalues --   -0.65591  -0.64893  -0.64564  -0.64280  -0.64126
 Alpha  occ. eigenvalues --   -0.63889  -0.63093  -0.61905  -0.61746  -0.60379
 Alpha  occ. eigenvalues --   -0.59830  -0.58851  -0.58803  -0.58045  -0.57301
 Alpha  occ. eigenvalues --   -0.57127  -0.56797  -0.56526  -0.56172  -0.55220
 Alpha  occ. eigenvalues --   -0.54963  -0.54707  -0.54292  -0.54081  -0.54024
 Alpha  occ. eigenvalues --   -0.53863  -0.53618  -0.53543  -0.53122  -0.52930
 Alpha  occ. eigenvalues --   -0.52696  -0.52106  -0.51822  -0.51523  -0.51342
 Alpha  occ. eigenvalues --   -0.51169  -0.51118  -0.50905  -0.50606  -0.50466
 Alpha  occ. eigenvalues --   -0.50344  -0.50084  -0.50048  -0.49682  -0.49651
 Alpha  occ. eigenvalues --   -0.49292  -0.49226  -0.49208  -0.49029  -0.48507
 Alpha  occ. eigenvalues --   -0.48399  -0.48265  -0.48038  -0.47810  -0.47642
 Alpha  occ. eigenvalues --   -0.47326  -0.47286  -0.47044  -0.46676  -0.46586
 Alpha  occ. eigenvalues --   -0.46304  -0.46001  -0.45908  -0.45737  -0.45701
 Alpha  occ. eigenvalues --   -0.45593  -0.45420  -0.45107  -0.44866  -0.44826
 Alpha  occ. eigenvalues --   -0.44664  -0.44414  -0.44362  -0.44247  -0.43971
 Alpha  occ. eigenvalues --   -0.43862  -0.43847  -0.43571  -0.43298  -0.43158
 Alpha  occ. eigenvalues --   -0.43078  -0.42545  -0.42432  -0.42352  -0.41917
 Alpha  occ. eigenvalues --   -0.41818  -0.41463  -0.41363  -0.41327  -0.41117
 Alpha  occ. eigenvalues --   -0.40958  -0.40598  -0.40367  -0.40221  -0.39847
 Alpha  occ. eigenvalues --   -0.39698  -0.39519  -0.39257  -0.39073  -0.38712
 Alpha  occ. eigenvalues --   -0.38600  -0.38495  -0.38251  -0.37271  -0.37192
 Alpha  occ. eigenvalues --   -0.36927  -0.36816  -0.36524  -0.36445  -0.36074
 Alpha  occ. eigenvalues --   -0.35938  -0.35750  -0.35341  -0.33862  -0.33790
 Alpha  occ. eigenvalues --   -0.33688  -0.33416  -0.32610  -0.31903  -0.31382
 Alpha  occ. eigenvalues --   -0.30587  -0.29552  -0.28540  -0.28152  -0.23967
 Alpha  occ. eigenvalues --   -0.21405
 Alpha virt. eigenvalues --   -0.08724  -0.01016   0.00275   0.01448   0.02610
 Alpha virt. eigenvalues --    0.05372   0.05755   0.05913   0.06245   0.06862
 Alpha virt. eigenvalues --    0.08067   0.08134   0.08308   0.09038   0.09145

 Mulliken charges:
               1
     1  Mg   0.822283
     2  C    0.038883
     3  C   -0.115850
     4  C   -0.059896
     5  C   -0.051737
     6  N   -0.322083
     7  C   -0.048141
     8  C    0.003143
     9  C   -0.040895
    10  C    0.065894
    11  C    0.067655
    12  C    0.096160
    13  C    0.043026
    14  C    0.123760
    15  O   -0.260650
    16  O   -0.289669
    17  N   -0.359358
    18  C    0.169579
    19  C   -0.160798
    20  C   -0.058381
    21  C    0.124001
    22  C    0.122409
    23  C    0.014288
    24  O   -0.177593
    25  C    0.034910
    26  N   -0.225386
    27  C    0.044289
    28  C   -0.072482
    29  C    0.033740
    30  C   -0.051264
    31  C    0.060451
    32  C    0.006370
    33  C    0.015020
    34  N   -0.332345
    35  C    0.077867
    36  C   -0.148822
    37  C    0.046010
    38  C    0.073447
    39  C    0.133587
    40  C   -0.024106
    41  O   -0.267634
    42  C    0.007626
    43  C    0.193434
    44  O   -0.205410
    45  O   -0.355073
    46  C    0.177417
    47  C    0.290163
    48  C   -0.145178
    49  C   -0.187842
    50  C    0.090341
    51  C    0.119073
    52  C   -0.025388
    53  C    0.033303
    54  C   -0.125641
    55  C    0.062576
    56  C    0.030966
    57  C   -0.017313
    58  C    0.045359
    59  C   -0.100084
    60  C    0.035283
    61  C    0.072713
    62  C    0.001825
    63  C    0.069426
    64  C   -0.140261
    65  C    0.031670
    66  C    0.001146
    67  H   -0.035514
    68  H   -0.009540
    69  H   -0.038417
    70  H    0.016049
    71  H    0.020867
    72  H    0.022282
    73  H    0.023361
    74  H    0.007828
    75  H    0.027749
    76  H    0.027378
    77  H    0.060106
    78  H    0.018081
    79  H    0.042557
    80  H    0.033518
    81  H    0.026802
    82  H    0.020115
    83  H    0.038169
    84  H    0.039393
    85  H    0.016722
    86  H    0.020135
    87  H    0.026820
    88  H    0.026138
    89  H    0.029672
    90  H   -0.002029
    91  H    0.019296
    92  H    0.028112
    93  H    0.007304
    94  H    0.018480
    95  H    0.033561
    96  H    0.039699
    97  H    0.012518
    98  H    0.037085
    99  H    0.046885
   100  H    0.018583
   101  H    0.047374
   102  H    0.028213
   103  H    0.040375
   104  H   -0.011738
   105  H    0.010090
   106  H    0.015855
   107  H    0.013778
   108  H    0.011989
   109  H   -0.010989
   110  H    0.001254
   111  H   -0.000481
   112  H    0.003935
   113  H   -0.011676
   114  H   -0.004784
   115  H    0.022057
   116  H    0.003738
   117  H   -0.004362
   118  H   -0.013831
   119  H   -0.007759
   120  H    0.015690
   121  H    0.008420
   122  H   -0.010026
   123  H   -0.016575
   124  H    0.003726
   125  H    0.014504
   126  H    0.009774
   127  H    0.008766
   128  H   -0.013189
   129  H   -0.002210
   130  H   -0.011676
   131  H   -0.016044
   132  H   -0.008054
   133  H   -0.005428
   134  H   -0.004686
   135  H    0.008766
   136  H    0.003801
   137  H   -0.005201
   138  H    0.021012
   139  H    0.020419
   140  H    0.015600
 Sum of Mulliken charges =  -0.00000

 Dipole moment (field-independent basis, Debye):
    X=             -2.3764    Y=              7.2618    Z=              0.5354  Tot=              7.6595
 Quadrupole moment (field-independent basis, Debye-Ang):
   XX=           -363.9920   YY=           -414.7492   ZZ=           -413.0359
   XY=             16.9563   XZ=             22.2633   YZ=             -3.9027

 Normal termination of Gaussian 16 at Wed Apr 27 23:24:56 2022.
