 Gaussian 16, Revision A.03,
 Gaussian 16:  ES64L-G16RevA.03 25-Dec-2016

 ---------------------------------
 #p PBE1PBE/Def2SVP td=(nstates=5)
 ---------------------------------

 ------------------------------------------------------
 step_1351_chromophore_25 TDDFT with PBE1PBE functional
 ------------------------------------------------------
 Symbolic Z-matrix:
 Charge =  0 Multiplicity = 1

                         Standard orientation:
 ---------------------------------------------------------------------
 Center     Atomic      Atomic             Coordinates (Angstroms)
 Number     Number       Type             X           Y           Z
 ---------------------------------------------------------------------
      1         12           0        6.077831    0.337577    0.278485
      2          6           0        3.614405   -2.012390   -0.345164
      3          6           0        3.800222    2.839312   -0.492132
      4          6           0        8.651498    2.473437   -0.106423
      5          6           0        8.507558   -2.293886    0.452559
      6          7           0        3.965620    0.409144   -0.288857
      7          6           0        3.111788   -0.719804   -0.405530
      8          6           0        1.612570   -0.267239   -0.396710
      9          6           0        1.734588    1.307715   -0.693163
     10          6           0        3.242950    1.534918   -0.570333
     11          6           0        1.075815    1.948990   -1.927850
     12          6           0        0.797825   -0.730213    0.956547
     13          6           0       -0.313907   -1.792538    0.637790
     14          6           0       -1.725970   -1.490583    1.317690
     15          8           0       -1.791196   -1.100281    2.477226
     16          8           0       -2.831605   -1.731948    0.605080
     17          7           0        6.171114    2.426339   -0.143012
     18          6           0        5.112801    3.267983   -0.286529
     19          6           0        5.610248    4.642840   -0.404363
     20          6           0        7.050920    4.565728   -0.365797
     21          6           0        7.355998    3.099382   -0.151040
     22          6           0        4.797724    5.883483   -0.751018
     23          6           0        8.107619    5.680174   -0.484894
     24          8           0        9.281334    5.462191   -0.631257
     25          6           0        7.701357    7.138155   -0.620962
     26          7           0        8.343782    0.071882    0.108928
     27          6           0        9.057509    1.157229    0.142424
     28          6           0       10.520301    0.893398    0.338450
     29          6           0       10.598321   -0.694985    0.502485
     30          6           0        9.102337   -1.050983    0.353718
     31          6           0       11.524833    1.451424   -0.779219
     32          6           0       11.123612   -1.299273    1.875937
     33          6           0       11.992978   -0.433769    2.802482
     34          7           0        6.109154   -1.717014    0.227589
     35          6           0        7.094941   -2.661743    0.415144
     36          6           0        6.609627   -3.990688    0.457335
     37          6           0        5.196975   -3.742568    0.241916
     38          6           0        4.971632   -2.341473    0.044697
     39          6           0        7.351991   -5.257114    0.602480
     40          6           0        3.973004   -4.379464    0.040862
     41          8           0        3.723853   -5.639181    0.102430
     42          6           0        2.848495   -3.333992   -0.223803
     43          6           0        2.168408   -3.811867   -1.419529
     44          8           0        2.682293   -3.790569   -2.524627
     45          8           0        0.924050   -4.279399   -1.012420
     46          6           0       -0.016171   -4.784715   -2.021903
     47          6           0       -4.036789   -1.284204    1.257634
     48          6           0       -5.159650   -1.320675    0.285306
     49          6           0       -6.345020   -0.692406    0.295114
     50          6           0       -6.608752    0.502566    1.189093
     51          6           0       -7.486378   -1.121912   -0.513014
     52          6           0       -7.892869   -0.074255   -1.607073
     53          6           0       -9.371598    0.502103   -1.511753
     54          6           0      -10.239051   -0.017003   -2.724853
     55          6           0      -10.318374    0.984536   -3.876046
     56          6           0      -11.669841   -0.529881   -2.388721
     57          6           0      -12.411380    0.178866   -1.177815
     58          6           0      -13.900948    0.395818   -1.414270
     59          6           0      -14.803956    0.287827   -0.180308
     60          6           0      -16.249949   -0.248738   -0.597145
     61          6           0      -14.945227    1.691340    0.562689
     62          6           0      -14.430506    1.636921    1.995820
     63          6           0      -12.989841    2.148248    2.130352
     64          6           0      -12.079359    1.235250    3.040063
     65          6           0      -11.940685    1.673756    4.468638
     66          6           0      -10.660543    0.880311    2.360114
     67          1           0        3.043164    3.625594   -0.534379
     68          1           0        9.496858    3.161764   -0.175047
     69          1           0        9.190703   -3.107959    0.706409
     70          1           0        1.262154   -0.772421   -1.296452
     71          1           0        1.387075    1.827780    0.199485
     72          1           0        0.155393    1.434160   -2.201175
     73          1           0        1.751670    2.066153   -2.775576
     74          1           0        0.721886    2.977536   -1.859328
     75          1           0        0.332980    0.114403    1.464985
     76          1           0        1.525581   -1.105619    1.675941
     77          1           0       -0.115548   -2.813456    0.962598
     78          1           0       -0.468964   -1.899833   -0.436164
     79          1           0        5.134160    6.003411   -1.780984
     80          1           0        5.184154    6.670736   -0.103363
     81          1           0        3.709913    5.839472   -0.793163
     82          1           0        8.569087    7.797698   -0.624004
     83          1           0        7.057219    7.519171    0.171004
     84          1           0        7.318525    7.265582   -1.634040
     85          1           0       10.801598    1.395842    1.263372
     86          1           0       11.024987   -1.208159   -0.359351
     87          1           0       11.891591    2.422154   -0.446673
     88          1           0       10.896839    1.674479   -1.640691
     89          1           0       12.329609    0.737295   -0.957512
     90          1           0       11.752809   -2.100328    1.489625
     91          1           0       10.392236   -1.847309    2.470437
     92          1           0       11.372403    0.328050    3.274117
     93          1           0       12.807139    0.050803    2.265061
     94          1           0       12.508369   -1.104576    3.490094
     95          1           0        7.652304   -5.481234   -0.420838
     96          1           0        6.700885   -6.041967    0.987486
     97          1           0        8.250535   -5.232151    1.219799
     98          1           0        2.150119   -3.495335    0.597408
     99          1           0        0.481533   -5.048360   -2.955018
    100          1           0       -0.657869   -3.938321   -2.266449
    101          1           0       -0.670462   -5.592887   -1.697659
    102          1           0       -3.933418   -0.282332    1.673269
    103          1           0       -4.404335   -1.957324    2.032607
    104          1           0       -5.081279   -2.158935   -0.407065
    105          1           0       -7.590769    0.356652    1.637158
    106          1           0       -6.686325    1.357638    0.517965
    107          1           0       -5.857229    0.730724    1.945742
    108          1           0       -8.385540   -1.337123    0.063453
    109          1           0       -7.117184   -2.032828   -0.983160
    110          1           0       -7.617477   -0.489806   -2.577078
    111          1           0       -7.244970    0.802476   -1.597565
    112          1           0       -9.369945    1.584357   -1.383753
    113          1           0       -9.704419    0.106903   -0.551870
    114          1           0       -9.715368   -0.923457   -3.029932
    115          1           0      -11.281449    1.443805   -4.096728
    116          1           0       -9.980033    0.427501   -4.749877
    117          1           0       -9.534109    1.729812   -3.740061
    118          1           0      -11.588283   -1.589806   -2.149499
    119          1           0      -12.189729   -0.513361   -3.346867
    120          1           0      -11.920669    1.140178   -1.026931
    121          1           0      -12.256651   -0.447441   -0.299409
    122          1           0      -14.282793   -0.138348   -2.283976
    123          1           0      -13.773635    1.362239   -1.901784
    124          1           0      -14.314277   -0.416460    0.492338
    125          1           0      -16.214051   -1.338313   -0.570557
    126          1           0      -16.497325    0.074627   -1.608076
    127          1           0      -17.066036    0.133020    0.016904
    128          1           0      -15.999141    1.967458    0.560469
    129          1           0      -14.398572    2.476839    0.040239
    130          1           0      -14.556883    0.645226    2.430891
    131          1           0      -15.088161    2.127107    2.713386
    132          1           0      -13.036821    3.108388    2.642873
    133          1           0      -12.513396    2.357771    1.171578
    134          1           0      -12.622588    0.320017    3.275960
    135          1           0      -11.942372    0.794036    5.112649
    136          1           0      -12.655208    2.397609    4.858999
    137          1           0      -10.988766    2.194038    4.573891
    138          1           0      -10.847655    0.116581    1.605791
    139          1           0       -9.915225    0.521739    3.071879
    140          1           0      -10.284551    1.736645    1.800483
 ---------------------------------------------------------------------

 SCF Done:  E(RPBE1PBE) =  -3005.33852494     A.U. after   20 cycles

 Excitation energies and oscillator strengths:

 Excited State   1:      Singlet-A      1.8483 eV  670.81 nm  f=0.3549  <S**2>=0.000
     245 -> 248        0.16145
     246 -> 247        0.69522
     246 <- 247       -0.10136
 This state for optimization and/or second-order correction.
 Total Energy, E(TD-HF/TD-DFT) =  -3005.27060219
 Copying the excited state density for this state as the 1-particle RhoCI density.

 Excited State   2:      Singlet-A      2.2409 eV  553.29 nm  f=0.1628  <S**2>=0.000
     245 -> 247        0.66533
     246 -> 248       -0.22978

 Excited State   3:      Singlet-A      2.5865 eV  479.36 nm  f=0.0017  <S**2>=0.000
     244 -> 247        0.68187
     244 -> 249       -0.12916
     244 -> 250       -0.10351

 Excited State   4:      Singlet-A      2.9175 eV  424.96 nm  f=0.0077  <S**2>=0.000
     243 -> 247        0.69283

 Excited State   5:      Singlet-A      3.1511 eV  393.47 nm  f=0.0000  <S**2>=0.000
     240 -> 247        0.67271
     240 -> 249        0.16412

 The electronic state is 1-A.
 Alpha  occ. eigenvalues --  -46.93296 -19.26643 -19.25545 -19.19746 -19.19493
 Alpha  occ. eigenvalues --  -19.19410 -19.16509 -14.42007 -14.40696 -14.39684
 Alpha  occ. eigenvalues --  -14.38660 -10.36430 -10.35647 -10.33003 -10.29915
 Alpha  occ. eigenvalues --  -10.29580 -10.29422 -10.29137 -10.28970 -10.28671
 Alpha  occ. eigenvalues --  -10.28450 -10.27947 -10.27692 -10.27659 -10.27416
 Alpha  occ. eigenvalues --  -10.26982 -10.26790 -10.26268 -10.26091 -10.26070
 Alpha  occ. eigenvalues --  -10.26014 -10.25946 -10.25697 -10.25413 -10.25263
 Alpha  occ. eigenvalues --  -10.24970 -10.24752 -10.24746 -10.24316 -10.24229
 Alpha  occ. eigenvalues --  -10.24222 -10.24141 -10.24014 -10.23907 -10.23716
 Alpha  occ. eigenvalues --  -10.23562 -10.23511 -10.23440 -10.23312 -10.23235
 Alpha  occ. eigenvalues --  -10.23189 -10.23139 -10.22980 -10.22969 -10.22794
 Alpha  occ. eigenvalues --  -10.22653 -10.22577 -10.22429 -10.22404 -10.22252
 Alpha  occ. eigenvalues --  -10.22217 -10.21988 -10.21898 -10.21788 -10.21741
 Alpha  occ. eigenvalues --  -10.21435  -3.15226  -1.88053  -1.87625  -1.87420
 Alpha  occ. eigenvalues --   -1.13029  -1.09734  -1.06619  -1.02540  -1.02476
 Alpha  occ. eigenvalues --   -0.99625  -0.99030  -0.98083  -0.98030  -0.96634
 Alpha  occ. eigenvalues --   -0.86134  -0.85212  -0.83594  -0.82946  -0.82566
 Alpha  occ. eigenvalues --   -0.82323  -0.82069  -0.81622  -0.81492  -0.81134
 Alpha  occ. eigenvalues --   -0.80716  -0.79610  -0.78485  -0.77613  -0.77419
 Alpha  occ. eigenvalues --   -0.76858  -0.76016  -0.75474  -0.75052  -0.74666
 Alpha  occ. eigenvalues --   -0.74008  -0.72631  -0.72220  -0.71612  -0.70561
 Alpha  occ. eigenvalues --   -0.70425  -0.69681  -0.69586  -0.68837  -0.68350
 Alpha  occ. eigenvalues --   -0.67915  -0.67337  -0.66208  -0.64938  -0.64152
 Alpha  occ. eigenvalues --   -0.62869  -0.62730  -0.61894  -0.61325  -0.60364
 Alpha  occ. eigenvalues --   -0.60001  -0.59493  -0.59162  -0.58816  -0.58407
 Alpha  occ. eigenvalues --   -0.58244  -0.57293  -0.56476  -0.56141  -0.54655
 Alpha  occ. eigenvalues --   -0.54257  -0.53494  -0.53394  -0.52652  -0.51892
 Alpha  occ. eigenvalues --   -0.51647  -0.51265  -0.50987  -0.50706  -0.49768
 Alpha  occ. eigenvalues --   -0.49570  -0.49322  -0.48725  -0.48655  -0.48559
 Alpha  occ. eigenvalues --   -0.48245  -0.47939  -0.47853  -0.47551  -0.47359
 Alpha  occ. eigenvalues --   -0.47308  -0.46680  -0.46314  -0.46180  -0.45857
 Alpha  occ. eigenvalues --   -0.45745  -0.45510  -0.45294  -0.45214  -0.44971
 Alpha  occ. eigenvalues --   -0.44923  -0.44699  -0.44632  -0.44208  -0.44159
 Alpha  occ. eigenvalues --   -0.43897  -0.43786  -0.43767  -0.43452  -0.43264
 Alpha  occ. eigenvalues --   -0.43093  -0.42827  -0.42775  -0.42436  -0.42093
 Alpha  occ. eigenvalues --   -0.42051  -0.41871  -0.41785  -0.41287  -0.41207
 Alpha  occ. eigenvalues --   -0.41049  -0.40847  -0.40674  -0.40571  -0.40397
 Alpha  occ. eigenvalues --   -0.40305  -0.40177  -0.39786  -0.39621  -0.39573
 Alpha  occ. eigenvalues --   -0.39431  -0.39319  -0.39181  -0.38928  -0.38777
 Alpha  occ. eigenvalues --   -0.38535  -0.38491  -0.38345  -0.38101  -0.37995
 Alpha  occ. eigenvalues --   -0.37692  -0.37477  -0.37280  -0.37079  -0.36732
 Alpha  occ. eigenvalues --   -0.36656  -0.36347  -0.36247  -0.36160  -0.35922
 Alpha  occ. eigenvalues --   -0.35830  -0.35418  -0.35184  -0.35114  -0.34815
 Alpha  occ. eigenvalues --   -0.34601  -0.34431  -0.34295  -0.33924  -0.33564
 Alpha  occ. eigenvalues --   -0.33434  -0.33297  -0.33285  -0.32321  -0.32202
 Alpha  occ. eigenvalues --   -0.31837  -0.31763  -0.31582  -0.31344  -0.31005
 Alpha  occ. eigenvalues --   -0.30892  -0.30648  -0.30220  -0.29130  -0.28752
 Alpha  occ. eigenvalues --   -0.28709  -0.28299  -0.28152  -0.26840  -0.26278
 Alpha  occ. eigenvalues --   -0.25975  -0.24908  -0.24450  -0.23636  -0.20816
 Alpha  occ. eigenvalues --   -0.18899
 Alpha virt. eigenvalues --   -0.11233  -0.04644  -0.03749  -0.01917  -0.01317
 Alpha virt. eigenvalues --    0.00828   0.01141   0.01398   0.01754   0.03193
 Alpha virt. eigenvalues --    0.04456   0.04851   0.04861   0.05161   0.05809

 Mulliken charges:
               1
     1  Mg   0.960826
     2  C    0.048861
     3  C   -0.102513
     4  C   -0.047732
     5  C   -0.046462
     6  N   -0.418266
     7  C    0.018090
     8  C   -0.061857
     9  C   -0.117545
    10  C    0.102738
    11  C    0.008755
    12  C    0.044756
    13  C   -0.034739
    14  C    0.189876
    15  O   -0.289082
    16  O   -0.323931
    17  N   -0.471517
    18  C    0.185956
    19  C   -0.189358
    20  C   -0.107497
    21  C    0.155275
    22  C    0.059441
    23  C    0.062725
    24  O   -0.216741
    25  C   -0.039089
    26  N   -0.328704
    27  C    0.078672
    28  C   -0.145304
    29  C   -0.038533
    30  C   -0.006766
    31  C   -0.002245
    32  C   -0.053063
    33  C   -0.061392
    34  N   -0.467373
    35  C    0.102327
    36  C   -0.156289
    37  C   -0.006677
    38  C    0.121024
    39  C    0.077621
    40  C    0.067658
    41  O   -0.304314
    42  C   -0.120208
    43  C    0.293968
    44  O   -0.241119
    45  O   -0.388546
    46  C    0.123083
    47  C    0.247052
    48  C   -0.153387
    49  C   -0.232749
    50  C    0.026211
    51  C    0.048742
    52  C   -0.079339
    53  C   -0.031853
    54  C   -0.206798
    55  C    0.000008
    56  C   -0.018398
    57  C   -0.089398
    58  C    0.000125
    59  C   -0.189359
    60  C   -0.025855
    61  C    0.017216
    62  C   -0.057717
    63  C    0.012839
    64  C   -0.227115
    65  C   -0.027188
    66  C   -0.069189
    67  H   -0.001874
    68  H    0.023020
    69  H   -0.005072
    70  H    0.055508
    71  H    0.058738
    72  H    0.048858
    73  H    0.050496
    74  H    0.034206
    75  H    0.059253
    76  H    0.058855
    77  H    0.091007
    78  H    0.052497
    79  H    0.069666
    80  H    0.059820
    81  H    0.050876
    82  H    0.046875
    83  H    0.062590
    84  H    0.065705
    85  H    0.055352
    86  H    0.056570
    87  H    0.053711
    88  H    0.055092
    89  H    0.055766
    90  H    0.031574
    91  H    0.050339
    92  H    0.056537
    93  H    0.036909
    94  H    0.047374
    95  H    0.064401
    96  H    0.068204
    97  H    0.040898
    98  H    0.076669
    99  H    0.067560
   100  H    0.041253
   101  H    0.068846
   102  H    0.054758
   103  H    0.068269
   104  H    0.018475
   105  H    0.042890
   106  H    0.044175
   107  H    0.040428
   108  H    0.043861
   109  H    0.022134
   110  H    0.032678
   111  H    0.032356
   112  H    0.034406
   113  H    0.029098
   114  H    0.034157
   115  H    0.048353
   116  H    0.032089
   117  H    0.024322
   118  H    0.019492
   119  H    0.024094
   120  H    0.049251
   121  H    0.042222
   122  H    0.021079
   123  H    0.016614
   124  H    0.040447
   125  H    0.042673
   126  H    0.036984
   127  H    0.035713
   128  H    0.019528
   129  H    0.029851
   130  H    0.019264
   131  H    0.016348
   132  H    0.025932
   133  H    0.027224
   134  H    0.032527
   135  H    0.035864
   136  H    0.031059
   137  H    0.023154
   138  H    0.051880
   139  H    0.046822
   140  H    0.042812
 Sum of Mulliken charges =  -0.00000

 Dipole moment (field-independent basis, Debye):
    X=             -2.3861    Y=              6.0710    Z=              0.6744  Tot=              6.5578
 Quadrupole moment (field-independent basis, Debye-Ang):
   XX=           -357.8264   YY=           -412.4184   ZZ=           -410.4950
   XY=              8.8370   XZ=             23.6594   YZ=             -3.9965

 Normal termination of Gaussian 16 at Wed Apr 27 23:50:59 2022.
