 Gaussian 16, Revision A.03,
 Gaussian 16:  ES64L-G16RevA.03 25-Dec-2016

 --------------------------------
 #p wB97XD/Def2SVP td=(nstates=5)
 --------------------------------

 -----------------------------------------------------
 step_1351_chromophore_25 TDDFT with wB97XD functional
 -----------------------------------------------------
 Symbolic Z-matrix:
 Charge =  0 Multiplicity = 1

                         Standard orientation:
 ---------------------------------------------------------------------
 Center     Atomic      Atomic             Coordinates (Angstroms)
 Number     Number       Type             X           Y           Z
 ---------------------------------------------------------------------
      1         12           0        6.077831    0.337577    0.278485
      2          6           0        3.614405   -2.012390   -0.345164
      3          6           0        3.800222    2.839312   -0.492132
      4          6           0        8.651498    2.473437   -0.106423
      5          6           0        8.507558   -2.293886    0.452559
      6          7           0        3.965620    0.409144   -0.288857
      7          6           0        3.111788   -0.719804   -0.405530
      8          6           0        1.612570   -0.267239   -0.396710
      9          6           0        1.734588    1.307715   -0.693163
     10          6           0        3.242950    1.534918   -0.570333
     11          6           0        1.075815    1.948990   -1.927850
     12          6           0        0.797825   -0.730213    0.956547
     13          6           0       -0.313907   -1.792538    0.637790
     14          6           0       -1.725970   -1.490583    1.317690
     15          8           0       -1.791196   -1.100281    2.477226
     16          8           0       -2.831605   -1.731948    0.605080
     17          7           0        6.171114    2.426339   -0.143012
     18          6           0        5.112801    3.267983   -0.286529
     19          6           0        5.610248    4.642840   -0.404363
     20          6           0        7.050920    4.565728   -0.365797
     21          6           0        7.355998    3.099382   -0.151040
     22          6           0        4.797724    5.883483   -0.751018
     23          6           0        8.107619    5.680174   -0.484894
     24          8           0        9.281334    5.462191   -0.631257
     25          6           0        7.701357    7.138155   -0.620962
     26          7           0        8.343782    0.071882    0.108928
     27          6           0        9.057509    1.157229    0.142424
     28          6           0       10.520301    0.893398    0.338450
     29          6           0       10.598321   -0.694985    0.502485
     30          6           0        9.102337   -1.050983    0.353718
     31          6           0       11.524833    1.451424   -0.779219
     32          6           0       11.123612   -1.299273    1.875937
     33          6           0       11.992978   -0.433769    2.802482
     34          7           0        6.109154   -1.717014    0.227589
     35          6           0        7.094941   -2.661743    0.415144
     36          6           0        6.609627   -3.990688    0.457335
     37          6           0        5.196975   -3.742568    0.241916
     38          6           0        4.971632   -2.341473    0.044697
     39          6           0        7.351991   -5.257114    0.602480
     40          6           0        3.973004   -4.379464    0.040862
     41          8           0        3.723853   -5.639181    0.102430
     42          6           0        2.848495   -3.333992   -0.223803
     43          6           0        2.168408   -3.811867   -1.419529
     44          8           0        2.682293   -3.790569   -2.524627
     45          8           0        0.924050   -4.279399   -1.012420
     46          6           0       -0.016171   -4.784715   -2.021903
     47          6           0       -4.036789   -1.284204    1.257634
     48          6           0       -5.159650   -1.320675    0.285306
     49          6           0       -6.345020   -0.692406    0.295114
     50          6           0       -6.608752    0.502566    1.189093
     51          6           0       -7.486378   -1.121912   -0.513014
     52          6           0       -7.892869   -0.074255   -1.607073
     53          6           0       -9.371598    0.502103   -1.511753
     54          6           0      -10.239051   -0.017003   -2.724853
     55          6           0      -10.318374    0.984536   -3.876046
     56          6           0      -11.669841   -0.529881   -2.388721
     57          6           0      -12.411380    0.178866   -1.177815
     58          6           0      -13.900948    0.395818   -1.414270
     59          6           0      -14.803956    0.287827   -0.180308
     60          6           0      -16.249949   -0.248738   -0.597145
     61          6           0      -14.945227    1.691340    0.562689
     62          6           0      -14.430506    1.636921    1.995820
     63          6           0      -12.989841    2.148248    2.130352
     64          6           0      -12.079359    1.235250    3.040063
     65          6           0      -11.940685    1.673756    4.468638
     66          6           0      -10.660543    0.880311    2.360114
     67          1           0        3.043164    3.625594   -0.534379
     68          1           0        9.496858    3.161764   -0.175047
     69          1           0        9.190703   -3.107959    0.706409
     70          1           0        1.262154   -0.772421   -1.296452
     71          1           0        1.387075    1.827780    0.199485
     72          1           0        0.155393    1.434160   -2.201175
     73          1           0        1.751670    2.066153   -2.775576
     74          1           0        0.721886    2.977536   -1.859328
     75          1           0        0.332980    0.114403    1.464985
     76          1           0        1.525581   -1.105619    1.675941
     77          1           0       -0.115548   -2.813456    0.962598
     78          1           0       -0.468964   -1.899833   -0.436164
     79          1           0        5.134160    6.003411   -1.780984
     80          1           0        5.184154    6.670736   -0.103363
     81          1           0        3.709913    5.839472   -0.793163
     82          1           0        8.569087    7.797698   -0.624004
     83          1           0        7.057219    7.519171    0.171004
     84          1           0        7.318525    7.265582   -1.634040
     85          1           0       10.801598    1.395842    1.263372
     86          1           0       11.024987   -1.208159   -0.359351
     87          1           0       11.891591    2.422154   -0.446673
     88          1           0       10.896839    1.674479   -1.640691
     89          1           0       12.329609    0.737295   -0.957512
     90          1           0       11.752809   -2.100328    1.489625
     91          1           0       10.392236   -1.847309    2.470437
     92          1           0       11.372403    0.328050    3.274117
     93          1           0       12.807139    0.050803    2.265061
     94          1           0       12.508369   -1.104576    3.490094
     95          1           0        7.652304   -5.481234   -0.420838
     96          1           0        6.700885   -6.041967    0.987486
     97          1           0        8.250535   -5.232151    1.219799
     98          1           0        2.150119   -3.495335    0.597408
     99          1           0        0.481533   -5.048360   -2.955018
    100          1           0       -0.657869   -3.938321   -2.266449
    101          1           0       -0.670462   -5.592887   -1.697659
    102          1           0       -3.933418   -0.282332    1.673269
    103          1           0       -4.404335   -1.957324    2.032607
    104          1           0       -5.081279   -2.158935   -0.407065
    105          1           0       -7.590769    0.356652    1.637158
    106          1           0       -6.686325    1.357638    0.517965
    107          1           0       -5.857229    0.730724    1.945742
    108          1           0       -8.385540   -1.337123    0.063453
    109          1           0       -7.117184   -2.032828   -0.983160
    110          1           0       -7.617477   -0.489806   -2.577078
    111          1           0       -7.244970    0.802476   -1.597565
    112          1           0       -9.369945    1.584357   -1.383753
    113          1           0       -9.704419    0.106903   -0.551870
    114          1           0       -9.715368   -0.923457   -3.029932
    115          1           0      -11.281449    1.443805   -4.096728
    116          1           0       -9.980033    0.427501   -4.749877
    117          1           0       -9.534109    1.729812   -3.740061
    118          1           0      -11.588283   -1.589806   -2.149499
    119          1           0      -12.189729   -0.513361   -3.346867
    120          1           0      -11.920669    1.140178   -1.026931
    121          1           0      -12.256651   -0.447441   -0.299409
    122          1           0      -14.282793   -0.138348   -2.283976
    123          1           0      -13.773635    1.362239   -1.901784
    124          1           0      -14.314277   -0.416460    0.492338
    125          1           0      -16.214051   -1.338313   -0.570557
    126          1           0      -16.497325    0.074627   -1.608076
    127          1           0      -17.066036    0.133020    0.016904
    128          1           0      -15.999141    1.967458    0.560469
    129          1           0      -14.398572    2.476839    0.040239
    130          1           0      -14.556883    0.645226    2.430891
    131          1           0      -15.088161    2.127107    2.713386
    132          1           0      -13.036821    3.108388    2.642873
    133          1           0      -12.513396    2.357771    1.171578
    134          1           0      -12.622588    0.320017    3.275960
    135          1           0      -11.942372    0.794036    5.112649
    136          1           0      -12.655208    2.397609    4.858999
    137          1           0      -10.988766    2.194038    4.573891
    138          1           0      -10.847655    0.116581    1.605791
    139          1           0       -9.915225    0.521739    3.071879
    140          1           0      -10.284551    1.736645    1.800483
 ---------------------------------------------------------------------

 SCF Done:  E(RwB97XD) =  -3007.85196064     A.U. after   19 cycles

 Excitation energies and oscillator strengths:

 Excited State   1:      Singlet-A      1.7782 eV  697.24 nm  f=0.3637  <S**2>=0.000
     245 -> 248        0.15783
     246 -> 247        0.68671
     245 <- 248        0.10163
 This state for optimization and/or second-order correction.
 Total Energy, E(TD-HF/TD-DFT) =  -3007.78661205
 Copying the excited state density for this state as the 1-particle RhoCI density.

 Excited State   2:      Singlet-A      2.2164 eV  559.39 nm  f=0.1785  <S**2>=0.000
     245 -> 247        0.65161
     246 -> 248       -0.24303

 Excited State   3:      Singlet-A      3.3505 eV  370.04 nm  f=0.0027  <S**2>=0.000
     243 -> 247        0.13868
     243 -> 249       -0.12317
     243 -> 250       -0.10278
     243 -> 251        0.15016
     244 -> 247        0.55205
     244 -> 249       -0.21184
     244 -> 250       -0.13373
     244 -> 251        0.17672

 Excited State   4:      Singlet-A      3.4688 eV  357.42 nm  f=0.0166  <S**2>=0.000
     240 -> 247        0.24903
     241 -> 247        0.47296
     243 -> 247        0.36270
     246 -> 248        0.16505

 Excited State   5:      Singlet-A      3.5318 eV  351.05 nm  f=0.0024  <S**2>=0.000
     240 -> 247       -0.28457
     241 -> 247       -0.24262
     243 -> 247        0.47392
     243 -> 249       -0.10956
     244 -> 247       -0.24673
     246 -> 248       -0.18297

 The electronic state is 1-A.
 Alpha  occ. eigenvalues --  -46.96264 -19.31187 -19.29931 -19.25052 -19.24013
 Alpha  occ. eigenvalues --  -19.24012 -19.20617 -14.47119 -14.45829 -14.44902
 Alpha  occ. eigenvalues --  -14.43252 -10.43137 -10.42298 -10.40315 -10.36480
 Alpha  occ. eigenvalues --  -10.36226 -10.36131 -10.35888 -10.35624 -10.35058
 Alpha  occ. eigenvalues --  -10.34997 -10.34910 -10.34661 -10.33644 -10.33470
 Alpha  occ. eigenvalues --  -10.33437 -10.33147 -10.32382 -10.32295 -10.32257
 Alpha  occ. eigenvalues --  -10.32128 -10.32083 -10.32022 -10.32012 -10.31718
 Alpha  occ. eigenvalues --  -10.31341 -10.30902 -10.30865 -10.30680 -10.30667
 Alpha  occ. eigenvalues --  -10.30655 -10.30478 -10.30390 -10.30325 -10.30188
 Alpha  occ. eigenvalues --  -10.30042 -10.29793 -10.29723 -10.29679 -10.29567
 Alpha  occ. eigenvalues --  -10.29534 -10.29502 -10.29434 -10.29171 -10.29095
 Alpha  occ. eigenvalues --  -10.28983 -10.28920 -10.28803 -10.28770 -10.28643
 Alpha  occ. eigenvalues --  -10.28612 -10.28356 -10.28338 -10.28163 -10.27876
 Alpha  occ. eigenvalues --  -10.27302  -3.22080  -1.95651  -1.95222  -1.95014
 Alpha  occ. eigenvalues --   -1.20349  -1.16962  -1.14560  -1.09766  -1.09724
 Alpha  occ. eigenvalues --   -1.06687  -1.06315  -1.05806  -1.05002  -1.04120
 Alpha  occ. eigenvalues --   -0.93446  -0.92872  -0.91276  -0.90804  -0.90239
 Alpha  occ. eigenvalues --   -0.90024  -0.89746  -0.89572  -0.89159  -0.88803
 Alpha  occ. eigenvalues --   -0.87905  -0.87282  -0.86182  -0.85142  -0.84977
 Alpha  occ. eigenvalues --   -0.84511  -0.83967  -0.83172  -0.82677  -0.82283
 Alpha  occ. eigenvalues --   -0.81675  -0.80678  -0.79773  -0.79154  -0.78244
 Alpha  occ. eigenvalues --   -0.77921  -0.77386  -0.77158  -0.76522  -0.76020
 Alpha  occ. eigenvalues --   -0.75455  -0.74786  -0.73823  -0.72606  -0.71685
 Alpha  occ. eigenvalues --   -0.70581  -0.70388  -0.69293  -0.68954  -0.68027
 Alpha  occ. eigenvalues --   -0.67584  -0.66865  -0.66545  -0.66257  -0.65924
 Alpha  occ. eigenvalues --   -0.65867  -0.64924  -0.63765  -0.63700  -0.62462
 Alpha  occ. eigenvalues --   -0.61752  -0.60823  -0.60774  -0.60032  -0.59231
 Alpha  occ. eigenvalues --   -0.59077  -0.58690  -0.58490  -0.58140  -0.57187
 Alpha  occ. eigenvalues --   -0.56878  -0.56667  -0.56174  -0.56000  -0.55959
 Alpha  occ. eigenvalues --   -0.55835  -0.55527  -0.55386  -0.55078  -0.54864
 Alpha  occ. eigenvalues --   -0.54631  -0.54061  -0.53695  -0.53423  -0.53321
 Alpha  occ. eigenvalues --   -0.53063  -0.53059  -0.52843  -0.52548  -0.52353
 Alpha  occ. eigenvalues --   -0.52252  -0.51975  -0.51948  -0.51603  -0.51530
 Alpha  occ. eigenvalues --   -0.51245  -0.51198  -0.51113  -0.50871  -0.50415
 Alpha  occ. eigenvalues --   -0.50282  -0.50131  -0.49987  -0.49820  -0.49596
 Alpha  occ. eigenvalues --   -0.49207  -0.49176  -0.48955  -0.48620  -0.48467
 Alpha  occ. eigenvalues --   -0.48241  -0.47923  -0.47812  -0.47616  -0.47584
 Alpha  occ. eigenvalues --   -0.47443  -0.47318  -0.47038  -0.46807  -0.46724
 Alpha  occ. eigenvalues --   -0.46584  -0.46334  -0.46267  -0.46102  -0.45935
 Alpha  occ. eigenvalues --   -0.45847  -0.45717  -0.45463  -0.45208  -0.45086
 Alpha  occ. eigenvalues --   -0.44978  -0.44439  -0.44388  -0.44216  -0.43772
 Alpha  occ. eigenvalues --   -0.43716  -0.43348  -0.43290  -0.43245  -0.43002
 Alpha  occ. eigenvalues --   -0.42864  -0.42528  -0.42247  -0.42114  -0.41777
 Alpha  occ. eigenvalues --   -0.41543  -0.41466  -0.41159  -0.40926  -0.40576
 Alpha  occ. eigenvalues --   -0.40453  -0.40348  -0.40148  -0.39310  -0.39133
 Alpha  occ. eigenvalues --   -0.38867  -0.38771  -0.38580  -0.38315  -0.37927
 Alpha  occ. eigenvalues --   -0.37920  -0.37608  -0.37167  -0.35832  -0.35640
 Alpha  occ. eigenvalues --   -0.35625  -0.35338  -0.34789  -0.33936  -0.33627
 Alpha  occ. eigenvalues --   -0.32828  -0.31596  -0.30488  -0.30129  -0.25931
 Alpha  occ. eigenvalues --   -0.23258
 Alpha virt. eigenvalues --   -0.07028   0.00922   0.02382   0.04486   0.04804
 Alpha virt. eigenvalues --    0.07622   0.08064   0.08134   0.08568   0.09636
 Alpha virt. eigenvalues --    0.10877   0.11501   0.11583   0.11876   0.12448

 Mulliken charges:
               1
     1  Mg   0.955263
     2  C    0.038167
     3  C   -0.126688
     4  C   -0.066875
     5  C   -0.058899
     6  N   -0.390842
     7  C   -0.009252
     8  C   -0.039429
     9  C   -0.091981
    10  C    0.095750
    11  C    0.017632
    12  C    0.055576
    13  C   -0.016468
    14  C    0.182681
    15  O   -0.288587
    16  O   -0.322684
    17  N   -0.442215
    18  C    0.188276
    19  C   -0.176598
    20  C   -0.099759
    21  C    0.150601
    22  C    0.074775
    23  C    0.061179
    24  O   -0.208495
    25  C   -0.029441
    26  N   -0.292251
    27  C    0.068557
    28  C   -0.123628
    29  C   -0.016125
    30  C   -0.024453
    31  C    0.010888
    32  C   -0.039171
    33  C   -0.043672
    34  N   -0.425836
    35  C    0.087711
    36  C   -0.156635
    37  C   -0.003619
    38  C    0.101147
    39  C    0.087655
    40  C    0.047806
    41  O   -0.301458
    42  C   -0.069642
    43  C    0.264231
    44  O   -0.235844
    45  O   -0.386068
    46  C    0.138950
    47  C    0.263162
    48  C   -0.162545
    49  C   -0.216460
    50  C    0.042572
    51  C    0.070255
    52  C   -0.067423
    53  C   -0.002922
    54  C   -0.177520
    55  C    0.010444
    56  C   -0.005104
    57  C   -0.061904
    58  C    0.012983
    59  C   -0.159081
    60  C   -0.011794
    61  C    0.031893
    62  C   -0.039761
    63  C    0.026693
    64  C   -0.195367
    65  C   -0.017787
    66  C   -0.046410
    67  H   -0.010312
    68  H    0.015825
    69  H   -0.012924
    70  H    0.042210
    71  H    0.048335
    72  H    0.045483
    73  H    0.045414
    74  H    0.029172
    75  H    0.051804
    76  H    0.052477
    77  H    0.084758
    78  H    0.042139
    79  H    0.064757
    80  H    0.054396
    81  H    0.051177
    82  H    0.047417
    83  H    0.059433
    84  H    0.061616
    85  H    0.042295
    86  H    0.047498
    87  H    0.048273
    88  H    0.047867
    89  H    0.052286
    90  H    0.023232
    91  H    0.042847
    92  H    0.048923
    93  H    0.028722
    94  H    0.042362
    95  H    0.056794
    96  H    0.063631
    97  H    0.033501
    98  H    0.065118
    99  H    0.063859
   100  H    0.035627
   101  H    0.065308
   102  H    0.047069
   103  H    0.063179
   104  H    0.014765
   105  H    0.032088
   106  H    0.036690
   107  H    0.035978
   108  H    0.035721
   109  H    0.014899
   110  H    0.025043
   111  H    0.022537
   112  H    0.027182
   113  H    0.000941
   114  H    0.021471
   115  H    0.042883
   116  H    0.026454
   117  H    0.017663
   118  H    0.012578
   119  H    0.014513
   120  H    0.033814
   121  H    0.028154
   122  H    0.012339
   123  H    0.006330
   124  H    0.026200
   125  H    0.037263
   126  H    0.030281
   127  H    0.029759
   128  H    0.011960
   129  H    0.019728
   130  H    0.008334
   131  H    0.009976
   132  H    0.017695
   133  H    0.014279
   134  H    0.019367
   135  H    0.030994
   136  H    0.025523
   137  H    0.016142
   138  H    0.038107
   139  H    0.041721
   140  H    0.034906
 Sum of Mulliken charges =  -0.00000

 Dipole moment (field-independent basis, Debye):
    X=             -2.4036    Y=              7.6398    Z=              0.5352  Tot=              8.0268
 Quadrupole moment (field-independent basis, Debye-Ang):
   XX=           -358.2270   YY=           -410.1825   ZZ=           -410.1872
   XY=             18.7252   XZ=             22.8366   YZ=             -4.1340

 Normal termination of Gaussian 16 at Thu Apr 28 00:32:30 2022.
