 Gaussian 16, Revision A.03,
 Gaussian 16:  ES64L-G16RevA.03 25-Dec-2016

 --------------------
 #p ZINDO=(nstates=5)
 --------------------

 ------------------------------
 step_1351_chromophore_25 ZINDO
 ------------------------------
 Symbolic Z-matrix:
 Charge =  0 Multiplicity = 1

                         Standard orientation:
 ---------------------------------------------------------------------
 Center     Atomic      Atomic             Coordinates (Angstroms)
 Number     Number       Type             X           Y           Z
 ---------------------------------------------------------------------
      1         12           0        6.077831    0.337577    0.278485
      2          6           0        3.614405   -2.012390   -0.345164
      3          6           0        3.800222    2.839312   -0.492132
      4          6           0        8.651498    2.473437   -0.106423
      5          6           0        8.507558   -2.293886    0.452559
      6          7           0        3.965620    0.409144   -0.288857
      7          6           0        3.111788   -0.719804   -0.405530
      8          6           0        1.612570   -0.267239   -0.396710
      9          6           0        1.734588    1.307715   -0.693163
     10          6           0        3.242950    1.534918   -0.570333
     11          6           0        1.075815    1.948990   -1.927850
     12          6           0        0.797825   -0.730213    0.956547
     13          6           0       -0.313907   -1.792538    0.637790
     14          6           0       -1.725970   -1.490583    1.317690
     15          8           0       -1.791196   -1.100281    2.477226
     16          8           0       -2.831605   -1.731948    0.605080
     17          7           0        6.171114    2.426339   -0.143012
     18          6           0        5.112801    3.267983   -0.286529
     19          6           0        5.610248    4.642840   -0.404363
     20          6           0        7.050920    4.565728   -0.365797
     21          6           0        7.355998    3.099382   -0.151040
     22          6           0        4.797724    5.883483   -0.751018
     23          6           0        8.107619    5.680174   -0.484894
     24          8           0        9.281334    5.462191   -0.631257
     25          6           0        7.701357    7.138155   -0.620962
     26          7           0        8.343782    0.071882    0.108928
     27          6           0        9.057509    1.157229    0.142424
     28          6           0       10.520301    0.893398    0.338450
     29          6           0       10.598321   -0.694985    0.502485
     30          6           0        9.102337   -1.050983    0.353718
     31          6           0       11.524833    1.451424   -0.779219
     32          6           0       11.123612   -1.299273    1.875937
     33          6           0       11.992978   -0.433769    2.802482
     34          7           0        6.109154   -1.717014    0.227589
     35          6           0        7.094941   -2.661743    0.415144
     36          6           0        6.609627   -3.990688    0.457335
     37          6           0        5.196975   -3.742568    0.241916
     38          6           0        4.971632   -2.341473    0.044697
     39          6           0        7.351991   -5.257114    0.602480
     40          6           0        3.973004   -4.379464    0.040862
     41          8           0        3.723853   -5.639181    0.102430
     42          6           0        2.848495   -3.333992   -0.223803
     43          6           0        2.168408   -3.811867   -1.419529
     44          8           0        2.682293   -3.790569   -2.524627
     45          8           0        0.924050   -4.279399   -1.012420
     46          6           0       -0.016171   -4.784715   -2.021903
     47          6           0       -4.036789   -1.284204    1.257634
     48          6           0       -5.159650   -1.320675    0.285306
     49          6           0       -6.345020   -0.692406    0.295114
     50          6           0       -6.608752    0.502566    1.189093
     51          6           0       -7.486378   -1.121912   -0.513014
     52          6           0       -7.892869   -0.074255   -1.607073
     53          6           0       -9.371598    0.502103   -1.511753
     54          6           0      -10.239051   -0.017003   -2.724853
     55          6           0      -10.318374    0.984536   -3.876046
     56          6           0      -11.669841   -0.529881   -2.388721
     57          6           0      -12.411380    0.178866   -1.177815
     58          6           0      -13.900948    0.395818   -1.414270
     59          6           0      -14.803956    0.287827   -0.180308
     60          6           0      -16.249949   -0.248738   -0.597145
     61          6           0      -14.945227    1.691340    0.562689
     62          6           0      -14.430506    1.636921    1.995820
     63          6           0      -12.989841    2.148248    2.130352
     64          6           0      -12.079359    1.235250    3.040063
     65          6           0      -11.940685    1.673756    4.468638
     66          6           0      -10.660543    0.880311    2.360114
     67          1           0        3.043164    3.625594   -0.534379
     68          1           0        9.496858    3.161764   -0.175047
     69          1           0        9.190703   -3.107959    0.706409
     70          1           0        1.262154   -0.772421   -1.296452
     71          1           0        1.387075    1.827780    0.199485
     72          1           0        0.155393    1.434160   -2.201175
     73          1           0        1.751670    2.066153   -2.775576
     74          1           0        0.721886    2.977536   -1.859328
     75          1           0        0.332980    0.114403    1.464985
     76          1           0        1.525581   -1.105619    1.675941
     77          1           0       -0.115548   -2.813456    0.962598
     78          1           0       -0.468964   -1.899833   -0.436164
     79          1           0        5.134160    6.003411   -1.780984
     80          1           0        5.184154    6.670736   -0.103363
     81          1           0        3.709913    5.839472   -0.793163
     82          1           0        8.569087    7.797698   -0.624004
     83          1           0        7.057219    7.519171    0.171004
     84          1           0        7.318525    7.265582   -1.634040
     85          1           0       10.801598    1.395842    1.263372
     86          1           0       11.024987   -1.208159   -0.359351
     87          1           0       11.891591    2.422154   -0.446673
     88          1           0       10.896839    1.674479   -1.640691
     89          1           0       12.329609    0.737295   -0.957512
     90          1           0       11.752809   -2.100328    1.489625
     91          1           0       10.392236   -1.847309    2.470437
     92          1           0       11.372403    0.328050    3.274117
     93          1           0       12.807139    0.050803    2.265061
     94          1           0       12.508369   -1.104576    3.490094
     95          1           0        7.652304   -5.481234   -0.420838
     96          1           0        6.700885   -6.041967    0.987486
     97          1           0        8.250535   -5.232151    1.219799
     98          1           0        2.150119   -3.495335    0.597408
     99          1           0        0.481533   -5.048360   -2.955018
    100          1           0       -0.657869   -3.938321   -2.266449
    101          1           0       -0.670462   -5.592887   -1.697659
    102          1           0       -3.933418   -0.282332    1.673269
    103          1           0       -4.404335   -1.957324    2.032607
    104          1           0       -5.081279   -2.158935   -0.407065
    105          1           0       -7.590769    0.356652    1.637158
    106          1           0       -6.686325    1.357638    0.517965
    107          1           0       -5.857229    0.730724    1.945742
    108          1           0       -8.385540   -1.337123    0.063453
    109          1           0       -7.117184   -2.032828   -0.983160
    110          1           0       -7.617477   -0.489806   -2.577078
    111          1           0       -7.244970    0.802476   -1.597565
    112          1           0       -9.369945    1.584357   -1.383753
    113          1           0       -9.704419    0.106903   -0.551870
    114          1           0       -9.715368   -0.923457   -3.029932
    115          1           0      -11.281449    1.443805   -4.096728
    116          1           0       -9.980033    0.427501   -4.749877
    117          1           0       -9.534109    1.729812   -3.740061
    118          1           0      -11.588283   -1.589806   -2.149499
    119          1           0      -12.189729   -0.513361   -3.346867
    120          1           0      -11.920669    1.140178   -1.026931
    121          1           0      -12.256651   -0.447441   -0.299409
    122          1           0      -14.282793   -0.138348   -2.283976
    123          1           0      -13.773635    1.362239   -1.901784
    124          1           0      -14.314277   -0.416460    0.492338
    125          1           0      -16.214051   -1.338313   -0.570557
    126          1           0      -16.497325    0.074627   -1.608076
    127          1           0      -17.066036    0.133020    0.016904
    128          1           0      -15.999141    1.967458    0.560469
    129          1           0      -14.398572    2.476839    0.040239
    130          1           0      -14.556883    0.645226    2.430891
    131          1           0      -15.088161    2.127107    2.713386
    132          1           0      -13.036821    3.108388    2.642873
    133          1           0      -12.513396    2.357771    1.171578
    134          1           0      -12.622588    0.320017    3.275960
    135          1           0      -11.942372    0.794036    5.112649
    136          1           0      -12.655208    2.397609    4.858999
    137          1           0      -10.988766    2.194038    4.573891
    138          1           0      -10.847655    0.116581    1.605791
    139          1           0       -9.915225    0.521739    3.071879
    140          1           0      -10.284551    1.736645    1.800483
 ---------------------------------------------------------------------

 SCF Done:  E(RZINDO/S) =  -474.044405520     A.U. after   19 cycles

 Excitation energies and oscillator strengths:

 Excited State   1:      Singlet-A      1.3782 eV  899.60 nm  f=0.4884  <S**2>=0.000
     175 ->178         0.13016
     176 ->177         0.67800
 This state for optimization and/or second-order correction.
 Total Energy, E(CIS/TDA) =  -473.993756997
 Copying the excited state density for this state as the 1-particle RhoCI density.

 Excited State   2:      Singlet-A      2.0010 eV  619.62 nm  f=0.1037  <S**2>=0.000
     175 ->177         0.56727
     176 ->178        -0.36586

 Excited State   3:      Singlet-A      2.9385 eV  421.93 nm  f=0.0082  <S**2>=0.000
     167 ->177         0.28745
     167 ->179        -0.40427
     167 ->181         0.15029
     167 ->183        -0.10708
     167 ->184        -0.14634
     167 ->185        -0.13944
     168 ->177         0.17718
     168 ->179        -0.22863

 Excited State   4:      Singlet-A      2.9560 eV  419.44 nm  f=0.2365  <S**2>=0.000
     172 ->177        -0.22267
     172 ->178         0.14753
     172 ->179        -0.14414
     172 ->180         0.10380
     172 ->181        -0.29646
     172 ->185        -0.11314
     172 ->206         0.11020
     175 ->177         0.19010
     176 ->178         0.30309
     176 ->180         0.11014
     176 ->181        -0.17883

 Excited State   5:      Singlet-A      3.0026 eV  412.92 nm  f=0.4986  <S**2>=0.000
     172 ->177         0.15854
     172 ->178        -0.10662
     172 ->179         0.11662
     172 ->181         0.23754
     175 ->177         0.25607
     176 ->178         0.41860
     176 ->180         0.11697
     176 ->181        -0.11588

 The electronic state is 1-A.
 Alpha  occ. eigenvalues --   -1.83286  -1.80503  -1.78683  -1.75631  -1.70812
 Alpha  occ. eigenvalues --   -1.69597  -1.64431  -1.61616  -1.60259  -1.55498
 Alpha  occ. eigenvalues --   -1.55017  -1.50843  -1.48159  -1.45894  -1.45440
 Alpha  occ. eigenvalues --   -1.43098  -1.41143  -1.40247  -1.38714  -1.38166
 Alpha  occ. eigenvalues --   -1.35627  -1.32848  -1.32624  -1.31684  -1.28229
 Alpha  occ. eigenvalues --   -1.27485  -1.24157  -1.21850  -1.20569  -1.18421
 Alpha  occ. eigenvalues --   -1.17663  -1.17257  -1.15251  -1.14682  -1.13137
 Alpha  occ. eigenvalues --   -1.13040  -1.10997  -1.10913  -1.05221  -1.03503
 Alpha  occ. eigenvalues --   -1.02603  -1.01445  -0.99061  -0.98877  -0.97946
 Alpha  occ. eigenvalues --   -0.96754  -0.94832  -0.94537  -0.93287  -0.91967
 Alpha  occ. eigenvalues --   -0.90663  -0.89619  -0.88130  -0.87645  -0.85627
 Alpha  occ. eigenvalues --   -0.85377  -0.85103  -0.83672  -0.81272  -0.80332
 Alpha  occ. eigenvalues --   -0.79580  -0.78172  -0.76981  -0.76817  -0.76403
 Alpha  occ. eigenvalues --   -0.75543  -0.75126  -0.74223  -0.73682  -0.73024
 Alpha  occ. eigenvalues --   -0.72966  -0.72677  -0.71779  -0.71243  -0.70852
 Alpha  occ. eigenvalues --   -0.69953  -0.69568  -0.68427  -0.68128  -0.67926
 Alpha  occ. eigenvalues --   -0.67697  -0.66927  -0.66765  -0.66073  -0.65457
 Alpha  occ. eigenvalues --   -0.64815  -0.64557  -0.64362  -0.63651  -0.63417
 Alpha  occ. eigenvalues --   -0.63246  -0.62990  -0.62627  -0.62102  -0.61953
 Alpha  occ. eigenvalues --   -0.61695  -0.61387  -0.61005  -0.60731  -0.60241
 Alpha  occ. eigenvalues --   -0.59776  -0.59562  -0.58936  -0.58747  -0.57998
 Alpha  occ. eigenvalues --   -0.57948  -0.57331  -0.57185  -0.56999  -0.56694
 Alpha  occ. eigenvalues --   -0.56374  -0.55774  -0.55681  -0.55299  -0.55117
 Alpha  occ. eigenvalues --   -0.54883  -0.54605  -0.53891  -0.53862  -0.53590
 Alpha  occ. eigenvalues --   -0.52619  -0.52307  -0.52147  -0.51940  -0.51564
 Alpha  occ. eigenvalues --   -0.51196  -0.50885  -0.50838  -0.50605  -0.50299
 Alpha  occ. eigenvalues --   -0.50070  -0.49867  -0.49338  -0.49033  -0.48784
 Alpha  occ. eigenvalues --   -0.48490  -0.48403  -0.48189  -0.48111  -0.47638
 Alpha  occ. eigenvalues --   -0.47546  -0.47310  -0.47212  -0.47166  -0.46850
 Alpha  occ. eigenvalues --   -0.46741  -0.46701  -0.46324  -0.45996  -0.45273
 Alpha  occ. eigenvalues --   -0.45202  -0.44482  -0.44402  -0.43964  -0.43648
 Alpha  occ. eigenvalues --   -0.43484  -0.43070  -0.42453  -0.42322  -0.41995
 Alpha  occ. eigenvalues --   -0.41624  -0.41387  -0.40245  -0.38767  -0.38331
 Alpha  occ. eigenvalues --   -0.37255  -0.36842  -0.36154  -0.34543  -0.34268
 Alpha  occ. eigenvalues --   -0.32612  -0.32199  -0.31659  -0.30362  -0.27005
 Alpha  occ. eigenvalues --   -0.22278
 Alpha virt. eigenvalues --   -0.08503  -0.01769  -0.00820   0.00963   0.01303
 Alpha virt. eigenvalues --    0.02236   0.02951   0.03541   0.04659   0.05067
 Alpha virt. eigenvalues --    0.05232   0.06017   0.06877   0.07168   0.07620

 Mulliken charges:
               1
     1  Mg   0.439567
     2  C   -0.029779
     3  C   -0.101977
     4  C   -0.082915
     5  C   -0.058487
     6  N   -0.300242
     7  C    0.084946
     8  C   -0.006132
     9  C    0.014342
    10  C    0.193503
    11  C   -0.046373
    12  C   -0.015254
    13  C    0.004621
    14  C    0.455711
    15  O   -0.535466
    16  O   -0.247197
    17  N   -0.329718
    18  C    0.163287
    19  C    0.033096
    20  C   -0.045508
    21  C    0.149810
    22  C   -0.044434
    23  C    0.334067
    24  O   -0.496921
    25  C   -0.030273
    26  N   -0.262955
    27  C    0.199929
    28  C   -0.001679
    29  C   -0.003580
    30  C    0.063927
    31  C   -0.054662
    32  C   -0.032354
    33  C   -0.054288
    34  N   -0.295452
    35  C    0.044213
    36  C    0.016580
    37  C   -0.080564
    38  C    0.110809
    39  C   -0.028917
    40  C    0.316243
    41  O   -0.596352
    42  C    0.052298
    43  C    0.500884
    44  O   -0.521850
    45  O   -0.276470
    46  C    0.071626
    47  C    0.116275
    48  C   -0.099270
    49  C   -0.003630
    50  C   -0.050277
    51  C   -0.014014
    52  C   -0.042396
    53  C   -0.039082
    54  C   -0.010969
    55  C   -0.054744
    56  C   -0.042354
    57  C   -0.033408
    58  C   -0.040432
    59  C   -0.010134
    60  C   -0.061272
    61  C   -0.032630
    62  C   -0.034022
    63  C   -0.030051
    64  C   -0.021039
    65  C   -0.051623
    66  C   -0.060573
    67  H    0.016541
    68  H    0.041519
    69  H    0.020015
    70  H    0.036720
    71  H    0.034093
    72  H    0.022926
    73  H    0.026386
    74  H    0.018716
    75  H    0.036242
    76  H    0.035524
    77  H    0.055315
    78  H    0.033764
    79  H    0.035997
    80  H    0.037799
    81  H    0.036411
    82  H    0.032407
    83  H    0.034013
    84  H    0.041598
    85  H    0.033918
    86  H    0.041614
    87  H    0.024407
    88  H    0.028199
    89  H    0.032415
    90  H    0.007873
    91  H    0.032747
    92  H    0.024755
    93  H    0.016144
    94  H    0.020141
    95  H    0.035562
    96  H    0.034841
    97  H    0.022045
    98  H    0.056542
    99  H    0.050973
   100  H    0.022419
   101  H    0.044858
   102  H    0.050942
   103  H    0.056326
   104  H    0.018692
   105  H    0.023708
   106  H    0.025848
   107  H    0.025434
   108  H    0.033721
   109  H    0.018365
   110  H    0.020024
   111  H    0.012076
   112  H    0.024539
   113  H    0.017071
   114  H    0.018288
   115  H    0.030737
   116  H    0.012412
   117  H    0.013172
   118  H    0.009187
   119  H    0.019920
   120  H    0.021453
   121  H    0.018838
   122  H    0.018108
   123  H    0.014082
   124  H    0.029132
   125  H    0.018319
   126  H    0.019144
   127  H    0.021195
   128  H    0.016921
   129  H    0.021568
   130  H    0.016155
   131  H    0.012944
   132  H    0.014677
   133  H    0.024311
   134  H    0.018263
   135  H    0.016733
   136  H    0.018347
   137  H    0.008447
   138  H    0.015581
   139  H    0.025119
   140  H    0.020743
 Sum of Mulliken charges =  -0.00000

 Dipole moment (field-independent basis, Debye):
    X=             -3.6899    Y=             13.4649    Z=              0.6370  Tot=             13.9758
 N-N= 4.222232289535D+03 E-N= 0.000000000000D+00  KE=-9.118634257594D+03
 Leave Link  601 at Thu Apr 28 00:51:32 2022, MaxMem=  6710886400 cpu:               1.2 elap:               0.1
 (Enter /sw/apps/gaussian-16.0/g16/l9999.exe)
 1\1\GINC-BP1-COMPUTE174\SP\RZINDO CIS\STO-3G\C55H74Mg1N4O6\OF15641\28-
 Apr-2022\0\\#p ZINDO=(nstates=5)\\step_1351_chromophore_25 ZINDO\\0,1\
 Mg,0,-2.399,34.559,26.391\C,0,-3.664,33.264,29.341\C,0,-0.871,37.078,2
 8.224\C,0,-2.05,36.328,23.548\C,0,-4.493,32.314,24.538\N,0,-2.239,35.0
 73,28.512\C,0,-2.794,34.319,29.58\C,0,-2.127,34.73,30.936\C,0,-1.423,3
 6.124,30.556\C,0,-1.58,36.151,29.034\C,0,-1.791,37.435,31.274\C,0,-1.1
 83,33.548,31.585\C,0,-1.783,32.986,32.923\C,0,-0.726,32.849,34.111\O,0

 Normal termination of Gaussian 16 at Thu Apr 28 00:51:32 2022.
