 Gaussian 16, Revision A.03,
 Gaussian 16:  ES64L-G16RevA.03 25-Dec-2016

 ------------------------------
 #p blyp/Def2SVP td=(nstates=5)
 ------------------------------

 ------------------------------------------------
 step_1_chromophore_13 TDDFT with blyp functional
 ------------------------------------------------
 Symbolic Z-matrix:
 Charge =  0 Multiplicity = 1

                         Standard orientation:
 ---------------------------------------------------------------------
 Center     Atomic      Atomic             Coordinates (Angstroms)
 Number     Number       Type             X           Y           Z
 ---------------------------------------------------------------------
      1         12           0       -5.923107    0.399239   -0.277388
      2          6           0       -3.837121   -2.370100    0.106732
      3          6           0       -3.344888    2.425206    0.292805
      4          6           0       -8.174701    2.798253    0.650058
      5          6           0       -8.600002   -1.763560   -0.818499
      6          7           0       -3.768054    0.058742   -0.008620
      7          6           0       -3.173378   -1.123737    0.092839
      8          6           0       -1.617841   -0.908781    0.154859
      9          6           0       -1.507991    0.625401    0.324990
     10          6           0       -2.956991    1.092335    0.223688
     11          6           0       -0.976310    1.087361    1.771517
     12          6           0       -0.808460   -1.422575   -1.121169
     13          6           0        0.463485   -2.103591   -0.747969
     14          6           0        1.764231   -1.677311   -1.410982
     15          8           0        1.775206   -0.857800   -2.368261
     16          8           0        2.914015   -2.298363   -0.905137
     17          7           0       -5.761418    2.346185    0.355422
     18          6           0       -4.584892    3.029891    0.512035
     19          6           0       -4.889116    4.461421    0.645116
     20          6           0       -6.305023    4.556094    0.748849
     21          6           0       -6.794638    3.172484    0.631789
     22          6           0       -3.786812    5.560100    0.778789
     23          6           0       -7.179954    5.818448    1.012974
     24          8           0       -8.403844    5.805490    1.082082
     25          6           0       -6.490953    7.121773    1.164219
     26          7           0       -8.005928    0.506508   -0.078448
     27          6           0       -8.757833    1.588605    0.388916
     28          6           0      -10.229925    1.146211    0.596652
     29          6           0      -10.394990   -0.037875   -0.453835
     30          6           0       -8.890900   -0.432556   -0.446413
     31          6           0      -10.562561    0.806919    2.065522
     32          6           0      -10.856268    0.328713   -1.835799
     33          6           0       -9.909921    0.923100   -2.836172
     34          7           0       -6.211256   -1.626801   -0.556254
     35          6           0       -7.346666   -2.384312   -0.728498
     36          6           0       -7.043398   -3.814239   -0.821698
     37          6           0       -5.643239   -3.888685   -0.389377
     38          6           0       -5.216496   -2.511978   -0.238193
     39          6           0       -7.990864   -4.883491   -1.019312
     40          6           0       -4.536197   -4.777684   -0.058541
     41          8           0       -4.455119   -5.945335    0.028927
     42          6           0       -3.278844   -3.795698    0.203946
     43          6           0       -2.503888   -4.100675    1.460923
     44          8           0       -2.706350   -3.590909    2.559021
     45          8           0       -1.467615   -4.977371    1.141244
     46          6           0       -0.559059   -5.384998    2.228197
     47          6           0        4.164609   -1.880866   -1.531865
     48          6           0        4.917040   -0.909286   -0.667323
     49          6           0        6.258344   -0.592589   -0.738898
     50          6           0        7.298030   -1.149514   -1.689851
     51          6           0        6.779561    0.636467    0.019286
     52          6           0        6.957251    1.886006   -0.881512
     53          6           0        8.329886    2.588775   -0.794606
     54          6           0        9.297127    2.366911   -2.007239
     55          6           0        8.662912    2.576667   -3.427697
     56          6           0       10.321445    1.155892   -1.857946
     57          6           0       11.785885    1.665804   -1.946616
     58          6           0       12.833286    0.524327   -1.713031
     59          6           0       14.023434    0.772107   -0.713706
     60          6           0       15.179916    1.512246   -1.448354
     61          6           0       14.429939   -0.460502    0.163012
     62          6           0       14.529579   -0.279743    1.698260
     63          6           0       13.378156   -0.987741    2.463030
     64          6           0       12.513365    0.043570    3.302183
     65          6           0       12.483411   -0.449768    4.791998
     66          6           0       11.150702    0.114876    2.738044
     67          1           0       -2.612888    3.235880    0.280075
     68          1           0       -8.833450    3.607392    0.973406
     69          1           0       -9.463869   -2.374516   -1.087181
     70          1           0       -1.176573   -1.354348    1.046754
     71          1           0       -0.849044    1.143136   -0.372009
     72          1           0        0.105796    1.191121    1.689092
     73          1           0       -1.127107    0.367622    2.575677
     74          1           0       -1.416528    2.060269    1.993179
     75          1           0       -0.548839   -0.602727   -1.791112
     76          1           0       -1.351105   -2.100148   -1.780511
     77          1           0        0.308294   -3.121921   -1.103320
     78          1           0        0.711534   -2.179050    0.310376
     79          1           0       -3.599438    5.659025    1.847629
     80          1           0       -4.082614    6.488191    0.289063
     81          1           0       -2.791583    5.229862    0.479300
     82          1           0       -5.560398    7.215715    1.723768
     83          1           0       -7.168883    7.843094    1.619843
     84          1           0       -6.438905    7.612764    0.192037
     85          1           0      -10.801490    2.007932    0.253099
     86          1           0      -11.057225   -0.823836   -0.091213
     87          1           0      -11.000626   -0.173376    2.253294
     88          1           0      -11.085817    1.606088    2.591009
     89          1           0       -9.645837    0.775791    2.654111
     90          1           0      -11.690578    1.028761   -1.858156
     91          1           0      -11.250862   -0.574653   -2.301132
     92          1           0       -9.590152    0.045918   -3.398384
     93          1           0       -9.008570    1.379993   -2.427030
     94          1           0      -10.450911    1.629481   -3.466647
     95          1           0       -7.473437   -5.627651   -1.625054
     96          1           0       -8.822217   -4.472504   -1.591526
     97          1           0       -8.276399   -5.315615   -0.060736
     98          1           0       -2.593722   -3.929383   -0.633226
     99          1           0       -1.184133   -5.760597    3.038775
    100          1           0       -0.006584   -4.528531    2.613747
    101          1           0        0.212127   -6.130727    2.034457
    102          1           0        4.080762   -1.439601   -2.525769
    103          1           0        4.791993   -2.765971   -1.637198
    104          1           0        4.201827   -0.340884   -0.072553
    105          1           0        8.109612   -0.440995   -1.856393
    106          1           0        6.711173   -1.391450   -2.575697
    107          1           0        7.735019   -2.107520   -1.409824
    108          1           0        7.700349    0.326768    0.512297
    109          1           0        6.163609    0.923672    0.871658
    110          1           0        6.170043    2.602330   -0.648662
    111          1           0        6.811109    1.601737   -1.923513
    112          1           0        8.828816    2.266862    0.119531
    113          1           0        8.137269    3.660874   -0.845480
    114          1           0        9.837674    3.312118   -1.953690
    115          1           0        8.640208    1.587308   -3.884742
    116          1           0        9.249971    3.187471   -4.113860
    117          1           0        7.615217    2.874088   -3.469436
    118          1           0       10.126387    0.458806   -2.672757
    119          1           0       10.069584    0.670404   -0.915877
    120          1           0       12.018007    2.464277   -1.240929
    121          1           0       11.775964    2.120067   -2.937689
    122          1           0       13.298989    0.283998   -2.668931
    123          1           0       12.242042   -0.312624   -1.342019
    124          1           0       13.630714    1.379914    0.100900
    125          1           0       15.488600    2.294780   -0.756012
    126          1           0       14.871916    1.863279   -2.433227
    127          1           0       16.024884    0.823657   -1.495884
    128          1           0       15.438655   -0.760871   -0.121380
    129          1           0       13.914606   -1.368085   -0.151993
    130          1           0       14.468346    0.799149    1.840629
    131          1           0       15.467263   -0.746004    1.999076
    132          1           0       13.738075   -1.699582    3.206856
    133          1           0       12.831776   -1.662856    1.803750
    134          1           0       12.910940    1.040474    3.113148
    135          1           0       12.073449   -1.459526    4.809994
    136          1           0       12.033272    0.401493    5.302177
    137          1           0       13.547359   -0.489766    5.023629
    138          1           0       11.093943   -0.090657    1.668796
    139          1           0       10.707902    1.082657    2.975070
    140          1           0       10.489365   -0.641906    3.158716
 ---------------------------------------------------------------------

 SCF Done:  E(RB-LYP) =  -3007.37295628     A.U. after   21 cycles

 Excitation energies and oscillator strengths:

 Excited State   1:      Singlet-A      1.7951 eV  690.69 nm  f=0.2917  <S**2>=0.000
     245 -> 248        0.18766
     246 -> 247        0.69289
     246 <- 247       -0.15613
 This state for optimization and/or second-order correction.
 Total Energy, E(TD-HF/TD-DFT) =  -3007.30698825
 Copying the excited state density for this state as the 1-particle RhoCI density.

 Excited State   2:      Singlet-A      2.0475 eV  605.53 nm  f=0.0861  <S**2>=0.000
     245 -> 247        0.64169
     246 -> 248       -0.25277

 Excited State   3:      Singlet-A      2.1577 eV  574.61 nm  f=0.0017  <S**2>=0.000
     244 -> 247        0.70012

 Excited State   4:      Singlet-A      2.1967 eV  564.42 nm  f=0.0009  <S**2>=0.000
     243 -> 247        0.70576

 Excited State   5:      Singlet-A      2.2216 eV  558.09 nm  f=0.0000  <S**2>=0.000
     242 -> 247        0.70672

 The electronic state is 1-A.
 Alpha  occ. eigenvalues --  -46.26412 -18.82934 -18.82006 -18.77132 -18.76823
 Alpha  occ. eigenvalues --  -18.76283 -18.75986 -14.03249 -14.02641 -14.00790
 Alpha  occ. eigenvalues --  -14.00769 -10.04819 -10.04010 -10.00420 -10.00002
 Alpha  occ. eigenvalues --   -9.97776  -9.97697  -9.96734  -9.96277  -9.96056
 Alpha  occ. eigenvalues --   -9.95652  -9.95561  -9.95295  -9.95245  -9.94937
 Alpha  occ. eigenvalues --   -9.94231  -9.94225  -9.93923  -9.93866  -9.93854
 Alpha  occ. eigenvalues --   -9.93801  -9.93785  -9.93748  -9.93595  -9.93572
 Alpha  occ. eigenvalues --   -9.93239  -9.92929  -9.92752  -9.92524  -9.92503
 Alpha  occ. eigenvalues --   -9.92284  -9.92204  -9.92150  -9.92081  -9.92069
 Alpha  occ. eigenvalues --   -9.91952  -9.91951  -9.91912  -9.91884  -9.91784
 Alpha  occ. eigenvalues --   -9.91755  -9.91711  -9.91663  -9.91655  -9.91522
 Alpha  occ. eigenvalues --   -9.91456  -9.91439  -9.91409  -9.91304  -9.91299
 Alpha  occ. eigenvalues --   -9.91289  -9.91155  -9.90991  -9.90817  -9.90730
 Alpha  occ. eigenvalues --   -9.90273  -2.91204  -1.71633  -1.71059  -1.70935
 Alpha  occ. eigenvalues --   -0.96983  -0.96525  -0.94219  -0.91765  -0.89405
 Alpha  occ. eigenvalues --   -0.88957  -0.87361  -0.85917  -0.85293  -0.84589
 Alpha  occ. eigenvalues --   -0.74642  -0.73239  -0.72830  -0.72647  -0.72345
 Alpha  occ. eigenvalues --   -0.71745  -0.71401  -0.70735  -0.70488  -0.70380
 Alpha  occ. eigenvalues --   -0.69672  -0.69139  -0.68074  -0.67482  -0.67042
 Alpha  occ. eigenvalues --   -0.66510  -0.65746  -0.65348  -0.65064  -0.64520
 Alpha  occ. eigenvalues --   -0.64001  -0.62554  -0.61974  -0.61744  -0.60707
 Alpha  occ. eigenvalues --   -0.60481  -0.60439  -0.59780  -0.59383  -0.59021
 Alpha  occ. eigenvalues --   -0.58309  -0.57181  -0.56583  -0.55661  -0.54593
 Alpha  occ. eigenvalues --   -0.54034  -0.53712  -0.52785  -0.52469  -0.51554
 Alpha  occ. eigenvalues --   -0.50994  -0.50510  -0.50271  -0.50124  -0.50023
 Alpha  occ. eigenvalues --   -0.49106  -0.48824  -0.48088  -0.47742  -0.46887
 Alpha  occ. eigenvalues --   -0.46527  -0.46101  -0.45324  -0.44804  -0.44368
 Alpha  occ. eigenvalues --   -0.44160  -0.43588  -0.42864  -0.42642  -0.42289
 Alpha  occ. eigenvalues --   -0.42152  -0.41804  -0.41331  -0.41168  -0.41065
 Alpha  occ. eigenvalues --   -0.40961  -0.40706  -0.40461  -0.40335  -0.40127
 Alpha  occ. eigenvalues --   -0.40062  -0.39675  -0.39494  -0.39311  -0.39186
 Alpha  occ. eigenvalues --   -0.38983  -0.38850  -0.38731  -0.38475  -0.38287
 Alpha  occ. eigenvalues --   -0.38089  -0.37881  -0.37348  -0.37220  -0.37091
 Alpha  occ. eigenvalues --   -0.37073  -0.37028  -0.36697  -0.36473  -0.36329
 Alpha  occ. eigenvalues --   -0.36197  -0.36096  -0.36006  -0.35808  -0.35664
 Alpha  occ. eigenvalues --   -0.35566  -0.35221  -0.35120  -0.34920  -0.34900
 Alpha  occ. eigenvalues --   -0.34710  -0.34497  -0.34364  -0.34205  -0.33861
 Alpha  occ. eigenvalues --   -0.33802  -0.33517  -0.33312  -0.33155  -0.33079
 Alpha  occ. eigenvalues --   -0.32914  -0.32897  -0.32607  -0.32428  -0.32323
 Alpha  occ. eigenvalues --   -0.31974  -0.31955  -0.31705  -0.31651  -0.31481
 Alpha  occ. eigenvalues --   -0.31368  -0.31258  -0.31045  -0.30767  -0.30616
 Alpha  occ. eigenvalues --   -0.30389  -0.30163  -0.30057  -0.29944  -0.29841
 Alpha  occ. eigenvalues --   -0.29748  -0.29437  -0.29099  -0.28972  -0.28862
 Alpha  occ. eigenvalues --   -0.28424  -0.28307  -0.28187  -0.28050  -0.27958
 Alpha  occ. eigenvalues --   -0.27580  -0.27460  -0.26841  -0.26637  -0.26440
 Alpha  occ. eigenvalues --   -0.26017  -0.25641  -0.25511  -0.25451  -0.25321
 Alpha  occ. eigenvalues --   -0.24907  -0.24785  -0.24246  -0.23826  -0.23540
 Alpha  occ. eigenvalues --   -0.23511  -0.22075  -0.22011  -0.21695  -0.20643
 Alpha  occ. eigenvalues --   -0.20145  -0.19491  -0.19292  -0.19177  -0.17190
 Alpha  occ. eigenvalues --   -0.15498
 Alpha virt. eigenvalues --   -0.11327  -0.06555  -0.06121  -0.04447  -0.03622
 Alpha virt. eigenvalues --   -0.02981  -0.02169  -0.02027  -0.01125   0.00362
 Alpha virt. eigenvalues --    0.01486   0.01605   0.02064   0.02484   0.02654

 Mulliken charges:
               1
     1  Mg   0.711675
     2  C    0.050586
     3  C   -0.063492
     4  C   -0.057322
     5  C   -0.097515
     6  N   -0.171203
     7  C   -0.073501
     8  C    0.047608
     9  C   -0.030201
    10  C    0.071587
    11  C    0.090470
    12  C    0.138789
    13  C    0.112239
    14  C    0.080543
    15  O   -0.222789
    16  O   -0.277933
    17  N   -0.284851
    18  C    0.085602
    19  C   -0.131452
    20  C    0.008153
    21  C    0.076652
    22  C    0.149308
    23  C   -0.043070
    24  O   -0.158561
    25  C    0.133844
    26  N   -0.222671
    27  C    0.022866
    28  C    0.059465
    29  C    0.045015
    30  C    0.012081
    31  C    0.153243
    32  C    0.065765
    33  C    0.086620
    34  N   -0.275351
    35  C    0.153270
    36  C   -0.175912
    37  C    0.038270
    38  C    0.055008
    39  C    0.179162
    40  C   -0.046530
    41  O   -0.064264
    42  C    0.001826
    43  C    0.130162
    44  O   -0.184325
    45  O   -0.288787
    46  C    0.227025
    47  C    0.298669
    48  C   -0.102773
    49  C   -0.144355
    50  C    0.136951
    51  C    0.124600
    52  C    0.069927
    53  C    0.093599
    54  C   -0.080475
    55  C    0.079533
    56  C    0.053017
    57  C    0.078455
    58  C    0.109108
    59  C   -0.082900
    60  C    0.134979
    61  C    0.072773
    62  C    0.093310
    63  C    0.098661
    64  C   -0.117622
    65  C    0.129684
    66  C    0.098619
    67  H   -0.068735
    68  H   -0.048072
    69  H   -0.069766
    70  H   -0.011514
    71  H   -0.008634
    72  H   -0.016207
    73  H    0.005414
    74  H   -0.006847
    75  H   -0.011222
    76  H   -0.021702
    77  H    0.013368
    78  H    0.001687
    79  H    0.008604
    80  H    0.018060
    81  H   -0.017541
    82  H    0.008471
    83  H   -0.025053
    84  H    0.008709
    85  H   -0.040537
    86  H   -0.042082
    87  H   -0.007165
    88  H   -0.003278
    89  H   -0.016253
    90  H   -0.028337
    91  H   -0.030481
    92  H   -0.018274
    93  H    0.011191
    94  H   -0.008928
    95  H    0.006107
    96  H   -0.008991
    97  H    0.024073
    98  H    0.004502
    99  H    0.012557
   100  H    0.001817
   101  H    0.019137
   102  H    0.019257
   103  H   -0.008877
   104  H   -0.036787
   105  H   -0.005003
   106  H   -0.010578
   107  H    0.002371
   108  H   -0.027522
   109  H   -0.039309
   110  H   -0.029390
   111  H   -0.023869
   112  H   -0.023808
   113  H   -0.037407
   114  H   -0.034206
   115  H   -0.030860
   116  H   -0.009416
   117  H   -0.004917
   118  H   -0.008348
   119  H   -0.015621
   120  H   -0.027438
   121  H   -0.032144
   122  H   -0.030302
   123  H   -0.035381
   124  H   -0.043336
   125  H   -0.016025
   126  H   -0.002072
   127  H   -0.017505
   128  H   -0.058894
   129  H   -0.043225
   130  H   -0.020645
   131  H   -0.027254
   132  H   -0.057882
   133  H   -0.040028
   134  H   -0.032287
   135  H    0.004207
   136  H   -0.008923
   137  H   -0.014230
   138  H   -0.011685
   139  H   -0.021555
   140  H   -0.034054
 Sum of Mulliken charges =  -0.00000

 Dipole moment (field-independent basis, Debye):
    X=              3.6039    Y=              1.9337    Z=             -1.1006  Tot=              4.2354
 Quadrupole moment (field-independent basis, Debye-Ang):
   XX=           -374.1132   YY=           -414.1492   ZZ=           -410.9073
   XY=              3.6885   XZ=             14.9755   YZ=              1.8262

 Normal termination of Gaussian 16 at Fri Apr 29 05:41:43 2022.
