 Gaussian 16, Revision A.03,
 Gaussian 16:  ES64L-G16RevA.03 25-Dec-2016

 -----------------------------------
 #p cam-b3lyp/Def2SVP td=(nstates=5)
 -----------------------------------

 -----------------------------------------------------
 step_1_chromophore_13 TDDFT with cam-b3lyp functional
 -----------------------------------------------------
 Symbolic Z-matrix:
 Charge =  0 Multiplicity = 1

                         Standard orientation:
 ---------------------------------------------------------------------
 Center     Atomic      Atomic             Coordinates (Angstroms)
 Number     Number       Type             X           Y           Z
 ---------------------------------------------------------------------
      1         12           0       -5.923107    0.399239   -0.277388
      2          6           0       -3.837121   -2.370100    0.106732
      3          6           0       -3.344888    2.425206    0.292805
      4          6           0       -8.174701    2.798253    0.650058
      5          6           0       -8.600002   -1.763560   -0.818499
      6          7           0       -3.768054    0.058742   -0.008620
      7          6           0       -3.173378   -1.123737    0.092839
      8          6           0       -1.617841   -0.908781    0.154859
      9          6           0       -1.507991    0.625401    0.324990
     10          6           0       -2.956991    1.092335    0.223688
     11          6           0       -0.976310    1.087361    1.771517
     12          6           0       -0.808460   -1.422575   -1.121169
     13          6           0        0.463485   -2.103591   -0.747969
     14          6           0        1.764231   -1.677311   -1.410982
     15          8           0        1.775206   -0.857800   -2.368261
     16          8           0        2.914015   -2.298363   -0.905137
     17          7           0       -5.761418    2.346185    0.355422
     18          6           0       -4.584892    3.029891    0.512035
     19          6           0       -4.889116    4.461421    0.645116
     20          6           0       -6.305023    4.556094    0.748849
     21          6           0       -6.794638    3.172484    0.631789
     22          6           0       -3.786812    5.560100    0.778789
     23          6           0       -7.179954    5.818448    1.012974
     24          8           0       -8.403844    5.805490    1.082082
     25          6           0       -6.490953    7.121773    1.164219
     26          7           0       -8.005928    0.506508   -0.078448
     27          6           0       -8.757833    1.588605    0.388916
     28          6           0      -10.229925    1.146211    0.596652
     29          6           0      -10.394990   -0.037875   -0.453835
     30          6           0       -8.890900   -0.432556   -0.446413
     31          6           0      -10.562561    0.806919    2.065522
     32          6           0      -10.856268    0.328713   -1.835799
     33          6           0       -9.909921    0.923100   -2.836172
     34          7           0       -6.211256   -1.626801   -0.556254
     35          6           0       -7.346666   -2.384312   -0.728498
     36          6           0       -7.043398   -3.814239   -0.821698
     37          6           0       -5.643239   -3.888685   -0.389377
     38          6           0       -5.216496   -2.511978   -0.238193
     39          6           0       -7.990864   -4.883491   -1.019312
     40          6           0       -4.536197   -4.777684   -0.058541
     41          8           0       -4.455119   -5.945335    0.028927
     42          6           0       -3.278844   -3.795698    0.203946
     43          6           0       -2.503888   -4.100675    1.460923
     44          8           0       -2.706350   -3.590909    2.559021
     45          8           0       -1.467615   -4.977371    1.141244
     46          6           0       -0.559059   -5.384998    2.228197
     47          6           0        4.164609   -1.880866   -1.531865
     48          6           0        4.917040   -0.909286   -0.667323
     49          6           0        6.258344   -0.592589   -0.738898
     50          6           0        7.298030   -1.149514   -1.689851
     51          6           0        6.779561    0.636467    0.019286
     52          6           0        6.957251    1.886006   -0.881512
     53          6           0        8.329886    2.588775   -0.794606
     54          6           0        9.297127    2.366911   -2.007239
     55          6           0        8.662912    2.576667   -3.427697
     56          6           0       10.321445    1.155892   -1.857946
     57          6           0       11.785885    1.665804   -1.946616
     58          6           0       12.833286    0.524327   -1.713031
     59          6           0       14.023434    0.772107   -0.713706
     60          6           0       15.179916    1.512246   -1.448354
     61          6           0       14.429939   -0.460502    0.163012
     62          6           0       14.529579   -0.279743    1.698260
     63          6           0       13.378156   -0.987741    2.463030
     64          6           0       12.513365    0.043570    3.302183
     65          6           0       12.483411   -0.449768    4.791998
     66          6           0       11.150702    0.114876    2.738044
     67          1           0       -2.612888    3.235880    0.280075
     68          1           0       -8.833450    3.607392    0.973406
     69          1           0       -9.463869   -2.374516   -1.087181
     70          1           0       -1.176573   -1.354348    1.046754
     71          1           0       -0.849044    1.143136   -0.372009
     72          1           0        0.105796    1.191121    1.689092
     73          1           0       -1.127107    0.367622    2.575677
     74          1           0       -1.416528    2.060269    1.993179
     75          1           0       -0.548839   -0.602727   -1.791112
     76          1           0       -1.351105   -2.100148   -1.780511
     77          1           0        0.308294   -3.121921   -1.103320
     78          1           0        0.711534   -2.179050    0.310376
     79          1           0       -3.599438    5.659025    1.847629
     80          1           0       -4.082614    6.488191    0.289063
     81          1           0       -2.791583    5.229862    0.479300
     82          1           0       -5.560398    7.215715    1.723768
     83          1           0       -7.168883    7.843094    1.619843
     84          1           0       -6.438905    7.612764    0.192037
     85          1           0      -10.801490    2.007932    0.253099
     86          1           0      -11.057225   -0.823836   -0.091213
     87          1           0      -11.000626   -0.173376    2.253294
     88          1           0      -11.085817    1.606088    2.591009
     89          1           0       -9.645837    0.775791    2.654111
     90          1           0      -11.690578    1.028761   -1.858156
     91          1           0      -11.250862   -0.574653   -2.301132
     92          1           0       -9.590152    0.045918   -3.398384
     93          1           0       -9.008570    1.379993   -2.427030
     94          1           0      -10.450911    1.629481   -3.466647
     95          1           0       -7.473437   -5.627651   -1.625054
     96          1           0       -8.822217   -4.472504   -1.591526
     97          1           0       -8.276399   -5.315615   -0.060736
     98          1           0       -2.593722   -3.929383   -0.633226
     99          1           0       -1.184133   -5.760597    3.038775
    100          1           0       -0.006584   -4.528531    2.613747
    101          1           0        0.212127   -6.130727    2.034457
    102          1           0        4.080762   -1.439601   -2.525769
    103          1           0        4.791993   -2.765971   -1.637198
    104          1           0        4.201827   -0.340884   -0.072553
    105          1           0        8.109612   -0.440995   -1.856393
    106          1           0        6.711173   -1.391450   -2.575697
    107          1           0        7.735019   -2.107520   -1.409824
    108          1           0        7.700349    0.326768    0.512297
    109          1           0        6.163609    0.923672    0.871658
    110          1           0        6.170043    2.602330   -0.648662
    111          1           0        6.811109    1.601737   -1.923513
    112          1           0        8.828816    2.266862    0.119531
    113          1           0        8.137269    3.660874   -0.845480
    114          1           0        9.837674    3.312118   -1.953690
    115          1           0        8.640208    1.587308   -3.884742
    116          1           0        9.249971    3.187471   -4.113860
    117          1           0        7.615217    2.874088   -3.469436
    118          1           0       10.126387    0.458806   -2.672757
    119          1           0       10.069584    0.670404   -0.915877
    120          1           0       12.018007    2.464277   -1.240929
    121          1           0       11.775964    2.120067   -2.937689
    122          1           0       13.298989    0.283998   -2.668931
    123          1           0       12.242042   -0.312624   -1.342019
    124          1           0       13.630714    1.379914    0.100900
    125          1           0       15.488600    2.294780   -0.756012
    126          1           0       14.871916    1.863279   -2.433227
    127          1           0       16.024884    0.823657   -1.495884
    128          1           0       15.438655   -0.760871   -0.121380
    129          1           0       13.914606   -1.368085   -0.151993
    130          1           0       14.468346    0.799149    1.840629
    131          1           0       15.467263   -0.746004    1.999076
    132          1           0       13.738075   -1.699582    3.206856
    133          1           0       12.831776   -1.662856    1.803750
    134          1           0       12.910940    1.040474    3.113148
    135          1           0       12.073449   -1.459526    4.809994
    136          1           0       12.033272    0.401493    5.302177
    137          1           0       13.547359   -0.489766    5.023629
    138          1           0       11.093943   -0.090657    1.668796
    139          1           0       10.707902    1.082657    2.975070
    140          1           0       10.489365   -0.641906    3.158716
 ---------------------------------------------------------------------

 SCF Done:  E(RCAM-B3LYP) =  -3007.16009509     A.U. after   17 cycles

 Excitation energies and oscillator strengths:

 Excited State   1:      Singlet-A      1.6809 eV  737.62 nm  f=0.3722  <S**2>=0.000
     245 -> 248       -0.17708
     246 -> 247        0.68651
     245 <- 248       -0.10858
 This state for optimization and/or second-order correction.
 Total Energy, E(TD-HF/TD-DFT) =  -3007.09832404
 Copying the excited state density for this state as the 1-particle RhoCI density.

 Excited State   2:      Singlet-A      2.2561 eV  549.55 nm  f=0.1101  <S**2>=0.000
     245 -> 247        0.63264
     246 -> 248        0.30602

 Excited State   3:      Singlet-A      3.3855 eV  366.22 nm  f=0.0094  <S**2>=0.000
     243 -> 247        0.67804
     246 -> 248       -0.14009

 Excited State   4:      Singlet-A      3.5133 eV  352.90 nm  f=0.6131  <S**2>=0.000
     242 -> 247       -0.23575
     243 -> 247        0.13498
     245 -> 247       -0.27714
     246 -> 248        0.58646
     245 <- 247        0.10577

 Excited State   5:      Singlet-A      3.6439 eV  340.25 nm  f=0.2331  <S**2>=0.000
     242 -> 247        0.64442
     245 -> 247       -0.15242
     246 -> 248        0.18613

 The electronic state is 1-A.
 Alpha  occ. eigenvalues --  -46.87862 -19.25912 -19.25080 -19.20168 -19.20131
 Alpha  occ. eigenvalues --  -19.19662 -19.19133 -14.42145 -14.41367 -14.39231
 Alpha  occ. eigenvalues --  -14.39169 -10.40326 -10.39721 -10.35597 -10.35501
 Alpha  occ. eigenvalues --  -10.31813 -10.31811 -10.31297 -10.30539 -10.30526
 Alpha  occ. eigenvalues --  -10.29956 -10.29839 -10.29688 -10.29426 -10.29337
 Alpha  occ. eigenvalues --  -10.28731 -10.28606 -10.28393 -10.28364 -10.28184
 Alpha  occ. eigenvalues --  -10.27818 -10.27799 -10.27619 -10.27506 -10.27468
 Alpha  occ. eigenvalues --  -10.27463 -10.27029 -10.26862 -10.26639 -10.26216
 Alpha  occ. eigenvalues --  -10.26063 -10.26035 -10.26003 -10.25958 -10.25934
 Alpha  occ. eigenvalues --  -10.25916 -10.25829 -10.25758 -10.25709 -10.25509
 Alpha  occ. eigenvalues --  -10.25497 -10.25443 -10.25420 -10.25417 -10.25324
 Alpha  occ. eigenvalues --  -10.25187 -10.25165 -10.25017 -10.24993 -10.24992
 Alpha  occ. eigenvalues --  -10.24943 -10.24742 -10.24502 -10.24481 -10.24429
 Alpha  occ. eigenvalues --  -10.23848  -3.16564  -1.91467  -1.90996  -1.90892
 Alpha  occ. eigenvalues --   -1.15424  -1.15197  -1.12924  -1.10109  -1.07491
 Alpha  occ. eigenvalues --   -1.06854  -1.05133  -1.03525  -1.02816  -1.02083
 Alpha  occ. eigenvalues --   -0.91847  -0.90129  -0.89651  -0.89440  -0.88973
 Alpha  occ. eigenvalues --   -0.88443  -0.88009  -0.87316  -0.87137  -0.86875
 Alpha  occ. eigenvalues --   -0.86252  -0.85517  -0.84340  -0.83607  -0.83206
 Alpha  occ. eigenvalues --   -0.82571  -0.81889  -0.81306  -0.80978  -0.80352
 Alpha  occ. eigenvalues --   -0.79770  -0.78271  -0.77581  -0.77206  -0.76164
 Alpha  occ. eigenvalues --   -0.75868  -0.75826  -0.75037  -0.74650  -0.74272
 Alpha  occ. eigenvalues --   -0.73374  -0.72192  -0.71447  -0.70491  -0.69153
 Alpha  occ. eigenvalues --   -0.68644  -0.68357  -0.67205  -0.66878  -0.65725
 Alpha  occ. eigenvalues --   -0.65206  -0.64582  -0.64225  -0.64057  -0.64049
 Alpha  occ. eigenvalues --   -0.62852  -0.62727  -0.61793  -0.61502  -0.60484
 Alpha  occ. eigenvalues --   -0.60098  -0.59715  -0.58881  -0.58119  -0.57963
 Alpha  occ. eigenvalues --   -0.57738  -0.57222  -0.55971  -0.55758  -0.55506
 Alpha  occ. eigenvalues --   -0.55325  -0.54792  -0.54581  -0.54085  -0.53927
 Alpha  occ. eigenvalues --   -0.53792  -0.53525  -0.53389  -0.53062  -0.52914
 Alpha  occ. eigenvalues --   -0.52734  -0.52431  -0.52100  -0.51996  -0.51723
 Alpha  occ. eigenvalues --   -0.51621  -0.51428  -0.51266  -0.51215  -0.50970
 Alpha  occ. eigenvalues --   -0.50438  -0.50233  -0.50129  -0.50012  -0.49606
 Alpha  occ. eigenvalues --   -0.49536  -0.49216  -0.49109  -0.48850  -0.48579
 Alpha  occ. eigenvalues --   -0.48447  -0.48275  -0.48154  -0.47897  -0.47788
 Alpha  occ. eigenvalues --   -0.47546  -0.47210  -0.46911  -0.46829  -0.46793
 Alpha  occ. eigenvalues --   -0.46713  -0.46521  -0.46114  -0.46013  -0.45951
 Alpha  occ. eigenvalues --   -0.45535  -0.45384  -0.45248  -0.45005  -0.44764
 Alpha  occ. eigenvalues --   -0.44626  -0.44578  -0.44315  -0.44107  -0.44100
 Alpha  occ. eigenvalues --   -0.43693  -0.43422  -0.43300  -0.43206  -0.43039
 Alpha  occ. eigenvalues --   -0.42856  -0.42747  -0.42552  -0.42037  -0.41953
 Alpha  occ. eigenvalues --   -0.41676  -0.41590  -0.41458  -0.41275  -0.41243
 Alpha  occ. eigenvalues --   -0.41124  -0.41058  -0.40430  -0.40194  -0.39937
 Alpha  occ. eigenvalues --   -0.39463  -0.39280  -0.39117  -0.39044  -0.38864
 Alpha  occ. eigenvalues --   -0.38476  -0.38430  -0.37858  -0.37646  -0.37375
 Alpha  occ. eigenvalues --   -0.36703  -0.36665  -0.36621  -0.36280  -0.36085
 Alpha  occ. eigenvalues --   -0.36061  -0.35402  -0.34825  -0.34491  -0.34343
 Alpha  occ. eigenvalues --   -0.34277  -0.34244  -0.32758  -0.31359  -0.31196
 Alpha  occ. eigenvalues --   -0.30977  -0.29972  -0.29505  -0.29081  -0.23936
 Alpha  occ. eigenvalues --   -0.20725
 Alpha virt. eigenvalues --   -0.08412  -0.01331   0.00450   0.02457   0.02898
 Alpha virt. eigenvalues --    0.04160   0.04624   0.05441   0.05886   0.07084
 Alpha virt. eigenvalues --    0.07530   0.08064   0.08755   0.08885   0.08948

 Mulliken charges:
               1
     1  Mg   0.846475
     2  C    0.025828
     3  C   -0.076353
     4  C   -0.074953
     5  C   -0.102992
     6  N   -0.243581
     7  C   -0.027164
     8  C   -0.003642
     9  C   -0.079023
    10  C    0.082494
    11  C    0.039070
    12  C    0.083910
    13  C    0.037227
    14  C    0.168475
    15  O   -0.266081
    16  O   -0.342432
    17  N   -0.370862
    18  C    0.094214
    19  C   -0.139222
    20  C   -0.061986
    21  C    0.101869
    22  C    0.093507
    23  C    0.039065
    24  O   -0.200750
    25  C    0.041912
    26  N   -0.293953
    27  C    0.034595
    28  C    0.001861
    29  C   -0.010246
    30  C    0.025319
    31  C    0.092713
    32  C    0.017572
    33  C    0.022125
    34  N   -0.362836
    35  C    0.153917
    36  C   -0.162476
    37  C   -0.039849
    38  C    0.088063
    39  C    0.122968
    40  C    0.056332
    41  O   -0.102595
    42  C   -0.071338
    43  C    0.218580
    44  O   -0.219518
    45  O   -0.353295
    46  C    0.186300
    47  C    0.260190
    48  C   -0.116343
    49  C   -0.169400
    50  C    0.083835
    51  C    0.069372
    52  C    0.011229
    53  C    0.047286
    54  C   -0.139970
    55  C    0.022131
    56  C    0.000878
    57  C    0.033585
    58  C    0.055697
    59  C   -0.135426
    60  C    0.075298
    61  C    0.021171
    62  C    0.036169
    63  C    0.040591
    64  C   -0.174826
    65  C    0.066793
    66  C    0.046842
    67  H   -0.035404
    68  H   -0.006513
    69  H   -0.034714
    70  H    0.019831
    71  H    0.024934
    72  H    0.007429
    73  H    0.029152
    74  H    0.017645
    75  H    0.025791
    76  H    0.009496
    77  H    0.045431
    78  H    0.032140
    79  H    0.034678
    80  H    0.042412
    81  H    0.010037
    82  H    0.038091
    83  H    0.011922
    84  H    0.038967
    85  H   -0.003752
    86  H   -0.004117
    87  H    0.017172
    88  H    0.021724
    89  H    0.010490
    90  H    0.001165
    91  H   -0.002133
    92  H    0.005535
    93  H    0.032021
    94  H    0.016186
    95  H    0.033271
    96  H    0.015357
    97  H    0.051001
    98  H    0.044732
    99  H    0.036927
   100  H    0.023753
   101  H    0.043606
   102  H    0.051730
   103  H    0.019138
   104  H   -0.004669
   105  H    0.011970
   106  H    0.011993
   107  H    0.028804
   108  H   -0.000952
   109  H   -0.007207
   110  H    0.001113
   111  H    0.002862
   112  H    0.002224
   113  H   -0.006847
   114  H   -0.000833
   115  H   -0.008700
   116  H    0.015479
   117  H    0.019424
   118  H    0.016474
   119  H    0.005169
   120  H    0.000102
   121  H   -0.005259
   122  H   -0.002175
   123  H   -0.008079
   124  H   -0.015658
   125  H    0.007997
   126  H    0.020869
   127  H    0.006104
   128  H   -0.027752
   129  H   -0.013263
   130  H    0.004678
   131  H    0.003529
   132  H   -0.025821
   133  H   -0.010838
   134  H   -0.002055
   135  H    0.026418
   136  H    0.015850
   137  H    0.009922
   138  H    0.006566
   139  H    0.002369
   140  H   -0.009288
 Sum of Mulliken charges =  -0.00000

 Dipole moment (field-independent basis, Debye):
    X=              3.7346    Y=              2.0097    Z=             -1.0241  Tot=              4.3629
 Quadrupole moment (field-independent basis, Debye-Ang):
   XX=           -375.0909   YY=           -409.4741   ZZ=           -411.2663
   XY=              3.0780   XZ=             15.2308   YZ=              2.4841

 Normal termination of Gaussian 16 at Fri Apr 29 04:39:59 2022.
