 Gaussian 16, Revision A.03,
 Gaussian 16:  ES64L-G16RevA.03 25-Dec-2016

 ---------------------------------
 #p PBE1PBE/Def2SVP td=(nstates=5)
 ---------------------------------

 ---------------------------------------------------
 step_1_chromophore_13 TDDFT with PBE1PBE functional
 ---------------------------------------------------
 Symbolic Z-matrix:
 Charge =  0 Multiplicity = 1

                         Standard orientation:
 ---------------------------------------------------------------------
 Center     Atomic      Atomic             Coordinates (Angstroms)
 Number     Number       Type             X           Y           Z
 ---------------------------------------------------------------------
      1         12           0       -5.923107    0.399239   -0.277388
      2          6           0       -3.837121   -2.370100    0.106732
      3          6           0       -3.344888    2.425206    0.292805
      4          6           0       -8.174701    2.798253    0.650058
      5          6           0       -8.600002   -1.763560   -0.818499
      6          7           0       -3.768054    0.058742   -0.008620
      7          6           0       -3.173378   -1.123737    0.092839
      8          6           0       -1.617841   -0.908781    0.154859
      9          6           0       -1.507991    0.625401    0.324990
     10          6           0       -2.956991    1.092335    0.223688
     11          6           0       -0.976310    1.087361    1.771517
     12          6           0       -0.808460   -1.422575   -1.121169
     13          6           0        0.463485   -2.103591   -0.747969
     14          6           0        1.764231   -1.677311   -1.410982
     15          8           0        1.775206   -0.857800   -2.368261
     16          8           0        2.914015   -2.298363   -0.905137
     17          7           0       -5.761418    2.346185    0.355422
     18          6           0       -4.584892    3.029891    0.512035
     19          6           0       -4.889116    4.461421    0.645116
     20          6           0       -6.305023    4.556094    0.748849
     21          6           0       -6.794638    3.172484    0.631789
     22          6           0       -3.786812    5.560100    0.778789
     23          6           0       -7.179954    5.818448    1.012974
     24          8           0       -8.403844    5.805490    1.082082
     25          6           0       -6.490953    7.121773    1.164219
     26          7           0       -8.005928    0.506508   -0.078448
     27          6           0       -8.757833    1.588605    0.388916
     28          6           0      -10.229925    1.146211    0.596652
     29          6           0      -10.394990   -0.037875   -0.453835
     30          6           0       -8.890900   -0.432556   -0.446413
     31          6           0      -10.562561    0.806919    2.065522
     32          6           0      -10.856268    0.328713   -1.835799
     33          6           0       -9.909921    0.923100   -2.836172
     34          7           0       -6.211256   -1.626801   -0.556254
     35          6           0       -7.346666   -2.384312   -0.728498
     36          6           0       -7.043398   -3.814239   -0.821698
     37          6           0       -5.643239   -3.888685   -0.389377
     38          6           0       -5.216496   -2.511978   -0.238193
     39          6           0       -7.990864   -4.883491   -1.019312
     40          6           0       -4.536197   -4.777684   -0.058541
     41          8           0       -4.455119   -5.945335    0.028927
     42          6           0       -3.278844   -3.795698    0.203946
     43          6           0       -2.503888   -4.100675    1.460923
     44          8           0       -2.706350   -3.590909    2.559021
     45          8           0       -1.467615   -4.977371    1.141244
     46          6           0       -0.559059   -5.384998    2.228197
     47          6           0        4.164609   -1.880866   -1.531865
     48          6           0        4.917040   -0.909286   -0.667323
     49          6           0        6.258344   -0.592589   -0.738898
     50          6           0        7.298030   -1.149514   -1.689851
     51          6           0        6.779561    0.636467    0.019286
     52          6           0        6.957251    1.886006   -0.881512
     53          6           0        8.329886    2.588775   -0.794606
     54          6           0        9.297127    2.366911   -2.007239
     55          6           0        8.662912    2.576667   -3.427697
     56          6           0       10.321445    1.155892   -1.857946
     57          6           0       11.785885    1.665804   -1.946616
     58          6           0       12.833286    0.524327   -1.713031
     59          6           0       14.023434    0.772107   -0.713706
     60          6           0       15.179916    1.512246   -1.448354
     61          6           0       14.429939   -0.460502    0.163012
     62          6           0       14.529579   -0.279743    1.698260
     63          6           0       13.378156   -0.987741    2.463030
     64          6           0       12.513365    0.043570    3.302183
     65          6           0       12.483411   -0.449768    4.791998
     66          6           0       11.150702    0.114876    2.738044
     67          1           0       -2.612888    3.235880    0.280075
     68          1           0       -8.833450    3.607392    0.973406
     69          1           0       -9.463869   -2.374516   -1.087181
     70          1           0       -1.176573   -1.354348    1.046754
     71          1           0       -0.849044    1.143136   -0.372009
     72          1           0        0.105796    1.191121    1.689092
     73          1           0       -1.127107    0.367622    2.575677
     74          1           0       -1.416528    2.060269    1.993179
     75          1           0       -0.548839   -0.602727   -1.791112
     76          1           0       -1.351105   -2.100148   -1.780511
     77          1           0        0.308294   -3.121921   -1.103320
     78          1           0        0.711534   -2.179050    0.310376
     79          1           0       -3.599438    5.659025    1.847629
     80          1           0       -4.082614    6.488191    0.289063
     81          1           0       -2.791583    5.229862    0.479300
     82          1           0       -5.560398    7.215715    1.723768
     83          1           0       -7.168883    7.843094    1.619843
     84          1           0       -6.438905    7.612764    0.192037
     85          1           0      -10.801490    2.007932    0.253099
     86          1           0      -11.057225   -0.823836   -0.091213
     87          1           0      -11.000626   -0.173376    2.253294
     88          1           0      -11.085817    1.606088    2.591009
     89          1           0       -9.645837    0.775791    2.654111
     90          1           0      -11.690578    1.028761   -1.858156
     91          1           0      -11.250862   -0.574653   -2.301132
     92          1           0       -9.590152    0.045918   -3.398384
     93          1           0       -9.008570    1.379993   -2.427030
     94          1           0      -10.450911    1.629481   -3.466647
     95          1           0       -7.473437   -5.627651   -1.625054
     96          1           0       -8.822217   -4.472504   -1.591526
     97          1           0       -8.276399   -5.315615   -0.060736
     98          1           0       -2.593722   -3.929383   -0.633226
     99          1           0       -1.184133   -5.760597    3.038775
    100          1           0       -0.006584   -4.528531    2.613747
    101          1           0        0.212127   -6.130727    2.034457
    102          1           0        4.080762   -1.439601   -2.525769
    103          1           0        4.791993   -2.765971   -1.637198
    104          1           0        4.201827   -0.340884   -0.072553
    105          1           0        8.109612   -0.440995   -1.856393
    106          1           0        6.711173   -1.391450   -2.575697
    107          1           0        7.735019   -2.107520   -1.409824
    108          1           0        7.700349    0.326768    0.512297
    109          1           0        6.163609    0.923672    0.871658
    110          1           0        6.170043    2.602330   -0.648662
    111          1           0        6.811109    1.601737   -1.923513
    112          1           0        8.828816    2.266862    0.119531
    113          1           0        8.137269    3.660874   -0.845480
    114          1           0        9.837674    3.312118   -1.953690
    115          1           0        8.640208    1.587308   -3.884742
    116          1           0        9.249971    3.187471   -4.113860
    117          1           0        7.615217    2.874088   -3.469436
    118          1           0       10.126387    0.458806   -2.672757
    119          1           0       10.069584    0.670404   -0.915877
    120          1           0       12.018007    2.464277   -1.240929
    121          1           0       11.775964    2.120067   -2.937689
    122          1           0       13.298989    0.283998   -2.668931
    123          1           0       12.242042   -0.312624   -1.342019
    124          1           0       13.630714    1.379914    0.100900
    125          1           0       15.488600    2.294780   -0.756012
    126          1           0       14.871916    1.863279   -2.433227
    127          1           0       16.024884    0.823657   -1.495884
    128          1           0       15.438655   -0.760871   -0.121380
    129          1           0       13.914606   -1.368085   -0.151993
    130          1           0       14.468346    0.799149    1.840629
    131          1           0       15.467263   -0.746004    1.999076
    132          1           0       13.738075   -1.699582    3.206856
    133          1           0       12.831776   -1.662856    1.803750
    134          1           0       12.910940    1.040474    3.113148
    135          1           0       12.073449   -1.459526    4.809994
    136          1           0       12.033272    0.401493    5.302177
    137          1           0       13.547359   -0.489766    5.023629
    138          1           0       11.093943   -0.090657    1.668796
    139          1           0       10.707902    1.082657    2.975070
    140          1           0       10.489365   -0.641906    3.158716
 ---------------------------------------------------------------------

 SCF Done:  E(RPBE1PBE) =  -3005.35047257     A.U. after   15 cycles

 Excitation energies and oscillator strengths:

 Excited State   1:      Singlet-A      1.8402 eV  673.76 nm  f=0.3579  <S**2>=0.000
     245 -> 248       -0.17106
     246 -> 247        0.69452
     246 <- 247       -0.11332
 This state for optimization and/or second-order correction.
 Total Energy, E(TD-HF/TD-DFT) =  -3005.28284678
 Copying the excited state density for this state as the 1-particle RhoCI density.

 Excited State   2:      Singlet-A      2.2627 eV  547.96 nm  f=0.1111  <S**2>=0.000
     245 -> 247        0.64517
     246 -> 248        0.27993

 Excited State   3:      Singlet-A      3.0833 eV  402.11 nm  f=0.0018  <S**2>=0.000
     243 -> 247        0.68849

 Excited State   4:      Singlet-A      3.1846 eV  389.32 nm  f=0.0003  <S**2>=0.000
     241 -> 247        0.67231
     241 -> 249       -0.13180

 Excited State   5:      Singlet-A      3.2447 eV  382.12 nm  f=0.0022  <S**2>=0.000
     242 -> 247        0.66369
     246 -> 248       -0.19231

 The electronic state is 1-A.
 Alpha  occ. eigenvalues --  -46.91285 -19.26602 -19.25683 -19.20482 -19.20266
 Alpha  occ. eigenvalues --  -19.19745 -19.19412 -14.41585 -14.40974 -14.38882
 Alpha  occ. eigenvalues --  -14.38856 -10.37373 -10.36649 -10.32784 -10.32518
 Alpha  occ. eigenvalues --  -10.29216 -10.28987 -10.28981 -10.28343 -10.28242
 Alpha  occ. eigenvalues --  -10.27783 -10.27607 -10.27305 -10.27173 -10.27089
 Alpha  occ. eigenvalues --  -10.26530 -10.26189 -10.26181 -10.25967 -10.25937
 Alpha  occ. eigenvalues --  -10.25654 -10.25473 -10.25340 -10.25268 -10.25135
 Alpha  occ. eigenvalues --  -10.24965 -10.24864 -10.24482 -10.24253 -10.23741
 Alpha  occ. eigenvalues --  -10.23725 -10.23687 -10.23582 -10.23547 -10.23470
 Alpha  occ. eigenvalues --  -10.23450 -10.23394 -10.23298 -10.23114 -10.23092
 Alpha  occ. eigenvalues --  -10.23089 -10.23056 -10.22992 -10.22982 -10.22976
 Alpha  occ. eigenvalues --  -10.22751 -10.22744 -10.22565 -10.22551 -10.22420
 Alpha  occ. eigenvalues --  -10.22379 -10.22131 -10.22096 -10.22024 -10.21890
 Alpha  occ. eigenvalues --  -10.21188  -3.13562  -1.86406  -1.85913  -1.85813
 Alpha  occ. eigenvalues --   -1.10223  -1.09874  -1.07611  -1.04895  -1.02242
 Alpha  occ. eigenvalues --   -1.01695  -0.99753  -0.98167  -0.97527  -0.96752
 Alpha  occ. eigenvalues --   -0.86122  -0.84238  -0.83815  -0.83539  -0.83266
 Alpha  occ. eigenvalues --   -0.82555  -0.82364  -0.81444  -0.81394  -0.81216
 Alpha  occ. eigenvalues --   -0.80552  -0.79787  -0.78503  -0.77866  -0.77501
 Alpha  occ. eigenvalues --   -0.76780  -0.76111  -0.75511  -0.75228  -0.74711
 Alpha  occ. eigenvalues --   -0.73935  -0.72591  -0.71860  -0.71491  -0.70451
 Alpha  occ. eigenvalues --   -0.69985  -0.69945  -0.69402  -0.68800  -0.68450
 Alpha  occ. eigenvalues --   -0.67689  -0.66634  -0.65894  -0.64779  -0.63526
 Alpha  occ. eigenvalues --   -0.62925  -0.62782  -0.61510  -0.61263  -0.60189
 Alpha  occ. eigenvalues --   -0.59410  -0.59146  -0.58794  -0.58513  -0.58170
 Alpha  occ. eigenvalues --   -0.57388  -0.56937  -0.56357  -0.55763  -0.54825
 Alpha  occ. eigenvalues --   -0.54703  -0.54216  -0.53450  -0.52769  -0.52354
 Alpha  occ. eigenvalues --   -0.52275  -0.51633  -0.50439  -0.50346  -0.50075
 Alpha  occ. eigenvalues --   -0.49781  -0.49289  -0.49149  -0.48584  -0.48400
 Alpha  occ. eigenvalues --   -0.48197  -0.48105  -0.47901  -0.47577  -0.47429
 Alpha  occ. eigenvalues --   -0.47163  -0.46979  -0.46568  -0.46527  -0.46183
 Alpha  occ. eigenvalues --   -0.46148  -0.45945  -0.45763  -0.45722  -0.45486
 Alpha  occ. eigenvalues --   -0.44961  -0.44824  -0.44689  -0.44582  -0.44189
 Alpha  occ. eigenvalues --   -0.44124  -0.43794  -0.43733  -0.43406  -0.43254
 Alpha  occ. eigenvalues --   -0.43040  -0.42942  -0.42715  -0.42553  -0.42420
 Alpha  occ. eigenvalues --   -0.42123  -0.41846  -0.41591  -0.41495  -0.41433
 Alpha  occ. eigenvalues --   -0.41332  -0.41201  -0.40884  -0.40693  -0.40646
 Alpha  occ. eigenvalues --   -0.40226  -0.40076  -0.39879  -0.39721  -0.39500
 Alpha  occ. eigenvalues --   -0.39442  -0.39323  -0.39085  -0.38907  -0.38856
 Alpha  occ. eigenvalues --   -0.38553  -0.38145  -0.38082  -0.38044  -0.37801
 Alpha  occ. eigenvalues --   -0.37653  -0.37601  -0.37363  -0.36912  -0.36737
 Alpha  occ. eigenvalues --   -0.36531  -0.36340  -0.36323  -0.36113  -0.35990
 Alpha  occ. eigenvalues --   -0.35943  -0.35808  -0.35335  -0.35132  -0.34751
 Alpha  occ. eigenvalues --   -0.34319  -0.34073  -0.33967  -0.33861  -0.33669
 Alpha  occ. eigenvalues --   -0.33402  -0.33229  -0.32811  -0.32672  -0.32239
 Alpha  occ. eigenvalues --   -0.31735  -0.31635  -0.31493  -0.31156  -0.31122
 Alpha  occ. eigenvalues --   -0.30903  -0.30350  -0.29752  -0.29536  -0.29269
 Alpha  occ. eigenvalues --   -0.29182  -0.29106  -0.28330  -0.26762  -0.26168
 Alpha  occ. eigenvalues --   -0.26014  -0.25619  -0.25107  -0.24379  -0.20865
 Alpha  occ. eigenvalues --   -0.18389
 Alpha virt. eigenvalues --   -0.10891  -0.04862  -0.03792  -0.01900  -0.00445
 Alpha virt. eigenvalues --   -0.00085   0.00239   0.00962   0.01631   0.03295
 Alpha virt. eigenvalues --    0.04352   0.04545   0.04709   0.05403   0.05597

 Mulliken charges:
               1
     1  Mg   0.998387
     2  C    0.022552
     3  C   -0.081572
     4  C   -0.067482
     5  C   -0.082072
     6  N   -0.355485
     7  C    0.046667
     8  C   -0.073137
     9  C   -0.151686
    10  C    0.117495
    11  C   -0.017167
    12  C    0.040629
    13  C   -0.041109
    14  C    0.233851
    15  O   -0.296855
    16  O   -0.372743
    17  N   -0.485746
    18  C    0.124991
    19  C   -0.162127
    20  C   -0.107236
    21  C    0.132633
    22  C    0.032650
    23  C    0.086187
    24  O   -0.238365
    25  C   -0.030491
    26  N   -0.393318
    27  C    0.064330
    28  C   -0.081441
    29  C   -0.087167
    30  C    0.054710
    31  C    0.039806
    32  C   -0.030567
    33  C   -0.057187
    34  N   -0.481912
    35  C    0.163773
    36  C   -0.170402
    37  C   -0.084910
    38  C    0.126485
    39  C    0.064452
    40  C    0.150643
    41  O   -0.151861
    42  C   -0.179068
    43  C    0.306033
    44  O   -0.255029
    45  O   -0.385492
    46  C    0.130974
    47  C    0.216726
    48  C   -0.122289
    49  C   -0.216325
    50  C    0.010128
    51  C    0.007832
    52  C   -0.052519
    53  C   -0.010463
    54  C   -0.219431
    55  C   -0.036806
    56  C   -0.066114
    57  C   -0.024825
    58  C   -0.002687
    59  C   -0.220675
    60  C    0.012578
    61  C   -0.021485
    62  C   -0.035574
    63  C   -0.008506
    64  C   -0.266907
    65  C   -0.003998
    66  C   -0.012354
    67  H   -0.001399
    68  H    0.026435
    69  H   -0.003766
    70  H    0.058527
    71  H    0.059766
    72  H    0.036355
    73  H    0.055836
    74  H    0.046701
    75  H    0.056626
    76  H    0.041716
    77  H    0.078296
    78  H    0.061798
    79  H    0.063423
    80  H    0.069419
    81  H    0.037476
    82  H    0.063291
    83  H    0.040724
    84  H    0.066606
    85  H    0.033727
    86  H    0.030746
    87  H    0.044199
    88  H    0.048941
    89  H    0.038525
    90  H    0.033868
    91  H    0.030628
    92  H    0.034753
    93  H    0.064305
    94  H    0.044306
    95  H    0.061667
    96  H    0.042353
    97  H    0.077902
    98  H    0.084201
    99  H    0.058739
   100  H    0.045432
   101  H    0.065155
   102  H    0.077850
   103  H    0.047036
   104  H    0.025274
   105  H    0.051556
   106  H    0.040018
   107  H    0.056498
   108  H    0.031948
   109  H    0.024880
   110  H    0.033745
   111  H    0.037645
   112  H    0.034863
   113  H    0.026363
   114  H    0.038205
   115  H    0.019157
   116  H    0.042954
   117  H    0.045699
   118  H    0.046738
   119  H    0.040446
   120  H    0.032168
   121  H    0.028678
   122  H    0.031373
   123  H    0.024864
   124  H    0.025014
   125  H    0.035888
   126  H    0.047467
   127  H    0.033365
   128  H    0.005591
   129  H    0.017546
   130  H    0.035616
   131  H    0.036545
   132  H    0.007483
   133  H    0.019503
   134  H    0.034118
   135  H    0.053473
   136  H    0.044787
   137  H    0.040078
   138  H    0.037759
   139  H    0.030076
   140  H    0.018527
 Sum of Mulliken charges =  -0.00000

 Dipole moment (field-independent basis, Debye):
    X=              3.6529    Y=              2.2029    Z=             -1.0704  Tot=              4.3980
 Quadrupole moment (field-independent basis, Debye-Ang):
   XX=           -368.6580   YY=           -406.7532   ZZ=           -408.7441
   XY=              2.6020   XZ=             15.2861   YZ=              2.6609

 Normal termination of Gaussian 16 at Fri Apr 29 05:02:13 2022.
