 Gaussian 16, Revision A.03,
 Gaussian 16:  ES64L-G16RevA.03 25-Dec-2016

 --------------------------------
 #p wB97XD/Def2SVP td=(nstates=5)
 --------------------------------

 --------------------------------------------------
 step_1_chromophore_13 TDDFT with wB97XD functional
 --------------------------------------------------
 Symbolic Z-matrix:
 Charge =  0 Multiplicity = 1

                         Standard orientation:
 ---------------------------------------------------------------------
 Center     Atomic      Atomic             Coordinates (Angstroms)
 Number     Number       Type             X           Y           Z
 ---------------------------------------------------------------------
      1         12           0       -5.923107    0.399239   -0.277388
      2          6           0       -3.837121   -2.370100    0.106732
      3          6           0       -3.344888    2.425206    0.292805
      4          6           0       -8.174701    2.798253    0.650058
      5          6           0       -8.600002   -1.763560   -0.818499
      6          7           0       -3.768054    0.058742   -0.008620
      7          6           0       -3.173378   -1.123737    0.092839
      8          6           0       -1.617841   -0.908781    0.154859
      9          6           0       -1.507991    0.625401    0.324990
     10          6           0       -2.956991    1.092335    0.223688
     11          6           0       -0.976310    1.087361    1.771517
     12          6           0       -0.808460   -1.422575   -1.121169
     13          6           0        0.463485   -2.103591   -0.747969
     14          6           0        1.764231   -1.677311   -1.410982
     15          8           0        1.775206   -0.857800   -2.368261
     16          8           0        2.914015   -2.298363   -0.905137
     17          7           0       -5.761418    2.346185    0.355422
     18          6           0       -4.584892    3.029891    0.512035
     19          6           0       -4.889116    4.461421    0.645116
     20          6           0       -6.305023    4.556094    0.748849
     21          6           0       -6.794638    3.172484    0.631789
     22          6           0       -3.786812    5.560100    0.778789
     23          6           0       -7.179954    5.818448    1.012974
     24          8           0       -8.403844    5.805490    1.082082
     25          6           0       -6.490953    7.121773    1.164219
     26          7           0       -8.005928    0.506508   -0.078448
     27          6           0       -8.757833    1.588605    0.388916
     28          6           0      -10.229925    1.146211    0.596652
     29          6           0      -10.394990   -0.037875   -0.453835
     30          6           0       -8.890900   -0.432556   -0.446413
     31          6           0      -10.562561    0.806919    2.065522
     32          6           0      -10.856268    0.328713   -1.835799
     33          6           0       -9.909921    0.923100   -2.836172
     34          7           0       -6.211256   -1.626801   -0.556254
     35          6           0       -7.346666   -2.384312   -0.728498
     36          6           0       -7.043398   -3.814239   -0.821698
     37          6           0       -5.643239   -3.888685   -0.389377
     38          6           0       -5.216496   -2.511978   -0.238193
     39          6           0       -7.990864   -4.883491   -1.019312
     40          6           0       -4.536197   -4.777684   -0.058541
     41          8           0       -4.455119   -5.945335    0.028927
     42          6           0       -3.278844   -3.795698    0.203946
     43          6           0       -2.503888   -4.100675    1.460923
     44          8           0       -2.706350   -3.590909    2.559021
     45          8           0       -1.467615   -4.977371    1.141244
     46          6           0       -0.559059   -5.384998    2.228197
     47          6           0        4.164609   -1.880866   -1.531865
     48          6           0        4.917040   -0.909286   -0.667323
     49          6           0        6.258344   -0.592589   -0.738898
     50          6           0        7.298030   -1.149514   -1.689851
     51          6           0        6.779561    0.636467    0.019286
     52          6           0        6.957251    1.886006   -0.881512
     53          6           0        8.329886    2.588775   -0.794606
     54          6           0        9.297127    2.366911   -2.007239
     55          6           0        8.662912    2.576667   -3.427697
     56          6           0       10.321445    1.155892   -1.857946
     57          6           0       11.785885    1.665804   -1.946616
     58          6           0       12.833286    0.524327   -1.713031
     59          6           0       14.023434    0.772107   -0.713706
     60          6           0       15.179916    1.512246   -1.448354
     61          6           0       14.429939   -0.460502    0.163012
     62          6           0       14.529579   -0.279743    1.698260
     63          6           0       13.378156   -0.987741    2.463030
     64          6           0       12.513365    0.043570    3.302183
     65          6           0       12.483411   -0.449768    4.791998
     66          6           0       11.150702    0.114876    2.738044
     67          1           0       -2.612888    3.235880    0.280075
     68          1           0       -8.833450    3.607392    0.973406
     69          1           0       -9.463869   -2.374516   -1.087181
     70          1           0       -1.176573   -1.354348    1.046754
     71          1           0       -0.849044    1.143136   -0.372009
     72          1           0        0.105796    1.191121    1.689092
     73          1           0       -1.127107    0.367622    2.575677
     74          1           0       -1.416528    2.060269    1.993179
     75          1           0       -0.548839   -0.602727   -1.791112
     76          1           0       -1.351105   -2.100148   -1.780511
     77          1           0        0.308294   -3.121921   -1.103320
     78          1           0        0.711534   -2.179050    0.310376
     79          1           0       -3.599438    5.659025    1.847629
     80          1           0       -4.082614    6.488191    0.289063
     81          1           0       -2.791583    5.229862    0.479300
     82          1           0       -5.560398    7.215715    1.723768
     83          1           0       -7.168883    7.843094    1.619843
     84          1           0       -6.438905    7.612764    0.192037
     85          1           0      -10.801490    2.007932    0.253099
     86          1           0      -11.057225   -0.823836   -0.091213
     87          1           0      -11.000626   -0.173376    2.253294
     88          1           0      -11.085817    1.606088    2.591009
     89          1           0       -9.645837    0.775791    2.654111
     90          1           0      -11.690578    1.028761   -1.858156
     91          1           0      -11.250862   -0.574653   -2.301132
     92          1           0       -9.590152    0.045918   -3.398384
     93          1           0       -9.008570    1.379993   -2.427030
     94          1           0      -10.450911    1.629481   -3.466647
     95          1           0       -7.473437   -5.627651   -1.625054
     96          1           0       -8.822217   -4.472504   -1.591526
     97          1           0       -8.276399   -5.315615   -0.060736
     98          1           0       -2.593722   -3.929383   -0.633226
     99          1           0       -1.184133   -5.760597    3.038775
    100          1           0       -0.006584   -4.528531    2.613747
    101          1           0        0.212127   -6.130727    2.034457
    102          1           0        4.080762   -1.439601   -2.525769
    103          1           0        4.791993   -2.765971   -1.637198
    104          1           0        4.201827   -0.340884   -0.072553
    105          1           0        8.109612   -0.440995   -1.856393
    106          1           0        6.711173   -1.391450   -2.575697
    107          1           0        7.735019   -2.107520   -1.409824
    108          1           0        7.700349    0.326768    0.512297
    109          1           0        6.163609    0.923672    0.871658
    110          1           0        6.170043    2.602330   -0.648662
    111          1           0        6.811109    1.601737   -1.923513
    112          1           0        8.828816    2.266862    0.119531
    113          1           0        8.137269    3.660874   -0.845480
    114          1           0        9.837674    3.312118   -1.953690
    115          1           0        8.640208    1.587308   -3.884742
    116          1           0        9.249971    3.187471   -4.113860
    117          1           0        7.615217    2.874088   -3.469436
    118          1           0       10.126387    0.458806   -2.672757
    119          1           0       10.069584    0.670404   -0.915877
    120          1           0       12.018007    2.464277   -1.240929
    121          1           0       11.775964    2.120067   -2.937689
    122          1           0       13.298989    0.283998   -2.668931
    123          1           0       12.242042   -0.312624   -1.342019
    124          1           0       13.630714    1.379914    0.100900
    125          1           0       15.488600    2.294780   -0.756012
    126          1           0       14.871916    1.863279   -2.433227
    127          1           0       16.024884    0.823657   -1.495884
    128          1           0       15.438655   -0.760871   -0.121380
    129          1           0       13.914606   -1.368085   -0.151993
    130          1           0       14.468346    0.799149    1.840629
    131          1           0       15.467263   -0.746004    1.999076
    132          1           0       13.738075   -1.699582    3.206856
    133          1           0       12.831776   -1.662856    1.803750
    134          1           0       12.910940    1.040474    3.113148
    135          1           0       12.073449   -1.459526    4.809994
    136          1           0       12.033272    0.401493    5.302177
    137          1           0       13.547359   -0.489766    5.023629
    138          1           0       11.093943   -0.090657    1.668796
    139          1           0       10.707902    1.082657    2.975070
    140          1           0       10.489365   -0.641906    3.158716
 ---------------------------------------------------------------------

 SCF Done:  E(RwB97XD) =  -3007.85999973     A.U. after   18 cycles

 Excitation energies and oscillator strengths:

 Excited State   1:      Singlet-A      1.6235 eV  763.70 nm  f=0.3707  <S**2>=0.000
     245 -> 248       -0.18268
     246 -> 247        0.68418
     245 <- 248       -0.11756
 This state for optimization and/or second-order correction.
 Total Energy, E(TD-HF/TD-DFT) =  -3007.80033864
 Copying the excited state density for this state as the 1-particle RhoCI density.

 Excited State   2:      Singlet-A      2.2001 eV  563.54 nm  f=0.1067  <S**2>=0.000
     245 -> 247        0.63101
     246 -> 248        0.30784

 Excited State   3:      Singlet-A      3.3947 eV  365.23 nm  f=0.0205  <S**2>=0.000
     243 -> 247        0.66038
     246 -> 248       -0.18161

 Excited State   4:      Singlet-A      3.5281 eV  351.41 nm  f=0.6371  <S**2>=0.000
     242 -> 247       -0.21789
     243 -> 247        0.18966
     245 -> 247       -0.27876
     246 -> 248        0.57806
     245 <- 247        0.11011

 Excited State   5:      Singlet-A      3.6840 eV  336.55 nm  f=0.1994  <S**2>=0.000
     241 -> 247        0.17017
     242 -> 247        0.60510
     245 -> 247       -0.14189
     246 -> 248        0.15938

 The electronic state is 1-A.
 Alpha  occ. eigenvalues --  -46.94209 -19.31179 -19.30334 -19.25140 -19.25084
 Alpha  occ. eigenvalues --  -19.24733 -19.24134 -14.46721 -14.45971 -14.43856
 Alpha  occ. eigenvalues --  -14.43741 -10.44163 -10.43593 -10.39545 -10.39532
 Alpha  occ. eigenvalues --  -10.35700 -10.35563 -10.35336 -10.34556 -10.34516
 Alpha  occ. eigenvalues --  -10.33980 -10.33838 -10.33743 -10.33483 -10.33331
 Alpha  occ. eigenvalues --  -10.32866 -10.32789 -10.32483 -10.32449 -10.32349
 Alpha  occ. eigenvalues --  -10.31852 -10.31703 -10.31660 -10.31560 -10.31494
 Alpha  occ. eigenvalues --  -10.31394 -10.31100 -10.30849 -10.30677 -10.30139
 Alpha  occ. eigenvalues --  -10.30102 -10.30057 -10.29977 -10.29929 -10.29885
 Alpha  occ. eigenvalues --  -10.29815 -10.29785 -10.29673 -10.29610 -10.29417
 Alpha  occ. eigenvalues --  -10.29373 -10.29359 -10.29344 -10.29332 -10.29329
 Alpha  occ. eigenvalues --  -10.29103 -10.29094 -10.28932 -10.28924 -10.28840
 Alpha  occ. eigenvalues --  -10.28793 -10.28562 -10.28435 -10.28351 -10.28293
 Alpha  occ. eigenvalues --  -10.27620  -3.20328  -1.93925  -1.93431  -1.93331
 Alpha  occ. eigenvalues --   -1.17625  -1.17381  -1.15209  -1.12297  -1.09708
 Alpha  occ. eigenvalues --   -1.09060  -1.07129  -1.05521  -1.04845  -1.04126
 Alpha  occ. eigenvalues --   -0.93836  -0.91930  -0.91472  -0.91201  -0.90834
 Alpha  occ. eigenvalues --   -0.90224  -0.89938  -0.89106  -0.89084  -0.88796
 Alpha  occ. eigenvalues --   -0.88162  -0.87401  -0.86165  -0.85478  -0.85138
 Alpha  occ. eigenvalues --   -0.84431  -0.83795  -0.83188  -0.82891  -0.82319
 Alpha  occ. eigenvalues --   -0.81606  -0.80222  -0.79490  -0.79102  -0.78110
 Alpha  occ. eigenvalues --   -0.77671  -0.77637  -0.76973  -0.76479  -0.76105
 Alpha  occ. eigenvalues --   -0.75300  -0.74199  -0.73411  -0.72403  -0.71068
 Alpha  occ. eigenvalues --   -0.70540  -0.70370  -0.69096  -0.68827  -0.67680
 Alpha  occ. eigenvalues --   -0.67056  -0.66586  -0.66233  -0.65988  -0.65842
 Alpha  occ. eigenvalues --   -0.64844  -0.64563  -0.63799  -0.63368  -0.62374
 Alpha  occ. eigenvalues --   -0.62088  -0.61670  -0.60881  -0.60120  -0.59861
 Alpha  occ. eigenvalues --   -0.59725  -0.59206  -0.57880  -0.57737  -0.57475
 Alpha  occ. eigenvalues --   -0.57263  -0.56715  -0.56549  -0.56037  -0.55829
 Alpha  occ. eigenvalues --   -0.55643  -0.55470  -0.55306  -0.54959  -0.54813
 Alpha  occ. eigenvalues --   -0.54583  -0.54344  -0.53992  -0.53911  -0.53617
 Alpha  occ. eigenvalues --   -0.53545  -0.53357  -0.53194  -0.53123  -0.52859
 Alpha  occ. eigenvalues --   -0.52313  -0.52155  -0.52079  -0.51951  -0.51536
 Alpha  occ. eigenvalues --   -0.51442  -0.51081  -0.51006  -0.50741  -0.50511
 Alpha  occ. eigenvalues --   -0.50322  -0.50192  -0.50029  -0.49807  -0.49687
 Alpha  occ. eigenvalues --   -0.49413  -0.49106  -0.48857  -0.48739  -0.48667
 Alpha  occ. eigenvalues --   -0.48607  -0.48452  -0.48049  -0.47965  -0.47891
 Alpha  occ. eigenvalues --   -0.47446  -0.47257  -0.47182  -0.46921  -0.46660
 Alpha  occ. eigenvalues --   -0.46546  -0.46479  -0.46213  -0.46024  -0.46009
 Alpha  occ. eigenvalues --   -0.45628  -0.45293  -0.45253  -0.45155  -0.44917
 Alpha  occ. eigenvalues --   -0.44731  -0.44661  -0.44469  -0.43956  -0.43840
 Alpha  occ. eigenvalues --   -0.43597  -0.43543  -0.43373  -0.43253  -0.43105
 Alpha  occ. eigenvalues --   -0.43005  -0.42931  -0.42312  -0.42077  -0.41812
 Alpha  occ. eigenvalues --   -0.41344  -0.41139  -0.40975  -0.40929  -0.40691
 Alpha  occ. eigenvalues --   -0.40388  -0.40283  -0.39755  -0.39581  -0.39234
 Alpha  occ. eigenvalues --   -0.38766  -0.38671  -0.38653  -0.38114  -0.38033
 Alpha  occ. eigenvalues --   -0.37902  -0.37264  -0.36679  -0.36452  -0.36297
 Alpha  occ. eigenvalues --   -0.36230  -0.36076  -0.35019  -0.33364  -0.33239
 Alpha  occ. eigenvalues --   -0.33100  -0.32137  -0.31715  -0.31124  -0.25859
 Alpha  occ. eigenvalues --   -0.22534
 Alpha virt. eigenvalues --   -0.06761   0.00585   0.02529   0.04578   0.06010
 Alpha virt. eigenvalues --    0.06435   0.06772   0.07651   0.08323   0.09824
 Alpha virt. eigenvalues --    0.10966   0.11001   0.11506   0.12172   0.12303

 Mulliken charges:
               1
     1  Mg   0.985127
     2  C    0.015695
     3  C   -0.089498
     4  C   -0.082567
     5  C   -0.105899
     6  N   -0.316787
     7  C    0.014560
     8  C   -0.046279
     9  C   -0.130349
    10  C    0.104327
    11  C   -0.004402
    12  C    0.047778
    13  C   -0.025869
    14  C    0.224964
    15  O   -0.294996
    16  O   -0.372547
    17  N   -0.453244
    18  C    0.111549
    19  C   -0.155007
    20  C   -0.103409
    21  C    0.124044
    22  C    0.045568
    23  C    0.084859
    24  O   -0.233084
    25  C   -0.023439
    26  N   -0.364530
    27  C    0.051643
    28  C   -0.052976
    29  C   -0.060145
    30  C    0.046588
    31  C    0.044673
    32  C   -0.025402
    33  C   -0.034944
    34  N   -0.447896
    35  C    0.163614
    36  C   -0.168839
    37  C   -0.084320
    38  C    0.116864
    39  C    0.076959
    40  C    0.137670
    41  O   -0.142414
    42  C   -0.138927
    43  C    0.283115
    44  O   -0.248474
    45  O   -0.384535
    46  C    0.146180
    47  C    0.231552
    48  C   -0.133675
    49  C   -0.201081
    50  C    0.037338
    51  C    0.026483
    52  C   -0.033870
    53  C    0.006484
    54  C   -0.193556
    55  C   -0.024946
    56  C   -0.043045
    57  C   -0.007605
    58  C    0.016563
    59  C   -0.188022
    60  C    0.025966
    61  C   -0.013662
    62  C   -0.011454
    63  C    0.001472
    64  C   -0.236628
    65  C    0.012964
    66  C    0.001069
    67  H   -0.011636
    68  H    0.021588
    69  H   -0.009808
    70  H    0.042593
    71  H    0.051609
    72  H    0.030009
    73  H    0.050815
    74  H    0.038670
    75  H    0.049273
    76  H    0.034653
    77  H    0.072560
    78  H    0.056406
    79  H    0.057467
    80  H    0.063742
    81  H    0.033602
    82  H    0.059340
    83  H    0.038554
    84  H    0.062793
    85  H    0.024375
    86  H    0.023758
    87  H    0.039091
    88  H    0.044408
    89  H    0.032039
    90  H    0.026597
    91  H    0.023389
    92  H    0.027123
    93  H    0.051838
    94  H    0.040161
    95  H    0.057314
    96  H    0.036715
    97  H    0.074404
    98  H    0.073911
    99  H    0.054525
   100  H    0.041228
   101  H    0.062527
   102  H    0.073263
   103  H    0.042087
   104  H    0.021583
   105  H    0.028921
   106  H    0.033382
   107  H    0.052430
   108  H    0.021512
   109  H    0.019122
   110  H    0.028110
   111  H    0.021415
   112  H    0.024945
   113  H    0.019294
   114  H    0.024850
   115  H    0.010276
   116  H    0.038642
   117  H    0.040219
   118  H    0.037689
   119  H    0.024790
   120  H    0.022728
   121  H    0.019097
   122  H    0.022684
   123  H    0.013007
   124  H    0.005321
   125  H    0.030340
   126  H    0.041770
   127  H    0.026558
   128  H   -0.003689
   129  H    0.008903
   130  H    0.023534
   131  H    0.030586
   132  H   -0.001296
   133  H    0.010656
   134  H    0.022870
   135  H    0.046994
   136  H    0.039306
   137  H    0.031861
   138  H    0.026980
   139  H    0.024577
   140  H    0.011696
 Sum of Mulliken charges =  -0.00000

 Dipole moment (field-independent basis, Debye):
    X=              3.7304    Y=              1.9996    Z=             -1.0722  Tot=              4.3662
 Quadrupole moment (field-independent basis, Debye-Ang):
   XX=           -370.1444   YY=           -404.8802   ZZ=           -408.3902
   XY=              3.4867   XZ=             15.5875   YZ=              2.7055

 Normal termination of Gaussian 16 at Fri Apr 29 05:30:08 2022.
