 Gaussian 16, Revision A.03,
 Gaussian 16:  ES64L-G16RevA.03 25-Dec-2016

 --------------------
 #p ZINDO=(nstates=5)
 --------------------

 ---------------------------
 step_1_chromophore_13 ZINDO
 ---------------------------
 Symbolic Z-matrix:
 Charge =  0 Multiplicity = 1

                         Standard orientation:
 ---------------------------------------------------------------------
 Center     Atomic      Atomic             Coordinates (Angstroms)
 Number     Number       Type             X           Y           Z
 ---------------------------------------------------------------------
      1         12           0       -5.923107    0.399239   -0.277388
      2          6           0       -3.837121   -2.370100    0.106732
      3          6           0       -3.344888    2.425206    0.292805
      4          6           0       -8.174701    2.798253    0.650058
      5          6           0       -8.600002   -1.763560   -0.818499
      6          7           0       -3.768054    0.058742   -0.008620
      7          6           0       -3.173378   -1.123737    0.092839
      8          6           0       -1.617841   -0.908781    0.154859
      9          6           0       -1.507991    0.625401    0.324990
     10          6           0       -2.956991    1.092335    0.223688
     11          6           0       -0.976310    1.087361    1.771517
     12          6           0       -0.808460   -1.422575   -1.121169
     13          6           0        0.463485   -2.103591   -0.747969
     14          6           0        1.764231   -1.677311   -1.410982
     15          8           0        1.775206   -0.857800   -2.368261
     16          8           0        2.914015   -2.298363   -0.905137
     17          7           0       -5.761418    2.346185    0.355422
     18          6           0       -4.584892    3.029891    0.512035
     19          6           0       -4.889116    4.461421    0.645116
     20          6           0       -6.305023    4.556094    0.748849
     21          6           0       -6.794638    3.172484    0.631789
     22          6           0       -3.786812    5.560100    0.778789
     23          6           0       -7.179954    5.818448    1.012974
     24          8           0       -8.403844    5.805490    1.082082
     25          6           0       -6.490953    7.121773    1.164219
     26          7           0       -8.005928    0.506508   -0.078448
     27          6           0       -8.757833    1.588605    0.388916
     28          6           0      -10.229925    1.146211    0.596652
     29          6           0      -10.394990   -0.037875   -0.453835
     30          6           0       -8.890900   -0.432556   -0.446413
     31          6           0      -10.562561    0.806919    2.065522
     32          6           0      -10.856268    0.328713   -1.835799
     33          6           0       -9.909921    0.923100   -2.836172
     34          7           0       -6.211256   -1.626801   -0.556254
     35          6           0       -7.346666   -2.384312   -0.728498
     36          6           0       -7.043398   -3.814239   -0.821698
     37          6           0       -5.643239   -3.888685   -0.389377
     38          6           0       -5.216496   -2.511978   -0.238193
     39          6           0       -7.990864   -4.883491   -1.019312
     40          6           0       -4.536197   -4.777684   -0.058541
     41          8           0       -4.455119   -5.945335    0.028927
     42          6           0       -3.278844   -3.795698    0.203946
     43          6           0       -2.503888   -4.100675    1.460923
     44          8           0       -2.706350   -3.590909    2.559021
     45          8           0       -1.467615   -4.977371    1.141244
     46          6           0       -0.559059   -5.384998    2.228197
     47          6           0        4.164609   -1.880866   -1.531865
     48          6           0        4.917040   -0.909286   -0.667323
     49          6           0        6.258344   -0.592589   -0.738898
     50          6           0        7.298030   -1.149514   -1.689851
     51          6           0        6.779561    0.636467    0.019286
     52          6           0        6.957251    1.886006   -0.881512
     53          6           0        8.329886    2.588775   -0.794606
     54          6           0        9.297127    2.366911   -2.007239
     55          6           0        8.662912    2.576667   -3.427697
     56          6           0       10.321445    1.155892   -1.857946
     57          6           0       11.785885    1.665804   -1.946616
     58          6           0       12.833286    0.524327   -1.713031
     59          6           0       14.023434    0.772107   -0.713706
     60          6           0       15.179916    1.512246   -1.448354
     61          6           0       14.429939   -0.460502    0.163012
     62          6           0       14.529579   -0.279743    1.698260
     63          6           0       13.378156   -0.987741    2.463030
     64          6           0       12.513365    0.043570    3.302183
     65          6           0       12.483411   -0.449768    4.791998
     66          6           0       11.150702    0.114876    2.738044
     67          1           0       -2.612888    3.235880    0.280075
     68          1           0       -8.833450    3.607392    0.973406
     69          1           0       -9.463869   -2.374516   -1.087181
     70          1           0       -1.176573   -1.354348    1.046754
     71          1           0       -0.849044    1.143136   -0.372009
     72          1           0        0.105796    1.191121    1.689092
     73          1           0       -1.127107    0.367622    2.575677
     74          1           0       -1.416528    2.060269    1.993179
     75          1           0       -0.548839   -0.602727   -1.791112
     76          1           0       -1.351105   -2.100148   -1.780511
     77          1           0        0.308294   -3.121921   -1.103320
     78          1           0        0.711534   -2.179050    0.310376
     79          1           0       -3.599438    5.659025    1.847629
     80          1           0       -4.082614    6.488191    0.289063
     81          1           0       -2.791583    5.229862    0.479300
     82          1           0       -5.560398    7.215715    1.723768
     83          1           0       -7.168883    7.843094    1.619843
     84          1           0       -6.438905    7.612764    0.192037
     85          1           0      -10.801490    2.007932    0.253099
     86          1           0      -11.057225   -0.823836   -0.091213
     87          1           0      -11.000626   -0.173376    2.253294
     88          1           0      -11.085817    1.606088    2.591009
     89          1           0       -9.645837    0.775791    2.654111
     90          1           0      -11.690578    1.028761   -1.858156
     91          1           0      -11.250862   -0.574653   -2.301132
     92          1           0       -9.590152    0.045918   -3.398384
     93          1           0       -9.008570    1.379993   -2.427030
     94          1           0      -10.450911    1.629481   -3.466647
     95          1           0       -7.473437   -5.627651   -1.625054
     96          1           0       -8.822217   -4.472504   -1.591526
     97          1           0       -8.276399   -5.315615   -0.060736
     98          1           0       -2.593722   -3.929383   -0.633226
     99          1           0       -1.184133   -5.760597    3.038775
    100          1           0       -0.006584   -4.528531    2.613747
    101          1           0        0.212127   -6.130727    2.034457
    102          1           0        4.080762   -1.439601   -2.525769
    103          1           0        4.791993   -2.765971   -1.637198
    104          1           0        4.201827   -0.340884   -0.072553
    105          1           0        8.109612   -0.440995   -1.856393
    106          1           0        6.711173   -1.391450   -2.575697
    107          1           0        7.735019   -2.107520   -1.409824
    108          1           0        7.700349    0.326768    0.512297
    109          1           0        6.163609    0.923672    0.871658
    110          1           0        6.170043    2.602330   -0.648662
    111          1           0        6.811109    1.601737   -1.923513
    112          1           0        8.828816    2.266862    0.119531
    113          1           0        8.137269    3.660874   -0.845480
    114          1           0        9.837674    3.312118   -1.953690
    115          1           0        8.640208    1.587308   -3.884742
    116          1           0        9.249971    3.187471   -4.113860
    117          1           0        7.615217    2.874088   -3.469436
    118          1           0       10.126387    0.458806   -2.672757
    119          1           0       10.069584    0.670404   -0.915877
    120          1           0       12.018007    2.464277   -1.240929
    121          1           0       11.775964    2.120067   -2.937689
    122          1           0       13.298989    0.283998   -2.668931
    123          1           0       12.242042   -0.312624   -1.342019
    124          1           0       13.630714    1.379914    0.100900
    125          1           0       15.488600    2.294780   -0.756012
    126          1           0       14.871916    1.863279   -2.433227
    127          1           0       16.024884    0.823657   -1.495884
    128          1           0       15.438655   -0.760871   -0.121380
    129          1           0       13.914606   -1.368085   -0.151993
    130          1           0       14.468346    0.799149    1.840629
    131          1           0       15.467263   -0.746004    1.999076
    132          1           0       13.738075   -1.699582    3.206856
    133          1           0       12.831776   -1.662856    1.803750
    134          1           0       12.910940    1.040474    3.113148
    135          1           0       12.073449   -1.459526    4.809994
    136          1           0       12.033272    0.401493    5.302177
    137          1           0       13.547359   -0.489766    5.023629
    138          1           0       11.093943   -0.090657    1.668796
    139          1           0       10.707902    1.082657    2.975070
    140          1           0       10.489365   -0.641906    3.158716
 ---------------------------------------------------------------------

 SCF Done:  E(RZINDO/S) =  -474.136666482     A.U. after   20 cycles

 Excitation energies and oscillator strengths:

 Excited State   1:      Singlet-A      1.2261 eV 1011.21 nm  f=0.6002  <S**2>=0.000
     175 ->178        -0.19049
     176 ->177         0.66241
 This state for optimization and/or second-order correction.
 Total Energy, E(CIS/TDA) =  -474.091608273
 Copying the excited state density for this state as the 1-particle RhoCI density.

 Excited State   2:      Singlet-A      1.9285 eV  642.90 nm  f=0.0280  <S**2>=0.000
     175 ->177         0.52947
     176 ->178         0.44306

 Excited State   3:      Singlet-A      2.9375 eV  422.07 nm  f=0.6684  <S**2>=0.000
     175 ->177        -0.31841
     176 ->178         0.44329
     176 ->179         0.39127

 Excited State   4:      Singlet-A      3.0742 eV  403.31 nm  f=0.5242  <S**2>=0.000
     175 ->177         0.26673
     176 ->178        -0.26491
     176 ->179         0.48152
     176 ->181         0.10921
     176 ->183         0.11912

 Excited State   5:      Singlet-A      3.0917 eV  401.02 nm  f=0.0516  <S**2>=0.000
     169 ->177         0.22652
     169 ->179         0.34861
     169 ->181         0.26266
     169 ->182         0.29741
     169 ->186         0.20092
     169 ->188         0.17264
     176 ->179        -0.16385

 The electronic state is 1-A.
 Alpha  occ. eigenvalues --   -1.83251  -1.81584  -1.80284  -1.71504  -1.70790
 Alpha  occ. eigenvalues --   -1.69701  -1.63662  -1.61084  -1.59703  -1.58359
 Alpha  occ. eigenvalues --   -1.54714  -1.52235  -1.49249  -1.48205  -1.46791
 Alpha  occ. eigenvalues --   -1.44224  -1.41875  -1.38889  -1.38609  -1.38324
 Alpha  occ. eigenvalues --   -1.35747  -1.35280  -1.32530  -1.31949  -1.29723
 Alpha  occ. eigenvalues --   -1.26673  -1.23730  -1.21468  -1.20350  -1.18358
 Alpha  occ. eigenvalues --   -1.17463  -1.16373  -1.14985  -1.14498  -1.13823
 Alpha  occ. eigenvalues --   -1.11941  -1.10689  -1.10128  -1.05222  -1.03800
 Alpha  occ. eigenvalues --   -1.03091  -1.00809  -0.99650  -0.97523  -0.97309
 Alpha  occ. eigenvalues --   -0.96507  -0.94793  -0.93946  -0.93195  -0.91994
 Alpha  occ. eigenvalues --   -0.91014  -0.89564  -0.87800  -0.86786  -0.85998
 Alpha  occ. eigenvalues --   -0.84491  -0.83862  -0.82272  -0.81696  -0.80915
 Alpha  occ. eigenvalues --   -0.80179  -0.78957  -0.77274  -0.76741  -0.76402
 Alpha  occ. eigenvalues --   -0.75569  -0.75005  -0.74643  -0.74238  -0.73588
 Alpha  occ. eigenvalues --   -0.72860  -0.72403  -0.72141  -0.71494  -0.70938
 Alpha  occ. eigenvalues --   -0.70512  -0.70055  -0.69177  -0.68845  -0.68431
 Alpha  occ. eigenvalues --   -0.67678  -0.66716  -0.65998  -0.65833  -0.65058
 Alpha  occ. eigenvalues --   -0.64835  -0.64791  -0.64551  -0.64052  -0.63701
 Alpha  occ. eigenvalues --   -0.63647  -0.62874  -0.62359  -0.62017  -0.61833
 Alpha  occ. eigenvalues --   -0.61366  -0.60940  -0.60416  -0.60054  -0.59846
 Alpha  occ. eigenvalues --   -0.59554  -0.59348  -0.58913  -0.58725  -0.58502
 Alpha  occ. eigenvalues --   -0.57841  -0.57521  -0.57311  -0.57048  -0.56741
 Alpha  occ. eigenvalues --   -0.56419  -0.55752  -0.55240  -0.54983  -0.54572
 Alpha  occ. eigenvalues --   -0.53871  -0.53571  -0.53379  -0.53182  -0.52459
 Alpha  occ. eigenvalues --   -0.52150  -0.51884  -0.51705  -0.51468  -0.51290
 Alpha  occ. eigenvalues --   -0.50798  -0.50693  -0.50608  -0.50432  -0.50169
 Alpha  occ. eigenvalues --   -0.49999  -0.49626  -0.49556  -0.49406  -0.48982
 Alpha  occ. eigenvalues --   -0.48940  -0.48585  -0.48245  -0.48189  -0.47973
 Alpha  occ. eigenvalues --   -0.47800  -0.47680  -0.47299  -0.47197  -0.46826
 Alpha  occ. eigenvalues --   -0.46563  -0.46037  -0.45739  -0.45552  -0.45252
 Alpha  occ. eigenvalues --   -0.44410  -0.44360  -0.44216  -0.44082  -0.43698
 Alpha  occ. eigenvalues --   -0.43407  -0.42987  -0.42605  -0.42401  -0.42247
 Alpha  occ. eigenvalues --   -0.41861  -0.41576  -0.41399  -0.39525  -0.39007
 Alpha  occ. eigenvalues --   -0.38370  -0.37092  -0.35621  -0.34941  -0.34324
 Alpha  occ. eigenvalues --   -0.32783  -0.32441  -0.32119  -0.31470  -0.26503
 Alpha  occ. eigenvalues --   -0.21318
 Alpha virt. eigenvalues --   -0.08225  -0.01791  -0.00078   0.01104   0.01413
 Alpha virt. eigenvalues --    0.01851   0.02450   0.03172   0.04138   0.05060
 Alpha virt. eigenvalues --    0.06219   0.06553   0.07581   0.07662   0.08280

 Mulliken charges:
               1
     1  Mg   0.427958
     2  C   -0.051308
     3  C   -0.064591
     4  C   -0.064343
     5  C   -0.091535
     6  N   -0.252920
     7  C    0.133754
     8  C    0.000761
     9  C   -0.002960
    10  C    0.122456
    11  C   -0.060333
    12  C   -0.021615
    13  C    0.013127
    14  C    0.459349
    15  O   -0.534725
    16  O   -0.265893
    17  N   -0.310769
    18  C    0.082536
    19  C   -0.004676
    20  C   -0.062707
    21  C    0.136704
    22  C   -0.048419
    23  C    0.338162
    24  O   -0.521454
    25  C   -0.036310
    26  N   -0.285420
    27  C    0.117036
    28  C    0.013178
    29  C    0.005540
    30  C    0.159834
    31  C   -0.048808
    32  C   -0.018262
    33  C   -0.053915
    34  N   -0.330913
    35  C    0.119948
    36  C    0.035261
    37  C   -0.075952
    38  C    0.111672
    39  C   -0.029410
    40  C    0.347670
    41  O   -0.488839
    42  C    0.050006
    43  C    0.486584
    44  O   -0.511008
    45  O   -0.271323
    46  C    0.072980
    47  C    0.107608
    48  C   -0.088690
    49  C   -0.013296
    50  C   -0.044820
    51  C   -0.021862
    52  C   -0.031022
    53  C   -0.032159
    54  C   -0.028469
    55  C   -0.059412
    56  C   -0.029680
    57  C   -0.035481
    58  C   -0.039014
    59  C   -0.019934
    60  C   -0.056627
    61  C   -0.042586
    62  C   -0.034365
    63  C   -0.046400
    64  C   -0.018874
    65  C   -0.060541
    66  C   -0.052025
    67  H    0.021135
    68  H    0.043399
    69  H    0.023180
    70  H    0.037396
    71  H    0.040161
    72  H    0.010741
    73  H    0.030232
    74  H    0.026940
    75  H    0.037833
    76  H    0.024634
    77  H    0.042434
    78  H    0.042989
    79  H    0.029172
    80  H    0.035175
    81  H    0.024662
    82  H    0.036781
    83  H    0.025931
    84  H    0.043589
    85  H    0.024455
    86  H    0.029458
    87  H    0.025770
    88  H    0.026529
    89  H    0.017546
    90  H    0.014257
    91  H    0.010802
    92  H    0.014897
    93  H    0.031241
    94  H    0.020505
    95  H    0.033717
    96  H    0.025440
    97  H    0.046978
    98  H    0.050631
    99  H    0.043130
   100  H    0.033675
   101  H    0.042381
   102  H    0.063201
   103  H    0.031908
   104  H    0.036116
   105  H    0.035283
   106  H    0.022694
   107  H    0.028947
   108  H    0.016984
   109  H    0.014125
   110  H    0.018899
   111  H    0.023583
   112  H    0.024378
   113  H    0.017145
   114  H    0.006199
   115  H    0.006313
   116  H    0.022185
   117  H    0.024955
   118  H    0.022972
   119  H    0.022476
   120  H    0.022126
   121  H    0.021546
   122  H    0.019031
   123  H    0.016106
   124  H    0.015405
   125  H    0.018264
   126  H    0.030569
   127  H    0.021082
   128  H    0.002115
   129  H    0.019769
   130  H    0.030520
   131  H    0.023460
   132  H    0.009414
   133  H    0.023083
   134  H    0.027613
   135  H    0.039962
   136  H    0.027883
   137  H    0.013594
   138  H    0.014240
   139  H    0.010169
   140  H    0.009426
 Sum of Mulliken charges =  -0.00000

 Dipole moment (field-independent basis, Debye):
    X=              4.7308    Y=              1.2024    Z=             -1.4747  Tot=              5.0991
 N-N= 4.266444971044D+03 E-N= 0.000000000000D+00  KE=-9.207256544917D+03
 Leave Link  601 at Fri Apr 29 05:41:49 2022, MaxMem=  6710886400 cpu:               0.8 elap:               0.0
 (Enter /sw/apps/gaussian-16.0/g16/l9999.exe)
 1\1\GINC-BP1-COMPUTE103\SP\RZINDO CIS\STO-3G\C55H74Mg1N4O6\OF15641\29-
 Apr-2022\0\\#p ZINDO=(nstates=5)\\step_1_chromophore_13 ZINDO\\0,1\Mg,
 0,46.269,25.137,28.87\C,0,47.264,27.261,31.452\C,0,45.068,22.98,31.102
 \C,0,46.593,22.696,26.499\C,0,47.586,27.403,26.575\N,0,46.028,25.204,3
 1.054\C,0,46.486,26.155,31.859\C,0,45.989,25.868,33.322\C,0,45.393,24.
 446,33.19\C,0,45.512,24.155,31.697\C,0,46.24,23.308,33.949\C,0,44.921,
 26.907,33.894\C,0,45.18,27.258,35.319\C,0,44.051,27.156,36.333\O,0,42.

 Normal termination of Gaussian 16 at Fri Apr 29 05:41:50 2022.
