 Gaussian 16, Revision A.03,
 Gaussian 16:  ES64L-G16RevA.03 25-Dec-2016

 ------------------------------
 #p blyp/Def2SVP td=(nstates=5)
 ------------------------------

 ---------------------------------------------------
 step_1651_chromophore_14 TDDFT with blyp functional
 ---------------------------------------------------
 Symbolic Z-matrix:
 Charge =  0 Multiplicity = 1

                         Standard orientation:
 ---------------------------------------------------------------------
 Center     Atomic      Atomic             Coordinates (Angstroms)
 Number     Number       Type             X           Y           Z
 ---------------------------------------------------------------------
      1         12           0        5.223362    0.914259   -0.098051
      2          6           0        5.013793   -2.439903    0.469889
      3          6           0        4.380663    0.390088   -3.376375
      4          6           0        4.941396    4.255107   -0.407621
      5          6           0        5.573809    1.410359    3.445179
      6          7           0        4.868383   -0.790817   -1.273450
      7          6           0        4.813887   -2.077604   -0.882996
      8          6           0        4.385356   -3.061019   -2.036128
      9          6           0        4.710141   -2.169237   -3.286069
     10          6           0        4.630487   -0.748595   -2.623816
     11          6           0        6.101226   -2.378356   -3.895685
     12          6           0        2.930760   -3.562247   -2.056350
     13          6           0        1.909026   -2.681680   -1.316485
     14          6           0        0.472249   -3.137328   -1.520539
     15          8           0        0.161044   -4.168967   -2.136599
     16          8           0       -0.455710   -2.343322   -0.899710
     17          7           0        4.728246    2.132582   -1.641214
     18          6           0        4.411007    1.727729   -2.888357
     19          6           0        4.156554    2.829397   -3.670370
     20          6           0        4.359233    4.033132   -2.896322
     21          6           0        4.681303    3.533868   -1.573649
     22          6           0        3.688728    2.682899   -5.060033
     23          6           0        4.100677    5.455641   -3.347637
     24          8           0        3.685476    5.696764   -4.496381
     25          6           0        4.313088    6.660224   -2.441636
     26          7           0        5.011554    2.630318    1.409696
     27          6           0        5.074487    3.890129    0.970435
     28          6           0        5.337958    4.795982    2.170994
     29          6           0        5.442759    3.964852    3.456775
     30          6           0        5.349314    2.596313    2.734653
     31          6           0        6.624058    5.656645    1.926422
     32          6           0        4.186143    4.080439    4.412338
     33          6           0        4.335766    3.853370    5.909256
     34          7           0        5.313387   -0.264154    1.647558
     35          6           0        5.544114    0.018743    2.993110
     36          6           0        5.867941   -1.214486    3.632137
     37          6           0        5.441146   -2.243210    2.771462
     38          6           0        5.303775   -1.597050    1.507113
     39          6           0        6.182284   -1.208086    5.104030
     40          6           0        5.275682   -3.651642    2.642876
     41          8           0        5.287758   -4.596412    3.393737
     42          6           0        5.040747   -3.776616    1.106148
     43          6           0        6.114921   -4.706654    0.632270
     44          8           0        5.982178   -5.883654    0.403573
     45          8           0        7.280466   -4.044553    0.412538
     46          6           0        8.401830   -4.687482   -0.293787
     47          6           0       -1.862197   -2.875292   -0.975945
     48          6           0       -2.717928   -1.659537   -0.556989
     49          6           0       -3.558746   -0.926783   -1.306982
     50          6           0       -3.472389   -0.973950   -2.753030
     51          6           0       -4.538233    0.176555   -0.735148
     52          6           0       -6.022154   -0.166753   -0.732064
     53          6           0       -6.655396   -0.456358    0.673741
     54          6           0       -8.153827   -0.164512    0.704107
     55          6           0       -8.649587    0.306252    2.085613
     56          6           0       -9.038369   -1.438181    0.328093
     57          6           0      -10.012361   -1.270615   -0.758143
     58          6           0      -11.429686   -1.884403   -0.275384
     59          6           0      -12.114385   -0.830769    0.622016
     60          6           0      -12.307731   -1.352287    2.069034
     61          6           0      -13.493921   -0.427508    0.030862
     62          6           0      -14.080868    0.913043    0.784160
     63          6           0      -15.198866    1.543563   -0.171678
     64          6           0      -16.522574    1.768742    0.580115
     65          6           0      -17.257242    0.439107    0.790909
     66          6           0      -17.459277    2.825272   -0.088172
     67          1           0        4.129271    0.108854   -4.400542
     68          1           0        4.937502    5.345390   -0.457317
     69          1           0        5.931487    1.711872    4.431640
     70          1           0        5.037668   -3.934568   -2.048309
     71          1           0        3.893319   -2.201625   -4.006188
     72          1           0        6.486194   -1.361584   -3.972881
     73          1           0        6.047186   -2.875559   -4.864531
     74          1           0        6.898013   -2.869431   -3.337880
     75          1           0        2.860583   -4.557764   -1.619400
     76          1           0        2.593515   -3.572775   -3.093199
     77          1           0        1.851241   -1.603351   -1.460127
     78          1           0        2.305271   -2.818532   -0.310769
     79          1           0        2.758678    3.240610   -5.172079
     80          1           0        3.352294    1.700205   -5.388453
     81          1           0        4.427839    3.057251   -5.769356
     82          1           0        5.255249    6.718082   -1.896567
     83          1           0        3.502134    6.757545   -1.719037
     84          1           0        4.401083    7.558017   -3.053038
     85          1           0        4.497504    5.478651    2.295964
     86          1           0        6.377940    4.115938    3.996294
     87          1           0        7.379246    5.327288    2.639749
     88          1           0        6.426100    6.723146    2.039168
     89          1           0        7.122269    5.597394    0.958949
     90          1           0        3.466122    3.338438    4.066416
     91          1           0        3.767064    5.064019    4.199787
     92          1           0        5.392769    3.680447    6.109772
     93          1           0        3.724500    2.984946    6.153475
     94          1           0        4.032630    4.682961    6.547595
     95          1           0        5.883637   -2.195438    5.458454
     96          1           0        5.553718   -0.524036    5.673188
     97          1           0        7.264749   -1.080309    5.136047
     98          1           0        4.099720   -4.296919    0.928047
     99          1           0        9.122194   -4.726632    0.522733
    100          1           0        8.823836   -3.990581   -1.018221
    101          1           0        8.184278   -5.689011   -0.665600
    102          1           0       -1.974106   -3.663887   -0.231867
    103          1           0       -2.127715   -3.325336   -1.932219
    104          1           0       -2.735134   -1.412300    0.503833
    105          1           0       -3.550853    0.026083   -3.179426
    106          1           0       -4.374713   -1.534531   -2.994255
    107          1           0       -2.673006   -1.620729   -3.116486
    108          1           0       -4.363210    1.086359   -1.309727
    109          1           0       -4.302072    0.381282    0.309536
    110          1           0       -5.950257   -1.136549   -1.222447
    111          1           0       -6.709997    0.422481   -1.339489
    112          1           0       -6.133622    0.140396    1.422386
    113          1           0       -6.519913   -1.533262    0.770075
    114          1           0       -8.446221    0.545713   -0.069740
    115          1           0       -8.228442    1.303866    2.208717
    116          1           0       -8.244694   -0.244593    2.934525
    117          1           0       -9.713407    0.498466    1.946565
    118          1           0       -9.458054   -1.903417    1.220396
    119          1           0       -8.351691   -2.201044   -0.038710
    120          1           0       -9.458901   -1.684328   -1.600630
    121          1           0      -10.188237   -0.241946   -1.074131
    122          1           0      -11.376143   -2.848822    0.229444
    123          1           0      -12.008477   -2.008917   -1.191430
    124          1           0      -11.552611    0.086318    0.798449
    125          1           0      -11.886209   -0.592048    2.725970
    126          1           0      -11.758718   -2.279640    2.233998
    127          1           0      -13.325151   -1.592700    2.377650
    128          1           0      -14.180640   -1.250976    0.225860
    129          1           0      -13.422286   -0.291294   -1.048089
    130          1           0      -13.340168    1.708575    0.864308
    131          1           0      -14.307229    0.606363    1.805047
    132          1           0      -15.498586    0.852616   -0.958055
    133          1           0      -14.990415    2.512960   -0.624728
    134          1           0      -16.326105    2.151915    1.580857
    135          1           0      -16.786835   -0.383041    0.251377
    136          1           0      -18.322010    0.488243    0.564039
    137          1           0      -17.194126    0.186754    1.849491
    138          1           0      -17.556121    3.705503    0.547307
    139          1           0      -18.461810    2.498887   -0.365953
    140          1           0      -16.953365    3.212333   -0.973091
 ---------------------------------------------------------------------

 SCF Done:  E(RB-LYP) =  -3007.34399121     A.U. after   20 cycles

 Excitation energies and oscillator strengths:

 Excited State   1:      Singlet-A      1.7411 eV  712.09 nm  f=0.0048  <S**2>=0.000
     244 -> 247        0.70007
 This state for optimization and/or second-order correction.
 Total Energy, E(TD-HF/TD-DFT) =  -3007.28000568
 Copying the excited state density for this state as the 1-particle RhoCI density.

 Excited State   2:      Singlet-A      1.8182 eV  681.89 nm  f=0.2767  <S**2>=0.000
     243 -> 247        0.17612
     245 -> 247        0.12639
     245 -> 248       -0.17250
     246 -> 247        0.65614
     246 <- 247       -0.14463

 Excited State   3:      Singlet-A      1.8661 eV  664.39 nm  f=0.0592  <S**2>=0.000
     243 -> 247        0.45961
     245 -> 247        0.46788
     246 -> 247       -0.20401
     246 -> 248        0.10539

 Excited State   4:      Singlet-A      2.0223 eV  613.08 nm  f=0.0473  <S**2>=0.000
     240 -> 247       -0.11036
     243 -> 247        0.50104
     245 -> 247       -0.43965
     246 -> 248       -0.18154

 Excited State   5:      Singlet-A      2.1740 eV  570.30 nm  f=0.0004  <S**2>=0.000
     242 -> 247        0.70667

 The electronic state is 1-A.
 Alpha  occ. eigenvalues --  -46.27480 -18.81893 -18.81502 -18.76342 -18.76162
 Alpha  occ. eigenvalues --  -18.75766 -18.75303 -14.04106 -14.03260 -14.01353
 Alpha  occ. eigenvalues --  -14.00991 -10.03830 -10.03290 -10.00077  -9.99668
 Alpha  occ. eigenvalues --   -9.98257  -9.98167  -9.97395  -9.97194  -9.96732
 Alpha  occ. eigenvalues --   -9.96663  -9.96584  -9.96064  -9.95200  -9.94858
 Alpha  occ. eigenvalues --   -9.94691  -9.94469  -9.94409  -9.94361  -9.93735
 Alpha  occ. eigenvalues --   -9.93510  -9.93464  -9.93407  -9.93300  -9.93281
 Alpha  occ. eigenvalues --   -9.93217  -9.93174  -9.93049  -9.92997  -9.92959
 Alpha  occ. eigenvalues --   -9.92935  -9.92834  -9.92765  -9.92595  -9.92473
 Alpha  occ. eigenvalues --   -9.92328  -9.92158  -9.92118  -9.91743  -9.91724
 Alpha  occ. eigenvalues --   -9.91698  -9.91616  -9.91587  -9.91552  -9.91505
 Alpha  occ. eigenvalues --   -9.91381  -9.91352  -9.91330  -9.91318  -9.91289
 Alpha  occ. eigenvalues --   -9.91041  -9.90958  -9.90556  -9.90440  -9.90179
 Alpha  occ. eigenvalues --   -9.90078  -2.92161  -1.72575  -1.72068  -1.71856
 Alpha  occ. eigenvalues --   -0.97712  -0.96865  -0.92456  -0.90231  -0.89465
 Alpha  occ. eigenvalues --   -0.88534  -0.87392  -0.86958  -0.86191  -0.85618
 Alpha  occ. eigenvalues --   -0.76668  -0.73828  -0.73274  -0.73098  -0.72890
 Alpha  occ. eigenvalues --   -0.72305  -0.71739  -0.71191  -0.70784  -0.70539
 Alpha  occ. eigenvalues --   -0.69820  -0.69414  -0.68375  -0.67981  -0.67531
 Alpha  occ. eigenvalues --   -0.66400  -0.66073  -0.65237  -0.65106  -0.64738
 Alpha  occ. eigenvalues --   -0.63943  -0.62903  -0.62624  -0.62058  -0.61294
 Alpha  occ. eigenvalues --   -0.60336  -0.60049  -0.59817  -0.59446  -0.58578
 Alpha  occ. eigenvalues --   -0.58290  -0.57960  -0.57248  -0.55889  -0.54911
 Alpha  occ. eigenvalues --   -0.54601  -0.53572  -0.53325  -0.52341  -0.52292
 Alpha  occ. eigenvalues --   -0.51953  -0.51319  -0.51087  -0.50463  -0.49710
 Alpha  occ. eigenvalues --   -0.49241  -0.49235  -0.49055  -0.48382  -0.46975
 Alpha  occ. eigenvalues --   -0.46344  -0.46133  -0.45960  -0.45271  -0.44931
 Alpha  occ. eigenvalues --   -0.44175  -0.43680  -0.43472  -0.43349  -0.42647
 Alpha  occ. eigenvalues --   -0.42406  -0.42157  -0.41844  -0.41381  -0.40966
 Alpha  occ. eigenvalues --   -0.40720  -0.40597  -0.40527  -0.40232  -0.40147
 Alpha  occ. eigenvalues --   -0.39916  -0.39697  -0.39596  -0.39369  -0.39324
 Alpha  occ. eigenvalues --   -0.39195  -0.38931  -0.38686  -0.38589  -0.38401
 Alpha  occ. eigenvalues --   -0.38322  -0.38293  -0.37983  -0.37891  -0.37803
 Alpha  occ. eigenvalues --   -0.37438  -0.37043  -0.36690  -0.36596  -0.36466
 Alpha  occ. eigenvalues --   -0.36311  -0.36175  -0.36057  -0.35901  -0.35525
 Alpha  occ. eigenvalues --   -0.35419  -0.35392  -0.35041  -0.34825  -0.34731
 Alpha  occ. eigenvalues --   -0.34627  -0.34446  -0.34317  -0.34112  -0.34026
 Alpha  occ. eigenvalues --   -0.33818  -0.33558  -0.33380  -0.33343  -0.33284
 Alpha  occ. eigenvalues --   -0.33012  -0.32889  -0.32837  -0.32764  -0.32592
 Alpha  occ. eigenvalues --   -0.31883  -0.31776  -0.31446  -0.31411  -0.31357
 Alpha  occ. eigenvalues --   -0.31146  -0.31098  -0.31080  -0.30739  -0.30594
 Alpha  occ. eigenvalues --   -0.30508  -0.30395  -0.30121  -0.30082  -0.30009
 Alpha  occ. eigenvalues --   -0.29748  -0.29620  -0.29568  -0.29185  -0.29090
 Alpha  occ. eigenvalues --   -0.29064  -0.28967  -0.28282  -0.28205  -0.28052
 Alpha  occ. eigenvalues --   -0.27766  -0.27184  -0.26924  -0.26872  -0.26494
 Alpha  occ. eigenvalues --   -0.26380  -0.26115  -0.26047  -0.25821  -0.25341
 Alpha  occ. eigenvalues --   -0.24816  -0.24398  -0.24316  -0.23942  -0.23743
 Alpha  occ. eigenvalues --   -0.23210  -0.22727  -0.21806  -0.21494  -0.20923
 Alpha  occ. eigenvalues --   -0.20416  -0.20171  -0.19138  -0.18517  -0.17719
 Alpha  occ. eigenvalues --   -0.16454
 Alpha virt. eigenvalues --   -0.12185  -0.07355  -0.06526  -0.04876  -0.03177
 Alpha virt. eigenvalues --   -0.02697  -0.02302  -0.01912  -0.01338   0.00013
 Alpha virt. eigenvalues --    0.00875   0.01376   0.02159   0.02728   0.02834

 Mulliken charges:
               1
     1  Mg   0.691232
     2  C    0.057817
     3  C   -0.082215
     4  C   -0.050269
     5  C   -0.006024
     6  N   -0.223929
     7  C   -0.098658
     8  C    0.058692
     9  C   -0.005927
    10  C   -0.028762
    11  C    0.150611
    12  C    0.120214
    13  C    0.065835
    14  C    0.115179
    15  O   -0.220678
    16  O   -0.273482
    17  N   -0.318041
    18  C    0.202167
    19  C   -0.140790
    20  C    0.057386
    21  C    0.158871
    22  C    0.194469
    23  C   -0.074176
    24  O   -0.184846
    25  C    0.118984
    26  N   -0.161850
    27  C   -0.028256
    28  C    0.052243
    29  C    0.018126
    30  C   -0.079565
    31  C    0.106002
    32  C    0.070275
    33  C    0.087027
    34  N   -0.252730
    35  C    0.109143
    36  C   -0.194177
    37  C    0.066946
    38  C    0.074369
    39  C    0.182650
    40  C   -0.046849
    41  O   -0.095101
    42  C    0.039560
    43  C    0.074464
    44  O   -0.152530
    45  O   -0.287895
    46  C    0.211688
    47  C    0.306633
    48  C   -0.067527
    49  C   -0.195467
    50  C    0.185067
    51  C    0.160777
    52  C    0.043296
    53  C    0.123979
    54  C   -0.093874
    55  C    0.137652
    56  C    0.089182
    57  C    0.052968
    58  C    0.148170
    59  C   -0.090341
    60  C    0.086496
    61  C    0.054224
    62  C    0.065894
    63  C    0.118973
    64  C   -0.127167
    65  C    0.102708
    66  C    0.104755
    67  H   -0.062081
    68  H   -0.085624
    69  H   -0.071488
    70  H   -0.031627
    71  H   -0.031626
    72  H   -0.016216
    73  H    0.002871
    74  H   -0.009009
    75  H    0.005167
    76  H   -0.015103
    77  H    0.012564
    78  H    0.011942
    79  H    0.000055
    80  H   -0.030311
    81  H    0.004696
    82  H    0.007023
    83  H    0.016748
    84  H   -0.012015
    85  H   -0.024405
    86  H   -0.016225
    87  H   -0.016267
    88  H   -0.006506
    89  H   -0.006481
    90  H   -0.007348
    91  H   -0.022783
    92  H   -0.011506
    93  H    0.002243
    94  H   -0.003879
    95  H   -0.002258
    96  H    0.008219
    97  H    0.006597
    98  H   -0.012553
    99  H    0.012146
   100  H    0.017001
   101  H    0.035425
   102  H   -0.000524
   103  H    0.007137
   104  H   -0.044810
   105  H   -0.000180
   106  H   -0.016927
   107  H   -0.003676
   108  H   -0.026698
   109  H   -0.039030
   110  H   -0.035549
   111  H   -0.025568
   112  H   -0.030808
   113  H   -0.021529
   114  H   -0.043780
   115  H   -0.038918
   116  H   -0.003384
   117  H   -0.022377
   118  H   -0.034641
   119  H   -0.052035
   120  H   -0.038058
   121  H   -0.027683
   122  H   -0.025813
   123  H   -0.041713
   124  H   -0.017977
   125  H   -0.013213
   126  H   -0.021561
   127  H   -0.015737
   128  H   -0.021548
   129  H   -0.021004
   130  H   -0.026513
   131  H   -0.013698
   132  H   -0.025623
   133  H   -0.030153
   134  H   -0.035000
   135  H   -0.014988
   136  H   -0.019328
   137  H   -0.023646
   138  H   -0.020320
   139  H   -0.012260
   140  H   -0.031853
 Sum of Mulliken charges =  -0.00000

 Dipole moment (field-independent basis, Debye):
    X=              1.7275    Y=              5.5114    Z=              1.4120  Tot=              5.9459
 Quadrupole moment (field-independent basis, Debye-Ang):
   XX=           -361.2864   YY=           -444.6068   ZZ=           -411.7974
   XY=             23.9709   XZ=             -0.9986   YZ=             44.3105

 Normal termination of Gaussian 16 at Thu Apr 28 16:55:16 2022.
