 Gaussian 16, Revision A.03,
 Gaussian 16:  ES64L-G16RevA.03 25-Dec-2016

 -----------------------------------
 #p cam-b3lyp/Def2SVP td=(nstates=5)
 -----------------------------------

 --------------------------------------------------------
 step_1651_chromophore_14 TDDFT with cam-b3lyp functional
 --------------------------------------------------------
 Symbolic Z-matrix:
 Charge =  0 Multiplicity = 1

                         Standard orientation:
 ---------------------------------------------------------------------
 Center     Atomic      Atomic             Coordinates (Angstroms)
 Number     Number       Type             X           Y           Z
 ---------------------------------------------------------------------
      1         12           0        5.223362    0.914259   -0.098051
      2          6           0        5.013793   -2.439903    0.469889
      3          6           0        4.380663    0.390088   -3.376375
      4          6           0        4.941396    4.255107   -0.407621
      5          6           0        5.573809    1.410359    3.445179
      6          7           0        4.868383   -0.790817   -1.273450
      7          6           0        4.813887   -2.077604   -0.882996
      8          6           0        4.385356   -3.061019   -2.036128
      9          6           0        4.710141   -2.169237   -3.286069
     10          6           0        4.630487   -0.748595   -2.623816
     11          6           0        6.101226   -2.378356   -3.895685
     12          6           0        2.930760   -3.562247   -2.056350
     13          6           0        1.909026   -2.681680   -1.316485
     14          6           0        0.472249   -3.137328   -1.520539
     15          8           0        0.161044   -4.168967   -2.136599
     16          8           0       -0.455710   -2.343322   -0.899710
     17          7           0        4.728246    2.132582   -1.641214
     18          6           0        4.411007    1.727729   -2.888357
     19          6           0        4.156554    2.829397   -3.670370
     20          6           0        4.359233    4.033132   -2.896322
     21          6           0        4.681303    3.533868   -1.573649
     22          6           0        3.688728    2.682899   -5.060033
     23          6           0        4.100677    5.455641   -3.347637
     24          8           0        3.685476    5.696764   -4.496381
     25          6           0        4.313088    6.660224   -2.441636
     26          7           0        5.011554    2.630318    1.409696
     27          6           0        5.074487    3.890129    0.970435
     28          6           0        5.337958    4.795982    2.170994
     29          6           0        5.442759    3.964852    3.456775
     30          6           0        5.349314    2.596313    2.734653
     31          6           0        6.624058    5.656645    1.926422
     32          6           0        4.186143    4.080439    4.412338
     33          6           0        4.335766    3.853370    5.909256
     34          7           0        5.313387   -0.264154    1.647558
     35          6           0        5.544114    0.018743    2.993110
     36          6           0        5.867941   -1.214486    3.632137
     37          6           0        5.441146   -2.243210    2.771462
     38          6           0        5.303775   -1.597050    1.507113
     39          6           0        6.182284   -1.208086    5.104030
     40          6           0        5.275682   -3.651642    2.642876
     41          8           0        5.287758   -4.596412    3.393737
     42          6           0        5.040747   -3.776616    1.106148
     43          6           0        6.114921   -4.706654    0.632270
     44          8           0        5.982178   -5.883654    0.403573
     45          8           0        7.280466   -4.044553    0.412538
     46          6           0        8.401830   -4.687482   -0.293787
     47          6           0       -1.862197   -2.875292   -0.975945
     48          6           0       -2.717928   -1.659537   -0.556989
     49          6           0       -3.558746   -0.926783   -1.306982
     50          6           0       -3.472389   -0.973950   -2.753030
     51          6           0       -4.538233    0.176555   -0.735148
     52          6           0       -6.022154   -0.166753   -0.732064
     53          6           0       -6.655396   -0.456358    0.673741
     54          6           0       -8.153827   -0.164512    0.704107
     55          6           0       -8.649587    0.306252    2.085613
     56          6           0       -9.038369   -1.438181    0.328093
     57          6           0      -10.012361   -1.270615   -0.758143
     58          6           0      -11.429686   -1.884403   -0.275384
     59          6           0      -12.114385   -0.830769    0.622016
     60          6           0      -12.307731   -1.352287    2.069034
     61          6           0      -13.493921   -0.427508    0.030862
     62          6           0      -14.080868    0.913043    0.784160
     63          6           0      -15.198866    1.543563   -0.171678
     64          6           0      -16.522574    1.768742    0.580115
     65          6           0      -17.257242    0.439107    0.790909
     66          6           0      -17.459277    2.825272   -0.088172
     67          1           0        4.129271    0.108854   -4.400542
     68          1           0        4.937502    5.345390   -0.457317
     69          1           0        5.931487    1.711872    4.431640
     70          1           0        5.037668   -3.934568   -2.048309
     71          1           0        3.893319   -2.201625   -4.006188
     72          1           0        6.486194   -1.361584   -3.972881
     73          1           0        6.047186   -2.875559   -4.864531
     74          1           0        6.898013   -2.869431   -3.337880
     75          1           0        2.860583   -4.557764   -1.619400
     76          1           0        2.593515   -3.572775   -3.093199
     77          1           0        1.851241   -1.603351   -1.460127
     78          1           0        2.305271   -2.818532   -0.310769
     79          1           0        2.758678    3.240610   -5.172079
     80          1           0        3.352294    1.700205   -5.388453
     81          1           0        4.427839    3.057251   -5.769356
     82          1           0        5.255249    6.718082   -1.896567
     83          1           0        3.502134    6.757545   -1.719037
     84          1           0        4.401083    7.558017   -3.053038
     85          1           0        4.497504    5.478651    2.295964
     86          1           0        6.377940    4.115938    3.996294
     87          1           0        7.379246    5.327288    2.639749
     88          1           0        6.426100    6.723146    2.039168
     89          1           0        7.122269    5.597394    0.958949
     90          1           0        3.466122    3.338438    4.066416
     91          1           0        3.767064    5.064019    4.199787
     92          1           0        5.392769    3.680447    6.109772
     93          1           0        3.724500    2.984946    6.153475
     94          1           0        4.032630    4.682961    6.547595
     95          1           0        5.883637   -2.195438    5.458454
     96          1           0        5.553718   -0.524036    5.673188
     97          1           0        7.264749   -1.080309    5.136047
     98          1           0        4.099720   -4.296919    0.928047
     99          1           0        9.122194   -4.726632    0.522733
    100          1           0        8.823836   -3.990581   -1.018221
    101          1           0        8.184278   -5.689011   -0.665600
    102          1           0       -1.974106   -3.663887   -0.231867
    103          1           0       -2.127715   -3.325336   -1.932219
    104          1           0       -2.735134   -1.412300    0.503833
    105          1           0       -3.550853    0.026083   -3.179426
    106          1           0       -4.374713   -1.534531   -2.994255
    107          1           0       -2.673006   -1.620729   -3.116486
    108          1           0       -4.363210    1.086359   -1.309727
    109          1           0       -4.302072    0.381282    0.309536
    110          1           0       -5.950257   -1.136549   -1.222447
    111          1           0       -6.709997    0.422481   -1.339489
    112          1           0       -6.133622    0.140396    1.422386
    113          1           0       -6.519913   -1.533262    0.770075
    114          1           0       -8.446221    0.545713   -0.069740
    115          1           0       -8.228442    1.303866    2.208717
    116          1           0       -8.244694   -0.244593    2.934525
    117          1           0       -9.713407    0.498466    1.946565
    118          1           0       -9.458054   -1.903417    1.220396
    119          1           0       -8.351691   -2.201044   -0.038710
    120          1           0       -9.458901   -1.684328   -1.600630
    121          1           0      -10.188237   -0.241946   -1.074131
    122          1           0      -11.376143   -2.848822    0.229444
    123          1           0      -12.008477   -2.008917   -1.191430
    124          1           0      -11.552611    0.086318    0.798449
    125          1           0      -11.886209   -0.592048    2.725970
    126          1           0      -11.758718   -2.279640    2.233998
    127          1           0      -13.325151   -1.592700    2.377650
    128          1           0      -14.180640   -1.250976    0.225860
    129          1           0      -13.422286   -0.291294   -1.048089
    130          1           0      -13.340168    1.708575    0.864308
    131          1           0      -14.307229    0.606363    1.805047
    132          1           0      -15.498586    0.852616   -0.958055
    133          1           0      -14.990415    2.512960   -0.624728
    134          1           0      -16.326105    2.151915    1.580857
    135          1           0      -16.786835   -0.383041    0.251377
    136          1           0      -18.322010    0.488243    0.564039
    137          1           0      -17.194126    0.186754    1.849491
    138          1           0      -17.556121    3.705503    0.547307
    139          1           0      -18.461810    2.498887   -0.365953
    140          1           0      -16.953365    3.212333   -0.973091
 ---------------------------------------------------------------------

 SCF Done:  E(RCAM-B3LYP) =  -3007.14061809     A.U. after   18 cycles

 Excitation energies and oscillator strengths:

 Excited State   1:      Singlet-A      1.7071 eV  726.30 nm  f=0.3835  <S**2>=0.000
     245 -> 248        0.17795
     246 -> 247        0.68462
     245 <- 248        0.10737
 This state for optimization and/or second-order correction.
 Total Energy, E(TD-HF/TD-DFT) =  -3007.07788460
 Copying the excited state density for this state as the 1-particle RhoCI density.

 Excited State   2:      Singlet-A      2.2010 eV  563.30 nm  f=0.1182  <S**2>=0.000
     245 -> 247        0.64589
     246 -> 248       -0.26939

 Excited State   3:      Singlet-A      3.2420 eV  382.43 nm  f=0.0046  <S**2>=0.000
     244 -> 247        0.68679

 Excited State   4:      Singlet-A      3.3811 eV  366.70 nm  f=0.0171  <S**2>=0.000
     241 -> 247       -0.15211
     241 -> 249       -0.11974
     242 -> 247        0.62422
     246 -> 248        0.16927

 Excited State   5:      Singlet-A      3.4687 eV  357.44 nm  f=0.0768  <S**2>=0.000
     239 -> 247        0.15961
     239 -> 249        0.11557
     240 -> 247       -0.24209
     241 -> 247        0.43604
     241 -> 249        0.21189
     242 -> 247        0.13170
     246 -> 248        0.31098

 The electronic state is 1-A.
 Alpha  occ. eigenvalues --  -46.89058 -19.24753 -19.24326 -19.19351 -19.19253
 Alpha  occ. eigenvalues --  -19.18817 -19.18592 -14.43006 -14.42229 -14.39859
 Alpha  occ. eigenvalues --  -14.39395 -10.39105 -10.38613 -10.35374 -10.34960
 Alpha  occ. eigenvalues --  -10.32422 -10.32104 -10.31999 -10.31791 -10.31219
 Alpha  occ. eigenvalues --  -10.31122 -10.31105 -10.30289 -10.29489 -10.28858
 Alpha  occ. eigenvalues --  -10.28695 -10.28642 -10.28527 -10.28514 -10.28194
 Alpha  occ. eigenvalues --  -10.27747 -10.27603 -10.27498 -10.27484 -10.27457
 Alpha  occ. eigenvalues --  -10.27397 -10.27293 -10.27209 -10.27034 -10.27027
 Alpha  occ. eigenvalues --  -10.26874 -10.26831 -10.26447 -10.26265 -10.26223
 Alpha  occ. eigenvalues --  -10.26213 -10.26050 -10.25930 -10.25471 -10.25444
 Alpha  occ. eigenvalues --  -10.25441 -10.25431 -10.25322 -10.25268 -10.25240
 Alpha  occ. eigenvalues --  -10.25200 -10.25042 -10.25038 -10.25030 -10.24976
 Alpha  occ. eigenvalues --  -10.24670 -10.24536 -10.24149 -10.24046 -10.23751
 Alpha  occ. eigenvalues --  -10.23699  -3.17644  -1.92534  -1.92117  -1.91934
 Alpha  occ. eigenvalues --   -1.16224  -1.15246  -1.10888  -1.08648  -1.07366
 Alpha  occ. eigenvalues --   -1.06301  -1.05196  -1.04725  -1.03821  -1.03197
 Alpha  occ. eigenvalues --   -0.93838  -0.90688  -0.90031  -0.89885  -0.89669
 Alpha  occ. eigenvalues --   -0.89049  -0.88424  -0.87816  -0.87357  -0.87094
 Alpha  occ. eigenvalues --   -0.86384  -0.85869  -0.84622  -0.84150  -0.83710
 Alpha  occ. eigenvalues --   -0.82412  -0.82107  -0.81158  -0.81007  -0.80610
 Alpha  occ. eigenvalues --   -0.79754  -0.78561  -0.78191  -0.77708  -0.76775
 Alpha  occ. eigenvalues --   -0.75666  -0.75377  -0.75180  -0.74724  -0.73687
 Alpha  occ. eigenvalues --   -0.73433  -0.72985  -0.72194  -0.70714  -0.69506
 Alpha  occ. eigenvalues --   -0.69285  -0.68128  -0.67896  -0.66654  -0.66476
 Alpha  occ. eigenvalues --   -0.66091  -0.65481  -0.65281  -0.64414  -0.63708
 Alpha  occ. eigenvalues --   -0.63203  -0.62886  -0.62765  -0.62273  -0.60676
 Alpha  occ. eigenvalues --   -0.59960  -0.59643  -0.59440  -0.58714  -0.58326
 Alpha  occ. eigenvalues --   -0.57559  -0.57034  -0.56770  -0.56574  -0.55738
 Alpha  occ. eigenvalues --   -0.55385  -0.55258  -0.54757  -0.54027  -0.53900
 Alpha  occ. eigenvalues --   -0.53560  -0.53236  -0.53133  -0.53068  -0.52863
 Alpha  occ. eigenvalues --   -0.52576  -0.52505  -0.52302  -0.52184  -0.52091
 Alpha  occ. eigenvalues --   -0.51842  -0.51539  -0.51389  -0.51121  -0.50930
 Alpha  occ. eigenvalues --   -0.50715  -0.50521  -0.50319  -0.50180  -0.50011
 Alpha  occ. eigenvalues --   -0.49883  -0.49741  -0.49179  -0.49050  -0.48935
 Alpha  occ. eigenvalues --   -0.48663  -0.48420  -0.48064  -0.47892  -0.47810
 Alpha  occ. eigenvalues --   -0.47478  -0.47282  -0.47156  -0.46751  -0.46638
 Alpha  occ. eigenvalues --   -0.46380  -0.46275  -0.46257  -0.46083  -0.45752
 Alpha  occ. eigenvalues --   -0.45654  -0.45509  -0.45290  -0.45023  -0.44963
 Alpha  occ. eigenvalues --   -0.44759  -0.44667  -0.44474  -0.44383  -0.44200
 Alpha  occ. eigenvalues --   -0.43726  -0.43358  -0.43245  -0.42803  -0.42787
 Alpha  occ. eigenvalues --   -0.42775  -0.42462  -0.42364  -0.42356  -0.42044
 Alpha  occ. eigenvalues --   -0.41776  -0.41705  -0.41639  -0.41505  -0.41316
 Alpha  occ. eigenvalues --   -0.41290  -0.40793  -0.40723  -0.40701  -0.40279
 Alpha  occ. eigenvalues --   -0.40185  -0.40040  -0.39512  -0.39163  -0.39039
 Alpha  occ. eigenvalues --   -0.38602  -0.37968  -0.37773  -0.37630  -0.37551
 Alpha  occ. eigenvalues --   -0.37267  -0.36947  -0.36781  -0.36574  -0.36249
 Alpha  occ. eigenvalues --   -0.35901  -0.35858  -0.34847  -0.34379  -0.34357
 Alpha  occ. eigenvalues --   -0.33861  -0.33448  -0.33268  -0.31897  -0.31023
 Alpha  occ. eigenvalues --   -0.30940  -0.30225  -0.29944  -0.29791  -0.24541
 Alpha  occ. eigenvalues --   -0.21838
 Alpha virt. eigenvalues --   -0.09415  -0.02222  -0.00102   0.01545   0.02321
 Alpha virt. eigenvalues --    0.04935   0.05228   0.05296   0.06417   0.06891
 Alpha virt. eigenvalues --    0.07750   0.08047   0.08366   0.08873   0.09215

 Mulliken charges:
               1
     1  Mg   0.823787
     2  C    0.021420
     3  C   -0.090799
     4  C   -0.074539
     5  C   -0.016109
     6  N   -0.295839
     7  C   -0.057111
     8  C    0.016776
     9  C   -0.058587
    10  C   -0.016900
    11  C    0.092102
    12  C    0.067529
    13  C   -0.001836
    14  C    0.199038
    15  O   -0.263796
    16  O   -0.336970
    17  N   -0.409526
    18  C    0.208599
    19  C   -0.147338
    20  C   -0.011121
    21  C    0.187868
    22  C    0.134238
    23  C    0.003022
    24  O   -0.223566
    25  C    0.036075
    26  N   -0.226761
    27  C   -0.000540
    28  C   -0.009805
    29  C   -0.034658
    30  C   -0.061511
    31  C    0.046650
    32  C    0.019330
    33  C    0.022642
    34  N   -0.339390
    35  C    0.112937
    36  C   -0.176758
    37  C   -0.007831
    38  C    0.115283
    39  C    0.119155
    40  C    0.046340
    41  O   -0.134471
    42  C   -0.036232
    43  C    0.162620
    44  O   -0.193036
    45  O   -0.350069
    46  C    0.174072
    47  C    0.272564
    48  C   -0.090738
    49  C   -0.213381
    50  C    0.114186
    51  C    0.105377
    52  C   -0.008210
    53  C    0.069861
    54  C   -0.148500
    55  C    0.080874
    56  C    0.035568
    57  C    0.001174
    58  C    0.087581
    59  C   -0.143246
    60  C    0.028246
    61  C    0.009989
    62  C    0.012009
    63  C    0.063691
    64  C   -0.182650
    65  C    0.043192
    66  C    0.045248
    67  H   -0.025032
    68  H   -0.049370
    69  H   -0.036115
    70  H    0.005699
    71  H    0.004388
    72  H    0.010308
    73  H    0.028012
    74  H    0.014616
    75  H    0.035340
    76  H    0.015705
    77  H    0.043295
    78  H    0.040610
    79  H    0.028748
    80  H   -0.001993
    81  H    0.032372
    82  H    0.033931
    83  H    0.045069
    84  H    0.024051
    85  H    0.011240
    86  H    0.017873
    87  H    0.008784
    88  H    0.018088
    89  H    0.019098
    90  H    0.023177
    91  H    0.004795
    92  H    0.009139
    93  H    0.025435
    94  H    0.021179
    95  H    0.025745
    96  H    0.033193
    97  H    0.033129
    98  H    0.028473
    99  H    0.035229
   100  H    0.036997
   101  H    0.060889
   102  H    0.028805
   103  H    0.037891
   104  H   -0.011403
   105  H    0.024832
   106  H    0.007231
   107  H    0.021860
   108  H    0.004063
   109  H   -0.007935
   110  H   -0.009064
   111  H    0.002517
   112  H   -0.002951
   113  H    0.006531
   114  H   -0.011953
   115  H   -0.012488
   116  H    0.021028
   117  H   -0.002532
   118  H   -0.006844
   119  H   -0.021555
   120  H   -0.008627
   121  H   -0.000899
   122  H    0.003018
   123  H   -0.010086
   124  H    0.007217
   125  H    0.009377
   126  H    0.002131
   127  H    0.008863
   128  H    0.003628
   129  H    0.005846
   130  H    0.002088
   131  H    0.012285
   132  H    0.001401
   133  H   -0.001112
   134  H   -0.003100
   135  H    0.006609
   136  H    0.005494
   137  H    0.000334
   138  H    0.004244
   139  H    0.011718
   140  H   -0.007781
 Sum of Mulliken charges =  -0.00000

 Dipole moment (field-independent basis, Debye):
    X=              1.9122    Y=              6.0779    Z=              1.2765  Tot=              6.4982
 Quadrupole moment (field-independent basis, Debye-Ang):
   XX=           -359.0797   YY=           -441.6978   ZZ=           -410.3992
   XY=             26.2437   XZ=             -1.5206   YZ=             45.3422

 Normal termination of Gaussian 16 at Thu Apr 28 15:56:36 2022.
