 Gaussian 16, Revision A.03,
 Gaussian 16:  ES64L-G16RevA.03 25-Dec-2016

 ---------------------------------
 #p PBE1PBE/Def2SVP td=(nstates=5)
 ---------------------------------

 ------------------------------------------------------
 step_1651_chromophore_14 TDDFT with PBE1PBE functional
 ------------------------------------------------------
 Symbolic Z-matrix:
 Charge =  0 Multiplicity = 1

                         Standard orientation:
 ---------------------------------------------------------------------
 Center     Atomic      Atomic             Coordinates (Angstroms)
 Number     Number       Type             X           Y           Z
 ---------------------------------------------------------------------
      1         12           0        5.223362    0.914259   -0.098051
      2          6           0        5.013793   -2.439903    0.469889
      3          6           0        4.380663    0.390088   -3.376375
      4          6           0        4.941396    4.255107   -0.407621
      5          6           0        5.573809    1.410359    3.445179
      6          7           0        4.868383   -0.790817   -1.273450
      7          6           0        4.813887   -2.077604   -0.882996
      8          6           0        4.385356   -3.061019   -2.036128
      9          6           0        4.710141   -2.169237   -3.286069
     10          6           0        4.630487   -0.748595   -2.623816
     11          6           0        6.101226   -2.378356   -3.895685
     12          6           0        2.930760   -3.562247   -2.056350
     13          6           0        1.909026   -2.681680   -1.316485
     14          6           0        0.472249   -3.137328   -1.520539
     15          8           0        0.161044   -4.168967   -2.136599
     16          8           0       -0.455710   -2.343322   -0.899710
     17          7           0        4.728246    2.132582   -1.641214
     18          6           0        4.411007    1.727729   -2.888357
     19          6           0        4.156554    2.829397   -3.670370
     20          6           0        4.359233    4.033132   -2.896322
     21          6           0        4.681303    3.533868   -1.573649
     22          6           0        3.688728    2.682899   -5.060033
     23          6           0        4.100677    5.455641   -3.347637
     24          8           0        3.685476    5.696764   -4.496381
     25          6           0        4.313088    6.660224   -2.441636
     26          7           0        5.011554    2.630318    1.409696
     27          6           0        5.074487    3.890129    0.970435
     28          6           0        5.337958    4.795982    2.170994
     29          6           0        5.442759    3.964852    3.456775
     30          6           0        5.349314    2.596313    2.734653
     31          6           0        6.624058    5.656645    1.926422
     32          6           0        4.186143    4.080439    4.412338
     33          6           0        4.335766    3.853370    5.909256
     34          7           0        5.313387   -0.264154    1.647558
     35          6           0        5.544114    0.018743    2.993110
     36          6           0        5.867941   -1.214486    3.632137
     37          6           0        5.441146   -2.243210    2.771462
     38          6           0        5.303775   -1.597050    1.507113
     39          6           0        6.182284   -1.208086    5.104030
     40          6           0        5.275682   -3.651642    2.642876
     41          8           0        5.287758   -4.596412    3.393737
     42          6           0        5.040747   -3.776616    1.106148
     43          6           0        6.114921   -4.706654    0.632270
     44          8           0        5.982178   -5.883654    0.403573
     45          8           0        7.280466   -4.044553    0.412538
     46          6           0        8.401830   -4.687482   -0.293787
     47          6           0       -1.862197   -2.875292   -0.975945
     48          6           0       -2.717928   -1.659537   -0.556989
     49          6           0       -3.558746   -0.926783   -1.306982
     50          6           0       -3.472389   -0.973950   -2.753030
     51          6           0       -4.538233    0.176555   -0.735148
     52          6           0       -6.022154   -0.166753   -0.732064
     53          6           0       -6.655396   -0.456358    0.673741
     54          6           0       -8.153827   -0.164512    0.704107
     55          6           0       -8.649587    0.306252    2.085613
     56          6           0       -9.038369   -1.438181    0.328093
     57          6           0      -10.012361   -1.270615   -0.758143
     58          6           0      -11.429686   -1.884403   -0.275384
     59          6           0      -12.114385   -0.830769    0.622016
     60          6           0      -12.307731   -1.352287    2.069034
     61          6           0      -13.493921   -0.427508    0.030862
     62          6           0      -14.080868    0.913043    0.784160
     63          6           0      -15.198866    1.543563   -0.171678
     64          6           0      -16.522574    1.768742    0.580115
     65          6           0      -17.257242    0.439107    0.790909
     66          6           0      -17.459277    2.825272   -0.088172
     67          1           0        4.129271    0.108854   -4.400542
     68          1           0        4.937502    5.345390   -0.457317
     69          1           0        5.931487    1.711872    4.431640
     70          1           0        5.037668   -3.934568   -2.048309
     71          1           0        3.893319   -2.201625   -4.006188
     72          1           0        6.486194   -1.361584   -3.972881
     73          1           0        6.047186   -2.875559   -4.864531
     74          1           0        6.898013   -2.869431   -3.337880
     75          1           0        2.860583   -4.557764   -1.619400
     76          1           0        2.593515   -3.572775   -3.093199
     77          1           0        1.851241   -1.603351   -1.460127
     78          1           0        2.305271   -2.818532   -0.310769
     79          1           0        2.758678    3.240610   -5.172079
     80          1           0        3.352294    1.700205   -5.388453
     81          1           0        4.427839    3.057251   -5.769356
     82          1           0        5.255249    6.718082   -1.896567
     83          1           0        3.502134    6.757545   -1.719037
     84          1           0        4.401083    7.558017   -3.053038
     85          1           0        4.497504    5.478651    2.295964
     86          1           0        6.377940    4.115938    3.996294
     87          1           0        7.379246    5.327288    2.639749
     88          1           0        6.426100    6.723146    2.039168
     89          1           0        7.122269    5.597394    0.958949
     90          1           0        3.466122    3.338438    4.066416
     91          1           0        3.767064    5.064019    4.199787
     92          1           0        5.392769    3.680447    6.109772
     93          1           0        3.724500    2.984946    6.153475
     94          1           0        4.032630    4.682961    6.547595
     95          1           0        5.883637   -2.195438    5.458454
     96          1           0        5.553718   -0.524036    5.673188
     97          1           0        7.264749   -1.080309    5.136047
     98          1           0        4.099720   -4.296919    0.928047
     99          1           0        9.122194   -4.726632    0.522733
    100          1           0        8.823836   -3.990581   -1.018221
    101          1           0        8.184278   -5.689011   -0.665600
    102          1           0       -1.974106   -3.663887   -0.231867
    103          1           0       -2.127715   -3.325336   -1.932219
    104          1           0       -2.735134   -1.412300    0.503833
    105          1           0       -3.550853    0.026083   -3.179426
    106          1           0       -4.374713   -1.534531   -2.994255
    107          1           0       -2.673006   -1.620729   -3.116486
    108          1           0       -4.363210    1.086359   -1.309727
    109          1           0       -4.302072    0.381282    0.309536
    110          1           0       -5.950257   -1.136549   -1.222447
    111          1           0       -6.709997    0.422481   -1.339489
    112          1           0       -6.133622    0.140396    1.422386
    113          1           0       -6.519913   -1.533262    0.770075
    114          1           0       -8.446221    0.545713   -0.069740
    115          1           0       -8.228442    1.303866    2.208717
    116          1           0       -8.244694   -0.244593    2.934525
    117          1           0       -9.713407    0.498466    1.946565
    118          1           0       -9.458054   -1.903417    1.220396
    119          1           0       -8.351691   -2.201044   -0.038710
    120          1           0       -9.458901   -1.684328   -1.600630
    121          1           0      -10.188237   -0.241946   -1.074131
    122          1           0      -11.376143   -2.848822    0.229444
    123          1           0      -12.008477   -2.008917   -1.191430
    124          1           0      -11.552611    0.086318    0.798449
    125          1           0      -11.886209   -0.592048    2.725970
    126          1           0      -11.758718   -2.279640    2.233998
    127          1           0      -13.325151   -1.592700    2.377650
    128          1           0      -14.180640   -1.250976    0.225860
    129          1           0      -13.422286   -0.291294   -1.048089
    130          1           0      -13.340168    1.708575    0.864308
    131          1           0      -14.307229    0.606363    1.805047
    132          1           0      -15.498586    0.852616   -0.958055
    133          1           0      -14.990415    2.512960   -0.624728
    134          1           0      -16.326105    2.151915    1.580857
    135          1           0      -16.786835   -0.383041    0.251377
    136          1           0      -18.322010    0.488243    0.564039
    137          1           0      -17.194126    0.186754    1.849491
    138          1           0      -17.556121    3.705503    0.547307
    139          1           0      -18.461810    2.498887   -0.365953
    140          1           0      -16.953365    3.212333   -0.973091
 ---------------------------------------------------------------------

 SCF Done:  E(RPBE1PBE) =  -3005.33083449     A.U. after   15 cycles

 Excitation energies and oscillator strengths:

 Excited State   1:      Singlet-A      1.8681 eV  663.71 nm  f=0.3725  <S**2>=0.000
     245 -> 248       -0.17139
     246 -> 247        0.69258
     246 <- 247       -0.10991
 This state for optimization and/or second-order correction.
 Total Energy, E(TD-HF/TD-DFT) =  -3005.26218473
 Copying the excited state density for this state as the 1-particle RhoCI density.

 Excited State   2:      Singlet-A      2.1989 eV  563.86 nm  f=0.1103  <S**2>=0.000
     245 -> 247        0.65762
     246 -> 248        0.23922

 Excited State   3:      Singlet-A      2.8983 eV  427.79 nm  f=0.0018  <S**2>=0.000
     241 -> 247       -0.22248
     243 -> 247        0.65206

 Excited State   4:      Singlet-A      2.9120 eV  425.77 nm  f=0.0026  <S**2>=0.000
     240 -> 247        0.24948
     241 -> 247       -0.42441
     241 -> 249        0.10579
     242 -> 247        0.45058
     243 -> 247       -0.11740

 Excited State   5:      Singlet-A      2.9421 eV  421.42 nm  f=0.0011  <S**2>=0.000
     241 -> 247        0.41438
     242 -> 247        0.48582
     242 -> 249        0.10505
     243 -> 247        0.21487

 The electronic state is 1-A.
 Alpha  occ. eigenvalues --  -46.92447 -19.25427 -19.24990 -19.19596 -19.19560
 Alpha  occ. eigenvalues --  -19.19071 -19.18781 -14.42533 -14.41654 -14.39491
 Alpha  occ. eigenvalues --  -14.39073 -10.36138 -10.35650 -10.32494 -10.32092
 Alpha  occ. eigenvalues --  -10.29824 -10.29764 -10.29447 -10.29332 -10.28916
 Alpha  occ. eigenvalues --  -10.28842 -10.28840 -10.28093 -10.27087 -10.26724
 Alpha  occ. eigenvalues --  -10.26496 -10.26338 -10.26323 -10.26314 -10.25874
 Alpha  occ. eigenvalues --  -10.25335 -10.25274 -10.25241 -10.25135 -10.25080
 Alpha  occ. eigenvalues --  -10.24953 -10.24916 -10.24881 -10.24698 -10.24677
 Alpha  occ. eigenvalues --  -10.24493 -10.24321 -10.23913 -10.23772 -10.23653
 Alpha  occ. eigenvalues --  -10.23542 -10.23524 -10.23476 -10.23207 -10.23178
 Alpha  occ. eigenvalues --  -10.23151 -10.23001 -10.22924 -10.22816 -10.22808
 Alpha  occ. eigenvalues --  -10.22699 -10.22611 -10.22607 -10.22535 -10.22458
 Alpha  occ. eigenvalues --  -10.22219 -10.21937 -10.21565 -10.21448 -10.21250
 Alpha  occ. eigenvalues --  -10.21129  -3.14612  -1.87443  -1.87004  -1.86824
 Alpha  occ. eigenvalues --   -1.11005  -1.10038  -1.05665  -1.03335  -1.02219
 Alpha  occ. eigenvalues --   -1.01156  -0.99794  -0.99315  -0.98502  -0.97858
 Alpha  occ. eigenvalues --   -0.88239  -0.84804  -0.84324  -0.84099  -0.83784
 Alpha  occ. eigenvalues --   -0.83353  -0.82517  -0.82120  -0.81472  -0.81438
 Alpha  occ. eigenvalues --   -0.80683  -0.80104  -0.78806  -0.78394  -0.77999
 Alpha  occ. eigenvalues --   -0.76668  -0.76271  -0.75348  -0.75312  -0.74865
 Alpha  occ. eigenvalues --   -0.73882  -0.72853  -0.72476  -0.71987  -0.71072
 Alpha  occ. eigenvalues --   -0.69828  -0.69718  -0.69256  -0.68842  -0.68017
 Alpha  occ. eigenvalues --   -0.67684  -0.67306  -0.66623  -0.65031  -0.63888
 Alpha  occ. eigenvalues --   -0.63770  -0.62412  -0.62271  -0.60946  -0.60847
 Alpha  occ. eigenvalues --   -0.60565  -0.59968  -0.59482  -0.58971  -0.57807
 Alpha  occ. eigenvalues --   -0.57423  -0.57352  -0.57318  -0.56461  -0.55191
 Alpha  occ. eigenvalues --   -0.54522  -0.54225  -0.53907  -0.53278  -0.52941
 Alpha  occ. eigenvalues --   -0.51947  -0.51444  -0.51317  -0.50903  -0.50228
 Alpha  occ. eigenvalues --   -0.49984  -0.49747  -0.49268  -0.48526  -0.48413
 Alpha  occ. eigenvalues --   -0.48166  -0.47849  -0.47628  -0.47531  -0.47443
 Alpha  occ. eigenvalues --   -0.47129  -0.46985  -0.46804  -0.46714  -0.46607
 Alpha  occ. eigenvalues --   -0.46396  -0.46071  -0.45846  -0.45824  -0.45455
 Alpha  occ. eigenvalues --   -0.45233  -0.45045  -0.44825  -0.44766  -0.44530
 Alpha  occ. eigenvalues --   -0.44493  -0.44352  -0.43812  -0.43664  -0.43552
 Alpha  occ. eigenvalues --   -0.43274  -0.43071  -0.42639  -0.42528  -0.42479
 Alpha  occ. eigenvalues --   -0.42207  -0.41917  -0.41837  -0.41429  -0.41297
 Alpha  occ. eigenvalues --   -0.41065  -0.41045  -0.40902  -0.40831  -0.40409
 Alpha  occ. eigenvalues --   -0.40328  -0.40253  -0.39978  -0.39725  -0.39652
 Alpha  occ. eigenvalues --   -0.39528  -0.39385  -0.39219  -0.39063  -0.38919
 Alpha  occ. eigenvalues --   -0.38510  -0.38203  -0.38025  -0.37629  -0.37488
 Alpha  occ. eigenvalues --   -0.37465  -0.37358  -0.37154  -0.37102  -0.36862
 Alpha  occ. eigenvalues --   -0.36651  -0.36426  -0.36420  -0.36297  -0.36147
 Alpha  occ. eigenvalues --   -0.36061  -0.35649  -0.35632  -0.35447  -0.35119
 Alpha  occ. eigenvalues --   -0.35069  -0.34827  -0.34393  -0.33985  -0.33952
 Alpha  occ. eigenvalues --   -0.33383  -0.32799  -0.32767  -0.32578  -0.32393
 Alpha  occ. eigenvalues --   -0.32055  -0.32001  -0.31649  -0.31329  -0.31188
 Alpha  occ. eigenvalues --   -0.30814  -0.30787  -0.30003  -0.29626  -0.29255
 Alpha  occ. eigenvalues --   -0.28634  -0.28505  -0.28485  -0.27457  -0.26123
 Alpha  occ. eigenvalues --   -0.25737  -0.25693  -0.25364  -0.25230  -0.21480
 Alpha  occ. eigenvalues --   -0.19461
 Alpha virt. eigenvalues --   -0.11849  -0.05716  -0.04314  -0.02350  -0.00936
 Alpha virt. eigenvalues --    0.00617   0.00747   0.00841   0.01857   0.02983
 Alpha virt. eigenvalues --    0.03790   0.04079   0.04937   0.05619   0.05870

 Mulliken charges:
               1
     1  Mg   0.969566
     2  C   -0.005031
     3  C   -0.073196
     4  C   -0.077768
     5  C   -0.015310
     6  N   -0.403130
     7  C    0.022337
     8  C   -0.040610
     9  C   -0.140780
    10  C    0.014397
    11  C    0.038657
    12  C    0.015489
    13  C   -0.082126
    14  C    0.266524
    15  O   -0.294811
    16  O   -0.366714
    17  N   -0.532315
    18  C    0.237044
    19  C   -0.183425
    20  C   -0.052763
    21  C    0.212228
    22  C    0.078804
    23  C    0.052127
    24  O   -0.257805
    25  C   -0.037433
    26  N   -0.324667
    27  C    0.047730
    28  C   -0.093395
    29  C   -0.112696
    30  C   -0.028355
    31  C   -0.008096
    32  C   -0.032377
    33  C   -0.050231
    34  N   -0.461600
    35  C    0.145130
    36  C   -0.189323
    37  C   -0.045268
    38  C    0.171061
    39  C    0.057418
    40  C    0.128930
    41  O   -0.183356
    42  C   -0.145399
    43  C    0.260081
    44  O   -0.232761
    45  O   -0.380919
    46  C    0.120398
    47  C    0.226999
    48  C   -0.103193
    49  C   -0.258201
    50  C    0.049395
    51  C    0.047202
    52  C   -0.070890
    53  C    0.012926
    54  C   -0.233920
    55  C    0.009165
    56  C   -0.010450
    57  C   -0.063913
    58  C    0.026257
    59  C   -0.230342
    60  C   -0.026960
    61  C   -0.044762
    62  C   -0.045623
    63  C    0.001332
    64  C   -0.270985
    65  C   -0.014714
    66  C   -0.014784
    67  H    0.005614
    68  H   -0.013266
    69  H   -0.002435
    70  H    0.045427
    71  H    0.039227
    72  H    0.039458
    73  H    0.055451
    74  H    0.041849
    75  H    0.066400
    76  H    0.048924
    77  H    0.075971
    78  H    0.078266
    79  H    0.056464
    80  H    0.024375
    81  H    0.060208
    82  H    0.058351
    83  H    0.071951
    84  H    0.051786
    85  H    0.047652
    86  H    0.051620
    87  H    0.036156
    88  H    0.045293
    89  H    0.046211
    90  H    0.055945
    91  H    0.037866
    92  H    0.035899
    93  H    0.052679
    94  H    0.049127
    95  H    0.054878
    96  H    0.058887
    97  H    0.062047
    98  H    0.067651
    99  H    0.057936
   100  H    0.058355
   101  H    0.080369
   102  H    0.056380
   103  H    0.062251
   104  H    0.018899
   105  H    0.051736
   106  H    0.036672
   107  H    0.050458
   108  H    0.036752
   109  H    0.024428
   110  H    0.027537
   111  H    0.033056
   112  H    0.028435
   113  H    0.039930
   114  H    0.025665
   115  H    0.018146
   116  H    0.048128
   117  H    0.031540
   118  H    0.027140
   119  H    0.012292
   120  H    0.023531
   121  H    0.030756
   122  H    0.034422
   123  H    0.023472
   124  H    0.047629
   125  H    0.036945
   126  H    0.028461
   127  H    0.035203
   128  H    0.037507
   129  H    0.037899
   130  H    0.034505
   131  H    0.042345
   132  H    0.034194
   133  H    0.031133
   134  H    0.035412
   135  H    0.033732
   136  H    0.032547
   137  H    0.027759
   138  H    0.032014
   139  H    0.038050
   140  H    0.019642
 Sum of Mulliken charges =  -0.00000

 Dipole moment (field-independent basis, Debye):
    X=              1.9212    Y=              6.0602    Z=              1.3657  Tot=              6.5025
 Quadrupole moment (field-independent basis, Debye-Ang):
   XX=           -355.8066   YY=           -438.6392   ZZ=           -406.0763
   XY=             26.1025   XZ=             -0.8841   YZ=             46.5108

 Normal termination of Gaussian 16 at Thu Apr 28 16:12:47 2022.
