 Gaussian 16, Revision A.03,
 Gaussian 16:  ES64L-G16RevA.03 25-Dec-2016

 --------------------------------
 #p wB97XD/Def2SVP td=(nstates=5)
 --------------------------------

 -----------------------------------------------------
 step_1651_chromophore_14 TDDFT with wB97XD functional
 -----------------------------------------------------
 Symbolic Z-matrix:
 Charge =  0 Multiplicity = 1

                         Standard orientation:
 ---------------------------------------------------------------------
 Center     Atomic      Atomic             Coordinates (Angstroms)
 Number     Number       Type             X           Y           Z
 ---------------------------------------------------------------------
      1         12           0        5.223362    0.914259   -0.098051
      2          6           0        5.013793   -2.439903    0.469889
      3          6           0        4.380663    0.390088   -3.376375
      4          6           0        4.941396    4.255107   -0.407621
      5          6           0        5.573809    1.410359    3.445179
      6          7           0        4.868383   -0.790817   -1.273450
      7          6           0        4.813887   -2.077604   -0.882996
      8          6           0        4.385356   -3.061019   -2.036128
      9          6           0        4.710141   -2.169237   -3.286069
     10          6           0        4.630487   -0.748595   -2.623816
     11          6           0        6.101226   -2.378356   -3.895685
     12          6           0        2.930760   -3.562247   -2.056350
     13          6           0        1.909026   -2.681680   -1.316485
     14          6           0        0.472249   -3.137328   -1.520539
     15          8           0        0.161044   -4.168967   -2.136599
     16          8           0       -0.455710   -2.343322   -0.899710
     17          7           0        4.728246    2.132582   -1.641214
     18          6           0        4.411007    1.727729   -2.888357
     19          6           0        4.156554    2.829397   -3.670370
     20          6           0        4.359233    4.033132   -2.896322
     21          6           0        4.681303    3.533868   -1.573649
     22          6           0        3.688728    2.682899   -5.060033
     23          6           0        4.100677    5.455641   -3.347637
     24          8           0        3.685476    5.696764   -4.496381
     25          6           0        4.313088    6.660224   -2.441636
     26          7           0        5.011554    2.630318    1.409696
     27          6           0        5.074487    3.890129    0.970435
     28          6           0        5.337958    4.795982    2.170994
     29          6           0        5.442759    3.964852    3.456775
     30          6           0        5.349314    2.596313    2.734653
     31          6           0        6.624058    5.656645    1.926422
     32          6           0        4.186143    4.080439    4.412338
     33          6           0        4.335766    3.853370    5.909256
     34          7           0        5.313387   -0.264154    1.647558
     35          6           0        5.544114    0.018743    2.993110
     36          6           0        5.867941   -1.214486    3.632137
     37          6           0        5.441146   -2.243210    2.771462
     38          6           0        5.303775   -1.597050    1.507113
     39          6           0        6.182284   -1.208086    5.104030
     40          6           0        5.275682   -3.651642    2.642876
     41          8           0        5.287758   -4.596412    3.393737
     42          6           0        5.040747   -3.776616    1.106148
     43          6           0        6.114921   -4.706654    0.632270
     44          8           0        5.982178   -5.883654    0.403573
     45          8           0        7.280466   -4.044553    0.412538
     46          6           0        8.401830   -4.687482   -0.293787
     47          6           0       -1.862197   -2.875292   -0.975945
     48          6           0       -2.717928   -1.659537   -0.556989
     49          6           0       -3.558746   -0.926783   -1.306982
     50          6           0       -3.472389   -0.973950   -2.753030
     51          6           0       -4.538233    0.176555   -0.735148
     52          6           0       -6.022154   -0.166753   -0.732064
     53          6           0       -6.655396   -0.456358    0.673741
     54          6           0       -8.153827   -0.164512    0.704107
     55          6           0       -8.649587    0.306252    2.085613
     56          6           0       -9.038369   -1.438181    0.328093
     57          6           0      -10.012361   -1.270615   -0.758143
     58          6           0      -11.429686   -1.884403   -0.275384
     59          6           0      -12.114385   -0.830769    0.622016
     60          6           0      -12.307731   -1.352287    2.069034
     61          6           0      -13.493921   -0.427508    0.030862
     62          6           0      -14.080868    0.913043    0.784160
     63          6           0      -15.198866    1.543563   -0.171678
     64          6           0      -16.522574    1.768742    0.580115
     65          6           0      -17.257242    0.439107    0.790909
     66          6           0      -17.459277    2.825272   -0.088172
     67          1           0        4.129271    0.108854   -4.400542
     68          1           0        4.937502    5.345390   -0.457317
     69          1           0        5.931487    1.711872    4.431640
     70          1           0        5.037668   -3.934568   -2.048309
     71          1           0        3.893319   -2.201625   -4.006188
     72          1           0        6.486194   -1.361584   -3.972881
     73          1           0        6.047186   -2.875559   -4.864531
     74          1           0        6.898013   -2.869431   -3.337880
     75          1           0        2.860583   -4.557764   -1.619400
     76          1           0        2.593515   -3.572775   -3.093199
     77          1           0        1.851241   -1.603351   -1.460127
     78          1           0        2.305271   -2.818532   -0.310769
     79          1           0        2.758678    3.240610   -5.172079
     80          1           0        3.352294    1.700205   -5.388453
     81          1           0        4.427839    3.057251   -5.769356
     82          1           0        5.255249    6.718082   -1.896567
     83          1           0        3.502134    6.757545   -1.719037
     84          1           0        4.401083    7.558017   -3.053038
     85          1           0        4.497504    5.478651    2.295964
     86          1           0        6.377940    4.115938    3.996294
     87          1           0        7.379246    5.327288    2.639749
     88          1           0        6.426100    6.723146    2.039168
     89          1           0        7.122269    5.597394    0.958949
     90          1           0        3.466122    3.338438    4.066416
     91          1           0        3.767064    5.064019    4.199787
     92          1           0        5.392769    3.680447    6.109772
     93          1           0        3.724500    2.984946    6.153475
     94          1           0        4.032630    4.682961    6.547595
     95          1           0        5.883637   -2.195438    5.458454
     96          1           0        5.553718   -0.524036    5.673188
     97          1           0        7.264749   -1.080309    5.136047
     98          1           0        4.099720   -4.296919    0.928047
     99          1           0        9.122194   -4.726632    0.522733
    100          1           0        8.823836   -3.990581   -1.018221
    101          1           0        8.184278   -5.689011   -0.665600
    102          1           0       -1.974106   -3.663887   -0.231867
    103          1           0       -2.127715   -3.325336   -1.932219
    104          1           0       -2.735134   -1.412300    0.503833
    105          1           0       -3.550853    0.026083   -3.179426
    106          1           0       -4.374713   -1.534531   -2.994255
    107          1           0       -2.673006   -1.620729   -3.116486
    108          1           0       -4.363210    1.086359   -1.309727
    109          1           0       -4.302072    0.381282    0.309536
    110          1           0       -5.950257   -1.136549   -1.222447
    111          1           0       -6.709997    0.422481   -1.339489
    112          1           0       -6.133622    0.140396    1.422386
    113          1           0       -6.519913   -1.533262    0.770075
    114          1           0       -8.446221    0.545713   -0.069740
    115          1           0       -8.228442    1.303866    2.208717
    116          1           0       -8.244694   -0.244593    2.934525
    117          1           0       -9.713407    0.498466    1.946565
    118          1           0       -9.458054   -1.903417    1.220396
    119          1           0       -8.351691   -2.201044   -0.038710
    120          1           0       -9.458901   -1.684328   -1.600630
    121          1           0      -10.188237   -0.241946   -1.074131
    122          1           0      -11.376143   -2.848822    0.229444
    123          1           0      -12.008477   -2.008917   -1.191430
    124          1           0      -11.552611    0.086318    0.798449
    125          1           0      -11.886209   -0.592048    2.725970
    126          1           0      -11.758718   -2.279640    2.233998
    127          1           0      -13.325151   -1.592700    2.377650
    128          1           0      -14.180640   -1.250976    0.225860
    129          1           0      -13.422286   -0.291294   -1.048089
    130          1           0      -13.340168    1.708575    0.864308
    131          1           0      -14.307229    0.606363    1.805047
    132          1           0      -15.498586    0.852616   -0.958055
    133          1           0      -14.990415    2.512960   -0.624728
    134          1           0      -16.326105    2.151915    1.580857
    135          1           0      -16.786835   -0.383041    0.251377
    136          1           0      -18.322010    0.488243    0.564039
    137          1           0      -17.194126    0.186754    1.849491
    138          1           0      -17.556121    3.705503    0.547307
    139          1           0      -18.461810    2.498887   -0.365953
    140          1           0      -16.953365    3.212333   -0.973091
 ---------------------------------------------------------------------

 SCF Done:  E(RwB97XD) =  -3007.83970191     A.U. after   20 cycles

 Excitation energies and oscillator strengths:

 Excited State   1:      Singlet-A      1.6472 eV  752.69 nm  f=0.3820  <S**2>=0.000
     245 -> 248        0.18342
     246 -> 247        0.68271
     245 <- 248        0.11682
 This state for optimization and/or second-order correction.
 Total Energy, E(TD-HF/TD-DFT) =  -3007.77916796
 Copying the excited state density for this state as the 1-particle RhoCI density.

 Excited State   2:      Singlet-A      2.1458 eV  577.79 nm  f=0.1141  <S**2>=0.000
     245 -> 247        0.64371
     246 -> 248       -0.27277

 Excited State   3:      Singlet-A      3.2684 eV  379.35 nm  f=0.0044  <S**2>=0.000
     243 -> 247        0.65659
     244 -> 247        0.17803

 Excited State   4:      Singlet-A      3.4081 eV  363.79 nm  f=0.0325  <S**2>=0.000
     240 -> 249       -0.10005
     242 -> 247        0.62477
     246 -> 248        0.23754

 Excited State   5:      Singlet-A      3.4990 eV  354.34 nm  f=0.0847  <S**2>=0.000
     239 -> 247        0.12443
     239 -> 249        0.11030
     240 -> 247        0.49187
     240 -> 249        0.17762
     240 -> 250       -0.13222
     241 -> 249        0.17972
     245 -> 247        0.10552
     246 -> 248        0.29303

 The electronic state is 1-A.
 Alpha  occ. eigenvalues --  -46.95414 -19.29987 -19.29548 -19.24389 -19.24190
 Alpha  occ. eigenvalues --  -19.23770 -19.23632 -14.47599 -14.46820 -14.44492
 Alpha  occ. eigenvalues --  -14.43986 -10.42902 -10.42463 -10.39368 -10.38959
 Alpha  occ. eigenvalues --  -10.36334 -10.36028 -10.35827 -10.35814 -10.35296
 Alpha  occ. eigenvalues --  -10.35159 -10.35136 -10.34317 -10.33508 -10.32926
 Alpha  occ. eigenvalues --  -10.32739 -10.32623 -10.32589 -10.32579 -10.32303
 Alpha  occ. eigenvalues --  -10.31835 -10.31661 -10.31612 -10.31555 -10.31524
 Alpha  occ. eigenvalues --  -10.31343 -10.31327 -10.31291 -10.31004 -10.30972
 Alpha  occ. eigenvalues --  -10.30839 -10.30711 -10.30310 -10.30154 -10.30145
 Alpha  occ. eigenvalues --  -10.30033 -10.29920 -10.29888 -10.29473 -10.29452
 Alpha  occ. eigenvalues --  -10.29424 -10.29367 -10.29280 -10.29177 -10.29148
 Alpha  occ. eigenvalues --  -10.29044 -10.28975 -10.28965 -10.28961 -10.28901
 Alpha  occ. eigenvalues --  -10.28574 -10.28378 -10.27998 -10.27862 -10.27605
 Alpha  occ. eigenvalues --  -10.27555  -3.21434  -1.95014  -1.94577  -1.94393
 Alpha  occ. eigenvalues --   -1.18394  -1.17412  -1.13122  -1.10870  -1.09569
 Alpha  occ. eigenvalues --   -1.08488  -1.07194  -1.06727  -1.05869  -1.05257
 Alpha  occ. eigenvalues --   -0.95828  -0.92471  -0.91913  -0.91720  -0.91448
 Alpha  occ. eigenvalues --   -0.90983  -0.90186  -0.89733  -0.89131  -0.89039
 Alpha  occ. eigenvalues --   -0.88350  -0.87761  -0.86460  -0.86013  -0.85634
 Alpha  occ. eigenvalues --   -0.84325  -0.83955  -0.83068  -0.82950  -0.82514
 Alpha  occ. eigenvalues --   -0.81559  -0.80484  -0.80099  -0.79651  -0.78701
 Alpha  occ. eigenvalues --   -0.77497  -0.77328  -0.76957  -0.76532  -0.75603
 Alpha  occ. eigenvalues --   -0.75319  -0.74911  -0.74170  -0.72641  -0.71439
 Alpha  occ. eigenvalues --   -0.71287  -0.70017  -0.69879  -0.68540  -0.68386
 Alpha  occ. eigenvalues --   -0.68059  -0.67472  -0.67124  -0.66417  -0.65501
 Alpha  occ. eigenvalues --   -0.65019  -0.64868  -0.64754  -0.64099  -0.62654
 Alpha  occ. eigenvalues --   -0.61947  -0.61626  -0.61370  -0.60690  -0.60328
 Alpha  occ. eigenvalues --   -0.59457  -0.58924  -0.58757  -0.58423  -0.57657
 Alpha  occ. eigenvalues --   -0.57360  -0.57175  -0.56673  -0.55891  -0.55839
 Alpha  occ. eigenvalues --   -0.55497  -0.55144  -0.55020  -0.54963  -0.54810
 Alpha  occ. eigenvalues --   -0.54468  -0.54386  -0.54227  -0.54110  -0.54029
 Alpha  occ. eigenvalues --   -0.53767  -0.53483  -0.53242  -0.53055  -0.52803
 Alpha  occ. eigenvalues --   -0.52597  -0.52389  -0.52277  -0.52088  -0.51875
 Alpha  occ. eigenvalues --   -0.51842  -0.51647  -0.51106  -0.51009  -0.50857
 Alpha  occ. eigenvalues --   -0.50555  -0.50322  -0.49927  -0.49793  -0.49747
 Alpha  occ. eigenvalues --   -0.49418  -0.49164  -0.49090  -0.48671  -0.48553
 Alpha  occ. eigenvalues --   -0.48292  -0.48199  -0.48130  -0.48041  -0.47655
 Alpha  occ. eigenvalues --   -0.47558  -0.47423  -0.47215  -0.46879  -0.46869
 Alpha  occ. eigenvalues --   -0.46697  -0.46589  -0.46356  -0.46296  -0.46086
 Alpha  occ. eigenvalues --   -0.45666  -0.45312  -0.45171  -0.44719  -0.44642
 Alpha  occ. eigenvalues --   -0.44623  -0.44349  -0.44289  -0.44216  -0.43985
 Alpha  occ. eigenvalues --   -0.43690  -0.43643  -0.43549  -0.43447  -0.43196
 Alpha  occ. eigenvalues --   -0.43169  -0.42675  -0.42643  -0.42563  -0.42146
 Alpha  occ. eigenvalues --   -0.42073  -0.41902  -0.41411  -0.41007  -0.40965
 Alpha  occ. eigenvalues --   -0.40430  -0.39821  -0.39794  -0.39545  -0.39465
 Alpha  occ. eigenvalues --   -0.39092  -0.38936  -0.38636  -0.38404  -0.38240
 Alpha  occ. eigenvalues --   -0.37870  -0.37746  -0.36854  -0.36455  -0.36197
 Alpha  occ. eigenvalues --   -0.35755  -0.35399  -0.35293  -0.34090  -0.32985
 Alpha  occ. eigenvalues --   -0.32938  -0.32380  -0.31991  -0.31957  -0.26456
 Alpha  occ. eigenvalues --   -0.23643
 Alpha virt. eigenvalues --   -0.07775  -0.00314   0.01953   0.04085   0.04996
 Alpha virt. eigenvalues --    0.07398   0.07464   0.07596   0.08677   0.09479
 Alpha virt. eigenvalues --    0.10362   0.10850   0.11613   0.12424   0.12572

 Mulliken charges:
               1
     1  Mg   0.959842
     2  C    0.003118
     3  C   -0.096810
     4  C   -0.088018
     5  C   -0.027240
     6  N   -0.369069
     7  C   -0.015371
     8  C   -0.022270
     9  C   -0.110878
    10  C    0.005301
    11  C    0.044403
    12  C    0.025105
    13  C   -0.059173
    14  C    0.257856
    15  O   -0.293033
    16  O   -0.366085
    17  N   -0.497936
    18  C    0.227729
    19  C   -0.169192
    20  C   -0.050658
    21  C    0.210175
    22  C    0.086417
    23  C    0.047630
    24  O   -0.252544
    25  C   -0.025704
    26  N   -0.291964
    27  C    0.031327
    28  C   -0.067677
    29  C   -0.085097
    30  C   -0.037896
    31  C    0.002153
    32  C   -0.020875
    33  C   -0.034716
    34  N   -0.425579
    35  C    0.130492
    36  C   -0.183711
    37  C   -0.047398
    38  C    0.148706
    39  C    0.068545
    40  C    0.116803
    41  O   -0.173452
    42  C   -0.105023
    43  C    0.233731
    44  O   -0.226770
    45  O   -0.379928
    46  C    0.135166
    47  C    0.240086
    48  C   -0.111229
    49  C   -0.241584
    50  C    0.061277
    51  C    0.062266
    52  C   -0.051009
    53  C    0.029164
    54  C   -0.202923
    55  C    0.030513
    56  C    0.001657
    57  C   -0.044001
    58  C    0.043575
    59  C   -0.196075
    60  C   -0.017942
    61  C   -0.025151
    62  C   -0.034159
    63  C    0.022552
    64  C   -0.243895
    65  C   -0.003291
    66  C   -0.002112
    67  H   -0.000301
    68  H   -0.026275
    69  H   -0.010541
    70  H    0.035294
    71  H    0.030112
    72  H    0.031007
    73  H    0.051293
    74  H    0.037360
    75  H    0.060890
    76  H    0.039652
    77  H    0.067964
    78  H    0.064909
    79  H    0.052178
    80  H    0.020227
    81  H    0.056972
    82  H    0.053534
    83  H    0.067786
    84  H    0.050469
    85  H    0.037602
    86  H    0.041658
    87  H    0.029900
    88  H    0.040319
    89  H    0.039673
    90  H    0.047136
    91  H    0.029079
    92  H    0.028504
    93  H    0.047216
    94  H    0.044427
    95  H    0.050684
    96  H    0.054103
    97  H    0.057068
    98  H    0.060300
    99  H    0.053584
   100  H    0.054614
   101  H    0.077576
   102  H    0.052737
   103  H    0.057619
   104  H    0.015735
   105  H    0.047271
   106  H    0.028972
   107  H    0.044601
   108  H    0.029978
   109  H    0.015254
   110  H    0.012857
   111  H    0.025850
   112  H    0.019579
   113  H    0.029797
   114  H    0.010503
   115  H    0.011320
   116  H    0.043394
   117  H    0.017660
   118  H    0.013214
   119  H    0.002393
   120  H    0.017195
   121  H    0.020390
   122  H    0.026258
   123  H    0.015470
   124  H    0.025322
   125  H    0.030731
   126  H    0.022091
   127  H    0.029753
   128  H    0.025776
   129  H    0.028078
   130  H    0.027541
   131  H    0.033588
   132  H    0.022111
   133  H    0.023227
   134  H    0.024030
   135  H    0.025486
   136  H    0.026805
   137  H    0.021968
   138  H    0.026457
   139  H    0.032508
   140  H    0.012363
 Sum of Mulliken charges =  -0.00000

 Dipole moment (field-independent basis, Debye):
    X=              1.9688    Y=              6.2032    Z=              1.2582  Tot=              6.6286
 Quadrupole moment (field-independent basis, Debye-Ang):
   XX=           -354.6839   YY=           -437.9792   ZZ=           -405.9901
   XY=             26.5358   XZ=             -1.5582   YZ=             45.7908

 Normal termination of Gaussian 16 at Thu Apr 28 16:42:49 2022.
