 Gaussian 16, Revision A.03,
 Gaussian 16:  ES64L-G16RevA.03 25-Dec-2016

 --------------------
 #p ZINDO=(nstates=5)
 --------------------

 ------------------------------
 step_1651_chromophore_14 ZINDO
 ------------------------------
 Symbolic Z-matrix:
 Charge =  0 Multiplicity = 1

                         Standard orientation:
 ---------------------------------------------------------------------
 Center     Atomic      Atomic             Coordinates (Angstroms)
 Number     Number       Type             X           Y           Z
 ---------------------------------------------------------------------
      1         12           0        5.223362    0.914259   -0.098051
      2          6           0        5.013793   -2.439903    0.469889
      3          6           0        4.380663    0.390088   -3.376375
      4          6           0        4.941396    4.255107   -0.407621
      5          6           0        5.573809    1.410359    3.445179
      6          7           0        4.868383   -0.790817   -1.273450
      7          6           0        4.813887   -2.077604   -0.882996
      8          6           0        4.385356   -3.061019   -2.036128
      9          6           0        4.710141   -2.169237   -3.286069
     10          6           0        4.630487   -0.748595   -2.623816
     11          6           0        6.101226   -2.378356   -3.895685
     12          6           0        2.930760   -3.562247   -2.056350
     13          6           0        1.909026   -2.681680   -1.316485
     14          6           0        0.472249   -3.137328   -1.520539
     15          8           0        0.161044   -4.168967   -2.136599
     16          8           0       -0.455710   -2.343322   -0.899710
     17          7           0        4.728246    2.132582   -1.641214
     18          6           0        4.411007    1.727729   -2.888357
     19          6           0        4.156554    2.829397   -3.670370
     20          6           0        4.359233    4.033132   -2.896322
     21          6           0        4.681303    3.533868   -1.573649
     22          6           0        3.688728    2.682899   -5.060033
     23          6           0        4.100677    5.455641   -3.347637
     24          8           0        3.685476    5.696764   -4.496381
     25          6           0        4.313088    6.660224   -2.441636
     26          7           0        5.011554    2.630318    1.409696
     27          6           0        5.074487    3.890129    0.970435
     28          6           0        5.337958    4.795982    2.170994
     29          6           0        5.442759    3.964852    3.456775
     30          6           0        5.349314    2.596313    2.734653
     31          6           0        6.624058    5.656645    1.926422
     32          6           0        4.186143    4.080439    4.412338
     33          6           0        4.335766    3.853370    5.909256
     34          7           0        5.313387   -0.264154    1.647558
     35          6           0        5.544114    0.018743    2.993110
     36          6           0        5.867941   -1.214486    3.632137
     37          6           0        5.441146   -2.243210    2.771462
     38          6           0        5.303775   -1.597050    1.507113
     39          6           0        6.182284   -1.208086    5.104030
     40          6           0        5.275682   -3.651642    2.642876
     41          8           0        5.287758   -4.596412    3.393737
     42          6           0        5.040747   -3.776616    1.106148
     43          6           0        6.114921   -4.706654    0.632270
     44          8           0        5.982178   -5.883654    0.403573
     45          8           0        7.280466   -4.044553    0.412538
     46          6           0        8.401830   -4.687482   -0.293787
     47          6           0       -1.862197   -2.875292   -0.975945
     48          6           0       -2.717928   -1.659537   -0.556989
     49          6           0       -3.558746   -0.926783   -1.306982
     50          6           0       -3.472389   -0.973950   -2.753030
     51          6           0       -4.538233    0.176555   -0.735148
     52          6           0       -6.022154   -0.166753   -0.732064
     53          6           0       -6.655396   -0.456358    0.673741
     54          6           0       -8.153827   -0.164512    0.704107
     55          6           0       -8.649587    0.306252    2.085613
     56          6           0       -9.038369   -1.438181    0.328093
     57          6           0      -10.012361   -1.270615   -0.758143
     58          6           0      -11.429686   -1.884403   -0.275384
     59          6           0      -12.114385   -0.830769    0.622016
     60          6           0      -12.307731   -1.352287    2.069034
     61          6           0      -13.493921   -0.427508    0.030862
     62          6           0      -14.080868    0.913043    0.784160
     63          6           0      -15.198866    1.543563   -0.171678
     64          6           0      -16.522574    1.768742    0.580115
     65          6           0      -17.257242    0.439107    0.790909
     66          6           0      -17.459277    2.825272   -0.088172
     67          1           0        4.129271    0.108854   -4.400542
     68          1           0        4.937502    5.345390   -0.457317
     69          1           0        5.931487    1.711872    4.431640
     70          1           0        5.037668   -3.934568   -2.048309
     71          1           0        3.893319   -2.201625   -4.006188
     72          1           0        6.486194   -1.361584   -3.972881
     73          1           0        6.047186   -2.875559   -4.864531
     74          1           0        6.898013   -2.869431   -3.337880
     75          1           0        2.860583   -4.557764   -1.619400
     76          1           0        2.593515   -3.572775   -3.093199
     77          1           0        1.851241   -1.603351   -1.460127
     78          1           0        2.305271   -2.818532   -0.310769
     79          1           0        2.758678    3.240610   -5.172079
     80          1           0        3.352294    1.700205   -5.388453
     81          1           0        4.427839    3.057251   -5.769356
     82          1           0        5.255249    6.718082   -1.896567
     83          1           0        3.502134    6.757545   -1.719037
     84          1           0        4.401083    7.558017   -3.053038
     85          1           0        4.497504    5.478651    2.295964
     86          1           0        6.377940    4.115938    3.996294
     87          1           0        7.379246    5.327288    2.639749
     88          1           0        6.426100    6.723146    2.039168
     89          1           0        7.122269    5.597394    0.958949
     90          1           0        3.466122    3.338438    4.066416
     91          1           0        3.767064    5.064019    4.199787
     92          1           0        5.392769    3.680447    6.109772
     93          1           0        3.724500    2.984946    6.153475
     94          1           0        4.032630    4.682961    6.547595
     95          1           0        5.883637   -2.195438    5.458454
     96          1           0        5.553718   -0.524036    5.673188
     97          1           0        7.264749   -1.080309    5.136047
     98          1           0        4.099720   -4.296919    0.928047
     99          1           0        9.122194   -4.726632    0.522733
    100          1           0        8.823836   -3.990581   -1.018221
    101          1           0        8.184278   -5.689011   -0.665600
    102          1           0       -1.974106   -3.663887   -0.231867
    103          1           0       -2.127715   -3.325336   -1.932219
    104          1           0       -2.735134   -1.412300    0.503833
    105          1           0       -3.550853    0.026083   -3.179426
    106          1           0       -4.374713   -1.534531   -2.994255
    107          1           0       -2.673006   -1.620729   -3.116486
    108          1           0       -4.363210    1.086359   -1.309727
    109          1           0       -4.302072    0.381282    0.309536
    110          1           0       -5.950257   -1.136549   -1.222447
    111          1           0       -6.709997    0.422481   -1.339489
    112          1           0       -6.133622    0.140396    1.422386
    113          1           0       -6.519913   -1.533262    0.770075
    114          1           0       -8.446221    0.545713   -0.069740
    115          1           0       -8.228442    1.303866    2.208717
    116          1           0       -8.244694   -0.244593    2.934525
    117          1           0       -9.713407    0.498466    1.946565
    118          1           0       -9.458054   -1.903417    1.220396
    119          1           0       -8.351691   -2.201044   -0.038710
    120          1           0       -9.458901   -1.684328   -1.600630
    121          1           0      -10.188237   -0.241946   -1.074131
    122          1           0      -11.376143   -2.848822    0.229444
    123          1           0      -12.008477   -2.008917   -1.191430
    124          1           0      -11.552611    0.086318    0.798449
    125          1           0      -11.886209   -0.592048    2.725970
    126          1           0      -11.758718   -2.279640    2.233998
    127          1           0      -13.325151   -1.592700    2.377650
    128          1           0      -14.180640   -1.250976    0.225860
    129          1           0      -13.422286   -0.291294   -1.048089
    130          1           0      -13.340168    1.708575    0.864308
    131          1           0      -14.307229    0.606363    1.805047
    132          1           0      -15.498586    0.852616   -0.958055
    133          1           0      -14.990415    2.512960   -0.624728
    134          1           0      -16.326105    2.151915    1.580857
    135          1           0      -16.786835   -0.383041    0.251377
    136          1           0      -18.322010    0.488243    0.564039
    137          1           0      -17.194126    0.186754    1.849491
    138          1           0      -17.556121    3.705503    0.547307
    139          1           0      -18.461810    2.498887   -0.365953
    140          1           0      -16.953365    3.212333   -0.973091
 ---------------------------------------------------------------------

 SCF Done:  E(RZINDO/S) =  -474.387500164     A.U. after   20 cycles

 Excitation energies and oscillator strengths:

 Excited State   1:      Singlet-A      1.2305 eV 1007.60 nm  f=0.6130  <S**2>=0.000
     175 ->178         0.19490
     176 ->177         0.66136
 This state for optimization and/or second-order correction.
 Total Energy, E(CIS/TDA) =  -474.342280257
 Copying the excited state density for this state as the 1-particle RhoCI density.

 Excited State   2:      Singlet-A      1.8939 eV  654.66 nm  f=0.0714  <S**2>=0.000
     175 ->177         0.56309
     176 ->178        -0.40218

 Excited State   3:      Singlet-A      2.9015 eV  427.32 nm  f=0.0166  <S**2>=0.000
     169 ->177         0.21332
     169 ->179         0.24994
     169 ->180        -0.13837
     169 ->187         0.10968
     170 ->177         0.19770
     170 ->179         0.21083
     170 ->180        -0.13011
     172 ->177         0.20016
     173 ->177         0.13981
     176 ->179         0.20216

 Excited State   4:      Singlet-A      2.9682 eV  417.71 nm  f=0.0160  <S**2>=0.000
     168 ->177         0.30380
     168 ->178        -0.17635
     168 ->179        -0.32090
     168 ->180        -0.31680
     168 ->181         0.17751
     168 ->184        -0.11273
     168 ->185        -0.22739

 Excited State   5:      Singlet-A      3.0081 eV  412.17 nm  f=0.7407  <S**2>=0.000
     169 ->177         0.11829
     169 ->179         0.12641
     172 ->177        -0.12284
     175 ->177         0.30963
     176 ->178         0.44591
     176 ->179        -0.31012

 The electronic state is 1-A.
 Alpha  occ. eigenvalues --   -1.86493  -1.83088  -1.81801  -1.74240  -1.72652
 Alpha  occ. eigenvalues --   -1.70977  -1.66038  -1.59848  -1.59528  -1.57557
 Alpha  occ. eigenvalues --   -1.56035  -1.51836  -1.49235  -1.49090  -1.47672
 Alpha  occ. eigenvalues --   -1.45825  -1.42145  -1.40492  -1.39761  -1.38304
 Alpha  occ. eigenvalues --   -1.37267  -1.34594  -1.32058  -1.31498  -1.29843
 Alpha  occ. eigenvalues --   -1.26781  -1.26607  -1.22306  -1.21064  -1.19038
 Alpha  occ. eigenvalues --   -1.16560  -1.15796  -1.14381  -1.14331  -1.13539
 Alpha  occ. eigenvalues --   -1.13426  -1.10598  -1.08888  -1.06952  -1.04171
 Alpha  occ. eigenvalues --   -1.03292  -1.01907  -0.99809  -0.97755  -0.97108
 Alpha  occ. eigenvalues --   -0.96689  -0.94272  -0.93515  -0.92958  -0.91623
 Alpha  occ. eigenvalues --   -0.91500  -0.90264  -0.88802  -0.88625  -0.87509
 Alpha  occ. eigenvalues --   -0.86706  -0.84025  -0.83917  -0.82761  -0.81398
 Alpha  occ. eigenvalues --   -0.80454  -0.78859  -0.78739  -0.77860  -0.76876
 Alpha  occ. eigenvalues --   -0.76245  -0.75280  -0.74505  -0.74155  -0.73481
 Alpha  occ. eigenvalues --   -0.73196  -0.72881  -0.72214  -0.71944  -0.71241
 Alpha  occ. eigenvalues --   -0.70606  -0.69631  -0.69353  -0.69094  -0.68201
 Alpha  occ. eigenvalues --   -0.67810  -0.67338  -0.66553  -0.66433  -0.66015
 Alpha  occ. eigenvalues --   -0.65324  -0.65085  -0.64912  -0.64562  -0.63890
 Alpha  occ. eigenvalues --   -0.63129  -0.62751  -0.62472  -0.62233  -0.61979
 Alpha  occ. eigenvalues --   -0.61634  -0.61070  -0.60878  -0.60309  -0.59560
 Alpha  occ. eigenvalues --   -0.59399  -0.59239  -0.59032  -0.58367  -0.57951
 Alpha  occ. eigenvalues --   -0.57774  -0.57702  -0.57597  -0.56730  -0.56691
 Alpha  occ. eigenvalues --   -0.56340  -0.56229  -0.55789  -0.55386  -0.54848
 Alpha  occ. eigenvalues --   -0.54192  -0.53578  -0.53499  -0.53107  -0.52827
 Alpha  occ. eigenvalues --   -0.52748  -0.52411  -0.51884  -0.51801  -0.51567
 Alpha  occ. eigenvalues --   -0.51333  -0.50989  -0.50831  -0.50402  -0.50267
 Alpha  occ. eigenvalues --   -0.50159  -0.49404  -0.49231  -0.49169  -0.49018
 Alpha  occ. eigenvalues --   -0.48805  -0.48662  -0.48163  -0.48006  -0.47804
 Alpha  occ. eigenvalues --   -0.47674  -0.47236  -0.47085  -0.46859  -0.46600
 Alpha  occ. eigenvalues --   -0.46415  -0.45910  -0.45633  -0.45453  -0.45438
 Alpha  occ. eigenvalues --   -0.45325  -0.45089  -0.44752  -0.44468  -0.44078
 Alpha  occ. eigenvalues --   -0.43645  -0.43528  -0.43227  -0.42065  -0.41945
 Alpha  occ. eigenvalues --   -0.41863  -0.41333  -0.41160  -0.39644  -0.38754
 Alpha  occ. eigenvalues --   -0.38226  -0.37511  -0.35902  -0.35449  -0.35094
 Alpha  occ. eigenvalues --   -0.33583  -0.33055  -0.32675  -0.32087  -0.27104
 Alpha  occ. eigenvalues --   -0.22514
 Alpha virt. eigenvalues --   -0.09357  -0.02716  -0.01128   0.00871   0.01380
 Alpha virt. eigenvalues --    0.01746   0.02585   0.03189   0.04487   0.05026
 Alpha virt. eigenvalues --    0.05881   0.06729   0.06958   0.07765   0.07910

 Mulliken charges:
               1
     1  Mg   0.429287
     2  C   -0.041519
     3  C   -0.082315
     4  C   -0.083273
     5  C   -0.079135
     6  N   -0.273336
     7  C    0.122169
     8  C    0.000869
     9  C    0.000918
    10  C    0.122163
    11  C   -0.048933
    12  C   -0.014046
    13  C   -0.000371
    14  C    0.460187
    15  O   -0.528174
    16  O   -0.265770
    17  N   -0.332215
    18  C    0.125217
    19  C    0.049823
    20  C   -0.058222
    21  C    0.129867
    22  C   -0.039361
    23  C    0.327801
    24  O   -0.528582
    25  C   -0.028987
    26  N   -0.273415
    27  C    0.148534
    28  C    0.018891
    29  C   -0.000791
    30  C    0.118169
    31  C   -0.057496
    32  C   -0.029193
    33  C   -0.054019
    34  N   -0.331370
    35  C    0.083045
    36  C    0.033456
    37  C   -0.055008
    38  C    0.115934
    39  C   -0.047400
    40  C    0.339368
    41  O   -0.502250
    42  C    0.058268
    43  C    0.491124
    44  O   -0.519980
    45  O   -0.286168
    46  C    0.073831
    47  C    0.109810
    48  C   -0.103582
    49  C    0.005917
    50  C   -0.043144
    51  C   -0.019709
    52  C   -0.044558
    53  C   -0.032661
    54  C   -0.020197
    55  C   -0.063370
    56  C   -0.038861
    57  C   -0.038059
    58  C   -0.031335
    59  C   -0.013710
    60  C   -0.062759
    61  C   -0.042524
    62  C   -0.048014
    63  C   -0.035911
    64  C   -0.012842
    65  C   -0.058465
    66  C   -0.063216
    67  H    0.037445
    68  H    0.021315
    69  H    0.023472
    70  H    0.032008
    71  H    0.034550
    72  H    0.018708
    73  H    0.023536
    74  H    0.028667
    75  H    0.038482
    76  H    0.028572
    77  H    0.047153
    78  H    0.046049
    79  H    0.033267
    80  H    0.019016
    81  H    0.039013
    82  H    0.027992
    83  H    0.041733
    84  H    0.032602
    85  H    0.029691
    86  H    0.042973
    87  H    0.019698
    88  H    0.018438
    89  H    0.023665
    90  H    0.024705
    91  H    0.016125
    92  H    0.018739
    93  H    0.024121
    94  H    0.023341
    95  H    0.025104
    96  H    0.034032
    97  H    0.041041
    98  H    0.051881
    99  H    0.033952
   100  H    0.037053
   101  H    0.062135
   102  H    0.043138
   103  H    0.060326
   104  H    0.021708
   105  H    0.033249
   106  H    0.023897
   107  H    0.030258
   108  H    0.020538
   109  H    0.019225
   110  H    0.011598
   111  H    0.029223
   112  H    0.024293
   113  H    0.026813
   114  H    0.024236
   115  H   -0.001433
   116  H    0.036530
   117  H    0.027588
   118  H    0.018863
   119  H    0.004529
   120  H    0.018774
   121  H    0.017019
   122  H    0.031674
   123  H    0.010757
   124  H    0.027654
   125  H    0.014389
   126  H    0.013573
   127  H    0.021022
   128  H    0.021152
   129  H    0.021236
   130  H    0.018066
   131  H    0.036026
   132  H    0.022878
   133  H    0.024896
   134  H    0.015655
   135  H    0.019799
   136  H    0.019403
   137  H    0.009748
   138  H    0.013439
   139  H    0.024962
   140  H    0.012623
 Sum of Mulliken charges =  -0.00000

 Dipole moment (field-independent basis, Debye):
    X=              2.7151    Y=              8.1293    Z=              1.3463  Tot=              8.6759
 N-N= 4.294311965689D+03 E-N= 0.000000000000D+00  KE=-9.262342674212D+03
 Leave Link  601 at Thu Apr 28 16:55:22 2022, MaxMem=  6710886400 cpu:               0.8 elap:               0.1
 (Enter /sw/apps/gaussian-16.0/g16/l9999.exe)
 1\1\GINC-BP1-COMPUTE068\SP\RZINDO CIS\STO-3G\C55H74Mg1N4O6\OF15641\28-
 Apr-2022\0\\#p ZINDO=(nstates=5)\\step_1651_chromophore_14 ZINDO\\0,1\
 Mg,0,46.406,44.022,43.858\C,0,43.032,43.596,43.631\C,0,46.85,40.693,43
 .185\C,0,49.699,44.667,43.581\C,0,45.865,47.572,44.026\N,0,45.112,42.3
 92,43.569\C,0,43.768,42.395,43.499\C,0,43.16,40.989,43.133\C,0,44.368,
 40.064,43.518\C,0,45.541,41.1,43.4\C,0,44.326,39.49,44.939\C,0,42.702,
 40.754,41.683\C,0,43.346,41.663,40.622\C,0,42.984,41.266,39.199\O,0,42

 Normal termination of Gaussian 16 at Thu Apr 28 16:55:22 2022.
