 Gaussian 16, Revision A.03,
 Gaussian 16:  ES64L-G16RevA.03 25-Dec-2016

 ------------------------------
 #p blyp/Def2SVP td=(nstates=5)
 ------------------------------

 --------------------------------------------------
 step_801_chromophore_13 TDDFT with blyp functional
 --------------------------------------------------
 Symbolic Z-matrix:
 Charge =  0 Multiplicity = 1

                         Standard orientation:
 ---------------------------------------------------------------------
 Center     Atomic      Atomic             Coordinates (Angstroms)
 Number     Number       Type             X           Y           Z
 ---------------------------------------------------------------------
      1         12           0       -5.847766    0.410157   -0.231909
      2          6           0       -3.587534   -2.181314    0.070992
      3          6           0       -3.412949    2.724519    0.850471
      4          6           0       -8.259885    2.696691    0.175014
      5          6           0       -8.472291   -2.065644   -0.417589
      6          7           0       -3.821001    0.276503    0.494500
      7          6           0       -3.034423   -0.907977    0.380332
      8          6           0       -1.568517   -0.688749    0.478803
      9          6           0       -1.517174    0.775259    0.839720
     10          6           0       -3.018810    1.315589    0.772767
     11          6           0       -1.048180    1.091881    2.303264
     12          6           0       -0.816896   -1.015885   -0.855754
     13          6           0        0.426791   -1.992462   -0.856459
     14          6           0        1.791469   -1.577651   -1.442050
     15          8           0        1.925335   -0.657609   -2.302918
     16          8           0        2.763339   -2.435561   -1.135289
     17          7           0       -5.851122    2.412769    0.352843
     18          6           0       -4.710196    3.202166    0.619596
     19          6           0       -5.094015    4.644556    0.647112
     20          6           0       -6.514047    4.627761    0.484599
     21          6           0       -6.960074    3.248918    0.285819
     22          6           0       -4.150722    5.795262    0.921731
     23          6           0       -7.374356    5.795935    0.469805
     24          8           0       -8.584335    5.676629    0.402027
     25          6           0       -6.678303    7.157614    0.348733
     26          7           0       -8.081405    0.347619   -0.100650
     27          6           0       -8.795791    1.477301    0.119587
     28          6           0      -10.315677    1.188658    0.028574
     29          6           0      -10.380467   -0.399914   -0.246880
     30          6           0       -8.900618   -0.729933   -0.268828
     31          6           0      -11.119143    1.579492    1.352019
     32          6           0      -11.271717   -0.693584   -1.507923
     33          6           0      -10.659087   -0.287644   -2.933811
     34          7           0       -6.003914   -1.647733   -0.335154
     35          6           0       -7.116825   -2.464374   -0.434690
     36          6           0       -6.594681   -3.792611   -0.551946
     37          6           0       -5.247874   -3.771283   -0.337130
     38          6           0       -4.953761   -2.414032   -0.140625
     39          6           0       -7.378716   -5.068628   -0.745578
     40          6           0       -4.080598   -4.499222   -0.259395
     41          8           0       -3.928844   -5.687352   -0.473413
     42          6           0       -2.915470   -3.574182    0.191887
     43          6           0       -2.384106   -4.018429    1.547085
     44          8           0       -2.981749   -3.807084    2.607274
     45          8           0       -1.056911   -4.437974    1.379690
     46          6           0       -0.365738   -4.819142    2.640361
     47          6           0        4.030137   -2.316959   -1.793448
     48          6           0        4.787427   -1.366273   -0.873454
     49          6           0        6.067124   -0.938872   -0.877519
     50          6           0        7.120380   -1.453394   -1.779195
     51          6           0        6.519122   -0.035966    0.258613
     52          6           0        7.051591    1.315015   -0.301022
     53          6           0        8.532821    1.547710    0.075832
     54          6           0        9.448029    2.087355   -1.042974
     55          6           0        8.889210    3.349124   -1.716795
     56          6           0        9.952603    0.965726   -2.009084
     57          6           0       11.306864    1.239062   -2.685177
     58          6           0       12.360938    0.417269   -1.923262
     59          6           0       13.540394    1.201235   -1.297309
     60          6           0       14.380603    1.841438   -2.413431
     61          6           0       14.457904    0.380903   -0.409099
     62          6           0       14.476196    0.862250    1.084760
     63          6           0       14.049401   -0.299197    2.089437
     64          6           0       12.971235    0.037983    3.130149
     65          6           0       13.397356   -0.391702    4.629346
     66          6           0       11.715536   -0.719747    2.657557
     67          1           0       -2.573896    3.402445    1.016286
     68          1           0       -9.111048    3.378749    0.226093
     69          1           0       -9.135513   -2.932481   -0.422540
     70          1           0       -1.120264   -1.372021    1.199951
     71          1           0       -0.877033    1.270842    0.108908
     72          1           0       -0.920985    0.159550    2.853684
     73          1           0       -1.860157    1.633234    2.789606
     74          1           0       -0.119440    1.631634    2.119069
     75          1           0       -0.386323   -0.085514   -1.225448
     76          1           0       -1.478102   -1.420902   -1.621165
     77          1           0        0.171085   -2.914998   -1.378596
     78          1           0        0.633236   -2.379432    0.140860
     79          1           0       -4.120852    6.338390   -0.023291
     80          1           0       -3.165570    5.358396    1.082646
     81          1           0       -4.448069    6.439966    1.749401
     82          1           0       -6.057300    7.523136    1.166477
     83          1           0       -7.433194    7.892058    0.066081
     84          1           0       -6.101528    7.240608   -0.572598
     85          1           0      -10.835556    1.738236   -0.755168
     86          1           0      -10.884186   -0.880405    0.591960
     87          1           0      -10.433357    1.885266    2.141000
     88          1           0      -11.922358    0.927000    1.696830
     89          1           0      -11.582246    2.504898    1.010145
     90          1           0      -12.168644   -0.101152   -1.327017
     91          1           0      -11.626292   -1.712925   -1.663554
     92          1           0       -9.611758   -0.014326   -2.802580
     93          1           0      -11.164689    0.524921   -3.454711
     94          1           0      -10.635181   -1.088790   -3.672146
     95          1           0       -7.372039   -5.488601   -1.751598
     96          1           0       -8.429376   -4.989125   -0.465727
     97          1           0       -6.995196   -5.829986   -0.067164
     98          1           0       -2.097254   -3.611258   -0.527505
     99          1           0       -0.825951   -4.518093    3.580837
    100          1           0        0.571712   -4.262274    2.639623
    101          1           0       -0.146277   -5.878921    2.776364
    102          1           0        4.055710   -2.024537   -2.842675
    103          1           0        4.555020   -3.270000   -1.730143
    104          1           0        4.182676   -0.996670   -0.045508
    105          1           0        6.783498   -2.213002   -2.486097
    106          1           0        7.830650   -2.009590   -1.168192
    107          1           0        7.686030   -0.721578   -2.357213
    108          1           0        7.237263   -0.612262    0.841138
    109          1           0        5.705705    0.269448    0.915543
    110          1           0        6.387179    2.045365    0.160765
    111          1           0        6.863900    1.382304   -1.372458
    112          1           0        9.054611    0.671941    0.460273
    113          1           0        8.435487    2.352807    0.805129
    114          1           0       10.286144    2.364273   -0.403716
    115          1           0        9.084027    3.241197   -2.784132
    116          1           0        9.230297    4.323694   -1.366465
    117          1           0        7.803822    3.416958   -1.654257
    118          1           0        9.220746    0.653276   -2.753312
    119          1           0       10.092538    0.084934   -1.382314
    120          1           0       11.545158    2.301223   -2.742267
    121          1           0       11.310196    0.785657   -3.676636
    122          1           0       12.730615   -0.245175   -2.706024
    123          1           0       12.127454   -0.313132   -1.147825
    124          1           0       13.117108    2.079998   -0.811648
    125          1           0       13.914890    1.777625   -3.396915
    126          1           0       15.397114    1.464573   -2.527431
    127          1           0       14.405796    2.902793   -2.168405
    128          1           0       15.497541    0.357737   -0.738080
    129          1           0       14.178026   -0.667901   -0.500254
    130          1           0       13.849348    1.724287    1.313625
    131          1           0       15.529250    1.105050    1.225734
    132          1           0       15.004409   -0.507258    2.573463
    133          1           0       13.760873   -1.137162    1.454785
    134          1           0       12.734949    1.100850    3.198247
    135          1           0       13.451295    0.444542    5.324817
    136          1           0       14.319070   -0.965549    4.721998
    137          1           0       12.656293   -1.122991    4.950703
    138          1           0       11.493747   -0.590944    1.598381
    139          1           0       10.755626   -0.428867    3.085930
    140          1           0       11.923193   -1.737839    2.988345
 ---------------------------------------------------------------------

 SCF Done:  E(RB-LYP) =  -3007.34656515     A.U. after   21 cycles

 Excitation energies and oscillator strengths:

 Excited State   1:      Singlet-A      1.8095 eV  685.19 nm  f=0.2908  <S**2>=0.000
     245 -> 248        0.20179
     246 -> 247        0.68759
     246 <- 247       -0.15024
 This state for optimization and/or second-order correction.
 Total Energy, E(TD-HF/TD-DFT) =  -3007.28006736
 Copying the excited state density for this state as the 1-particle RhoCI density.

 Excited State   2:      Singlet-A      1.9041 eV  651.13 nm  f=0.0021  <S**2>=0.000
     244 -> 247        0.68595
     245 -> 247       -0.16025

 Excited State   3:      Singlet-A      2.0100 eV  616.84 nm  f=0.0035  <S**2>=0.000
     243 -> 247        0.67709
     245 -> 247        0.17920

 Excited State   4:      Singlet-A      2.0805 eV  595.92 nm  f=0.0489  <S**2>=0.000
     243 -> 247       -0.19988
     244 -> 247        0.14556
     245 -> 247        0.58090
     246 -> 248       -0.30186

 Excited State   5:      Singlet-A      2.3296 eV  532.22 nm  f=0.0000  <S**2>=0.000
     242 -> 247        0.70710

 The electronic state is 1-A.
 Alpha  occ. eigenvalues --  -46.27347 -18.83413 -18.83294 -18.77557 -18.76162
 Alpha  occ. eigenvalues --  -18.75315 -18.74788 -14.03819 -14.02680 -14.01406
 Alpha  occ. eigenvalues --  -14.00716 -10.04816 -10.04619  -9.99281  -9.98696
 Alpha  occ. eigenvalues --   -9.98516  -9.97996  -9.97257  -9.96713  -9.96283
 Alpha  occ. eigenvalues --   -9.96270  -9.96177  -9.95517  -9.95173  -9.94435
 Alpha  occ. eigenvalues --   -9.94064  -9.94022  -9.93949  -9.93923  -9.93913
 Alpha  occ. eigenvalues --   -9.93813  -9.93748  -9.93672  -9.93639  -9.93639
 Alpha  occ. eigenvalues --   -9.93318  -9.93170  -9.92796  -9.92780  -9.92666
 Alpha  occ. eigenvalues --   -9.92348  -9.92347  -9.92270  -9.92214  -9.92065
 Alpha  occ. eigenvalues --   -9.91771  -9.91681  -9.91666  -9.91664  -9.91659
 Alpha  occ. eigenvalues --   -9.91556  -9.91321  -9.91312  -9.91305  -9.91277
 Alpha  occ. eigenvalues --   -9.91248  -9.91220  -9.91218  -9.91181  -9.91134
 Alpha  occ. eigenvalues --   -9.90963  -9.90879  -9.90868  -9.90836  -9.90096
 Alpha  occ. eigenvalues --   -9.89576  -2.91964  -1.72361  -1.71868  -1.71669
 Alpha  occ. eigenvalues --   -0.99556  -0.96919  -0.91663  -0.91198  -0.89908
 Alpha  occ. eigenvalues --   -0.88205  -0.87142  -0.85452  -0.85440  -0.83676
 Alpha  occ. eigenvalues --   -0.75559  -0.73842  -0.73194  -0.72967  -0.71974
 Alpha  occ. eigenvalues --   -0.71914  -0.70914  -0.70812  -0.70643  -0.70409
 Alpha  occ. eigenvalues --   -0.69736  -0.69638  -0.68107  -0.67387  -0.67054
 Alpha  occ. eigenvalues --   -0.66116  -0.65447  -0.65211  -0.65110  -0.64328
 Alpha  occ. eigenvalues --   -0.64160  -0.62811  -0.62374  -0.61633  -0.60934
 Alpha  occ. eigenvalues --   -0.60590  -0.60041  -0.59571  -0.59377  -0.58978
 Alpha  occ. eigenvalues --   -0.58575  -0.57803  -0.56164  -0.56053  -0.55207
 Alpha  occ. eigenvalues --   -0.54561  -0.54143  -0.53017  -0.52880  -0.51342
 Alpha  occ. eigenvalues --   -0.51203  -0.50962  -0.50786  -0.50598  -0.50045
 Alpha  occ. eigenvalues --   -0.49825  -0.48907  -0.48647  -0.47845  -0.47186
 Alpha  occ. eigenvalues --   -0.46619  -0.46442  -0.45725  -0.45218  -0.44479
 Alpha  occ. eigenvalues --   -0.44183  -0.43830  -0.43040  -0.42954  -0.42336
 Alpha  occ. eigenvalues --   -0.41887  -0.41600  -0.41426  -0.41316  -0.40968
 Alpha  occ. eigenvalues --   -0.40873  -0.40805  -0.40457  -0.40326  -0.40243
 Alpha  occ. eigenvalues --   -0.39989  -0.39856  -0.39687  -0.39443  -0.38999
 Alpha  occ. eigenvalues --   -0.38893  -0.38819  -0.38579  -0.38341  -0.38150
 Alpha  occ. eigenvalues --   -0.37976  -0.37792  -0.37309  -0.37264  -0.37013
 Alpha  occ. eigenvalues --   -0.36941  -0.36859  -0.36673  -0.36570  -0.36222
 Alpha  occ. eigenvalues --   -0.36151  -0.35904  -0.35712  -0.35633  -0.35549
 Alpha  occ. eigenvalues --   -0.35408  -0.35309  -0.35177  -0.34692  -0.34526
 Alpha  occ. eigenvalues --   -0.34476  -0.34346  -0.34073  -0.33933  -0.33872
 Alpha  occ. eigenvalues --   -0.33579  -0.33335  -0.33230  -0.32975  -0.32874
 Alpha  occ. eigenvalues --   -0.32377  -0.32310  -0.32234  -0.32082  -0.31689
 Alpha  occ. eigenvalues --   -0.31630  -0.31544  -0.31467  -0.31285  -0.31148
 Alpha  occ. eigenvalues --   -0.30991  -0.30899  -0.30867  -0.30712  -0.30687
 Alpha  occ. eigenvalues --   -0.30402  -0.30352  -0.30233  -0.30163  -0.29892
 Alpha  occ. eigenvalues --   -0.29800  -0.29712  -0.29542  -0.29261  -0.29155
 Alpha  occ. eigenvalues --   -0.28892  -0.28797  -0.28733  -0.28586  -0.27868
 Alpha  occ. eigenvalues --   -0.27818  -0.27611  -0.26731  -0.26712  -0.26333
 Alpha  occ. eigenvalues --   -0.26199  -0.26116  -0.25716  -0.25563  -0.25421
 Alpha  occ. eigenvalues --   -0.25048  -0.24370  -0.23901  -0.23880  -0.23395
 Alpha  occ. eigenvalues --   -0.23384  -0.22667  -0.21888  -0.21184  -0.20789
 Alpha  occ. eigenvalues --   -0.20523  -0.19903  -0.18663  -0.18252  -0.17465
 Alpha  occ. eigenvalues --   -0.15607
 Alpha virt. eigenvalues --   -0.11342  -0.07104  -0.06195  -0.04532  -0.04007
 Alpha virt. eigenvalues --   -0.03481  -0.03314  -0.01763  -0.01166   0.00492
 Alpha virt. eigenvalues --    0.01327   0.01424   0.02181   0.02649   0.02870

 Mulliken charges:
               1
     1  Mg   0.708901
     2  C   -0.059303
     3  C   -0.072188
     4  C   -0.001132
     5  C   -0.067058
     6  N   -0.235761
     7  C   -0.065925
     8  C    0.079992
     9  C   -0.044014
    10  C    0.012134
    11  C    0.137106
    12  C    0.117748
    13  C    0.064765
    14  C    0.086133
    15  O   -0.239122
    16  O   -0.228013
    17  N   -0.317627
    18  C    0.167395
    19  C   -0.173000
    20  C    0.083037
    21  C    0.123271
    22  C    0.214037
    23  C   -0.105756
    24  O   -0.149146
    25  C    0.109367
    26  N   -0.195937
    27  C    0.001409
    28  C   -0.038512
    29  C    0.079703
    30  C    0.041481
    31  C    0.095918
    32  C    0.069411
    33  C    0.032277
    34  N   -0.252363
    35  C    0.106520
    36  C   -0.189143
    37  C    0.201945
    38  C    0.079414
    39  C    0.157263
    40  C   -0.143852
    41  O   -0.133561
    42  C    0.107620
    43  C    0.162108
    44  O   -0.178308
    45  O   -0.285455
    46  C    0.201178
    47  C    0.350458
    48  C   -0.153964
    49  C   -0.131648
    50  C    0.153034
    51  C    0.142108
    52  C    0.038279
    53  C    0.085197
    54  C   -0.054002
    55  C    0.113128
    56  C    0.079896
    57  C    0.133312
    58  C    0.058276
    59  C   -0.076060
    60  C    0.096928
    61  C    0.112508
    62  C    0.056981
    63  C    0.102639
    64  C   -0.070608
    65  C    0.088768
    66  C    0.067751
    67  H   -0.053576
    68  H   -0.051785
    69  H   -0.062078
    70  H   -0.023464
    71  H   -0.013792
    72  H   -0.009327
    73  H    0.003806
    74  H    0.003507
    75  H   -0.010550
    76  H   -0.010145
    77  H    0.021345
    78  H   -0.014830
    79  H    0.000903
    80  H   -0.022534
    81  H    0.019132
    82  H    0.008185
    83  H   -0.024508
    84  H   -0.003916
    85  H   -0.004985
    86  H   -0.024639
    87  H    0.002964
    88  H    0.002822
    89  H   -0.009024
    90  H   -0.017922
    91  H   -0.016587
    92  H   -0.001671
    93  H   -0.006510
    94  H   -0.011484
    95  H    0.006202
    96  H   -0.030415
    97  H    0.003133
    98  H   -0.021683
    99  H    0.018553
   100  H    0.009141
   101  H    0.025961
   102  H    0.017363
   103  H   -0.003122
   104  H   -0.035920
   105  H   -0.032686
   106  H   -0.009570
   107  H   -0.008879
   108  H   -0.017514
   109  H   -0.043872
   110  H   -0.030545
   111  H   -0.004905
   112  H   -0.019022
   113  H   -0.034886
   114  H   -0.046325
   115  H   -0.023381
   116  H   -0.013398
   117  H   -0.020174
   118  H   -0.018155
   119  H   -0.044165
   120  H   -0.015210
   121  H   -0.038770
   122  H   -0.048189
   123  H   -0.029463
   124  H   -0.035966
   125  H   -0.025511
   126  H   -0.018440
   127  H   -0.027339
   128  H   -0.038188
   129  H   -0.041146
   130  H   -0.021687
   131  H   -0.030745
   132  H   -0.036693
   133  H   -0.027602
   134  H   -0.029829
   135  H   -0.004866
   136  H   -0.017429
   137  H   -0.028607
   138  H   -0.000532
   139  H   -0.025590
   140  H   -0.007206
 Sum of Mulliken charges =  -0.00000

 Dipole moment (field-independent basis, Debye):
    X=              4.1075    Y=              1.9250    Z=             -0.1099  Tot=              4.5375
 Quadrupole moment (field-independent basis, Debye-Ang):
   XX=           -381.9280   YY=           -420.6165   ZZ=           -407.8589
   XY=             -0.1344   XZ=             15.2928   YZ=              1.2488

 Normal termination of Gaussian 16 at Thu May  5 09:53:50 2022.
