 Gaussian 16, Revision A.03,
 Gaussian 16:  ES64L-G16RevA.03 25-Dec-2016

 -----------------------------------
 #p cam-b3lyp/Def2SVP td=(nstates=5)
 -----------------------------------

 -------------------------------------------------------
 step_801_chromophore_13 TDDFT with cam-b3lyp functional
 -------------------------------------------------------
 Symbolic Z-matrix:
 Charge =  0 Multiplicity = 1

                         Standard orientation:
 ---------------------------------------------------------------------
 Center     Atomic      Atomic             Coordinates (Angstroms)
 Number     Number       Type             X           Y           Z
 ---------------------------------------------------------------------
      1         12           0       -5.847766    0.410157   -0.231909
      2          6           0       -3.587534   -2.181314    0.070992
      3          6           0       -3.412949    2.724519    0.850471
      4          6           0       -8.259885    2.696691    0.175014
      5          6           0       -8.472291   -2.065644   -0.417589
      6          7           0       -3.821001    0.276503    0.494500
      7          6           0       -3.034423   -0.907977    0.380332
      8          6           0       -1.568517   -0.688749    0.478803
      9          6           0       -1.517174    0.775259    0.839720
     10          6           0       -3.018810    1.315589    0.772767
     11          6           0       -1.048180    1.091881    2.303264
     12          6           0       -0.816896   -1.015885   -0.855754
     13          6           0        0.426791   -1.992462   -0.856459
     14          6           0        1.791469   -1.577651   -1.442050
     15          8           0        1.925335   -0.657609   -2.302918
     16          8           0        2.763339   -2.435561   -1.135289
     17          7           0       -5.851122    2.412769    0.352843
     18          6           0       -4.710196    3.202166    0.619596
     19          6           0       -5.094015    4.644556    0.647112
     20          6           0       -6.514047    4.627761    0.484599
     21          6           0       -6.960074    3.248918    0.285819
     22          6           0       -4.150722    5.795262    0.921731
     23          6           0       -7.374356    5.795935    0.469805
     24          8           0       -8.584335    5.676629    0.402027
     25          6           0       -6.678303    7.157614    0.348733
     26          7           0       -8.081405    0.347619   -0.100650
     27          6           0       -8.795791    1.477301    0.119587
     28          6           0      -10.315677    1.188658    0.028574
     29          6           0      -10.380467   -0.399914   -0.246880
     30          6           0       -8.900618   -0.729933   -0.268828
     31          6           0      -11.119143    1.579492    1.352019
     32          6           0      -11.271717   -0.693584   -1.507923
     33          6           0      -10.659087   -0.287644   -2.933811
     34          7           0       -6.003914   -1.647733   -0.335154
     35          6           0       -7.116825   -2.464374   -0.434690
     36          6           0       -6.594681   -3.792611   -0.551946
     37          6           0       -5.247874   -3.771283   -0.337130
     38          6           0       -4.953761   -2.414032   -0.140625
     39          6           0       -7.378716   -5.068628   -0.745578
     40          6           0       -4.080598   -4.499222   -0.259395
     41          8           0       -3.928844   -5.687352   -0.473413
     42          6           0       -2.915470   -3.574182    0.191887
     43          6           0       -2.384106   -4.018429    1.547085
     44          8           0       -2.981749   -3.807084    2.607274
     45          8           0       -1.056911   -4.437974    1.379690
     46          6           0       -0.365738   -4.819142    2.640361
     47          6           0        4.030137   -2.316959   -1.793448
     48          6           0        4.787427   -1.366273   -0.873454
     49          6           0        6.067124   -0.938872   -0.877519
     50          6           0        7.120380   -1.453394   -1.779195
     51          6           0        6.519122   -0.035966    0.258613
     52          6           0        7.051591    1.315015   -0.301022
     53          6           0        8.532821    1.547710    0.075832
     54          6           0        9.448029    2.087355   -1.042974
     55          6           0        8.889210    3.349124   -1.716795
     56          6           0        9.952603    0.965726   -2.009084
     57          6           0       11.306864    1.239062   -2.685177
     58          6           0       12.360938    0.417269   -1.923262
     59          6           0       13.540394    1.201235   -1.297309
     60          6           0       14.380603    1.841438   -2.413431
     61          6           0       14.457904    0.380903   -0.409099
     62          6           0       14.476196    0.862250    1.084760
     63          6           0       14.049401   -0.299197    2.089437
     64          6           0       12.971235    0.037983    3.130149
     65          6           0       13.397356   -0.391702    4.629346
     66          6           0       11.715536   -0.719747    2.657557
     67          1           0       -2.573896    3.402445    1.016286
     68          1           0       -9.111048    3.378749    0.226093
     69          1           0       -9.135513   -2.932481   -0.422540
     70          1           0       -1.120264   -1.372021    1.199951
     71          1           0       -0.877033    1.270842    0.108908
     72          1           0       -0.920985    0.159550    2.853684
     73          1           0       -1.860157    1.633234    2.789606
     74          1           0       -0.119440    1.631634    2.119069
     75          1           0       -0.386323   -0.085514   -1.225448
     76          1           0       -1.478102   -1.420902   -1.621165
     77          1           0        0.171085   -2.914998   -1.378596
     78          1           0        0.633236   -2.379432    0.140860
     79          1           0       -4.120852    6.338390   -0.023291
     80          1           0       -3.165570    5.358396    1.082646
     81          1           0       -4.448069    6.439966    1.749401
     82          1           0       -6.057300    7.523136    1.166477
     83          1           0       -7.433194    7.892058    0.066081
     84          1           0       -6.101528    7.240608   -0.572598
     85          1           0      -10.835556    1.738236   -0.755168
     86          1           0      -10.884186   -0.880405    0.591960
     87          1           0      -10.433357    1.885266    2.141000
     88          1           0      -11.922358    0.927000    1.696830
     89          1           0      -11.582246    2.504898    1.010145
     90          1           0      -12.168644   -0.101152   -1.327017
     91          1           0      -11.626292   -1.712925   -1.663554
     92          1           0       -9.611758   -0.014326   -2.802580
     93          1           0      -11.164689    0.524921   -3.454711
     94          1           0      -10.635181   -1.088790   -3.672146
     95          1           0       -7.372039   -5.488601   -1.751598
     96          1           0       -8.429376   -4.989125   -0.465727
     97          1           0       -6.995196   -5.829986   -0.067164
     98          1           0       -2.097254   -3.611258   -0.527505
     99          1           0       -0.825951   -4.518093    3.580837
    100          1           0        0.571712   -4.262274    2.639623
    101          1           0       -0.146277   -5.878921    2.776364
    102          1           0        4.055710   -2.024537   -2.842675
    103          1           0        4.555020   -3.270000   -1.730143
    104          1           0        4.182676   -0.996670   -0.045508
    105          1           0        6.783498   -2.213002   -2.486097
    106          1           0        7.830650   -2.009590   -1.168192
    107          1           0        7.686030   -0.721578   -2.357213
    108          1           0        7.237263   -0.612262    0.841138
    109          1           0        5.705705    0.269448    0.915543
    110          1           0        6.387179    2.045365    0.160765
    111          1           0        6.863900    1.382304   -1.372458
    112          1           0        9.054611    0.671941    0.460273
    113          1           0        8.435487    2.352807    0.805129
    114          1           0       10.286144    2.364273   -0.403716
    115          1           0        9.084027    3.241197   -2.784132
    116          1           0        9.230297    4.323694   -1.366465
    117          1           0        7.803822    3.416958   -1.654257
    118          1           0        9.220746    0.653276   -2.753312
    119          1           0       10.092538    0.084934   -1.382314
    120          1           0       11.545158    2.301223   -2.742267
    121          1           0       11.310196    0.785657   -3.676636
    122          1           0       12.730615   -0.245175   -2.706024
    123          1           0       12.127454   -0.313132   -1.147825
    124          1           0       13.117108    2.079998   -0.811648
    125          1           0       13.914890    1.777625   -3.396915
    126          1           0       15.397114    1.464573   -2.527431
    127          1           0       14.405796    2.902793   -2.168405
    128          1           0       15.497541    0.357737   -0.738080
    129          1           0       14.178026   -0.667901   -0.500254
    130          1           0       13.849348    1.724287    1.313625
    131          1           0       15.529250    1.105050    1.225734
    132          1           0       15.004409   -0.507258    2.573463
    133          1           0       13.760873   -1.137162    1.454785
    134          1           0       12.734949    1.100850    3.198247
    135          1           0       13.451295    0.444542    5.324817
    136          1           0       14.319070   -0.965549    4.721998
    137          1           0       12.656293   -1.122991    4.950703
    138          1           0       11.493747   -0.590944    1.598381
    139          1           0       10.755626   -0.428867    3.085930
    140          1           0       11.923193   -1.737839    2.988345
 ---------------------------------------------------------------------

 SCF Done:  E(RCAM-B3LYP) =  -3007.13666336     A.U. after   19 cycles

 Excitation energies and oscillator strengths:

 Excited State   1:      Singlet-A      1.7016 eV  728.64 nm  f=0.3756  <S**2>=0.000
     245 -> 248       -0.18222
     246 -> 247        0.68417
     245 <- 248       -0.10886
 This state for optimization and/or second-order correction.
 Total Energy, E(TD-HF/TD-DFT) =  -3007.07413117
 Copying the excited state density for this state as the 1-particle RhoCI density.

 Excited State   2:      Singlet-A      2.2881 eV  541.85 nm  f=0.0595  <S**2>=0.000
     245 -> 247        0.60479
     246 -> 248        0.35385

 Excited State   3:      Singlet-A      3.4215 eV  362.37 nm  f=0.6218  <S**2>=0.000
     241 -> 247        0.14156
     242 -> 247       -0.24659
     243 -> 247        0.13203
     245 -> 247       -0.29886
     246 -> 248        0.55482
     245 <- 247        0.10163

 Excited State   4:      Singlet-A      3.5280 eV  351.43 nm  f=0.1334  <S**2>=0.000
     241 -> 247        0.10300
     242 -> 247       -0.20145
     243 -> 247        0.61038
     245 -> 247        0.13584
     246 -> 248       -0.19959

 Excited State   5:      Singlet-A      3.5440 eV  349.84 nm  f=0.0079  <S**2>=0.000
     241 -> 247        0.40885
     241 -> 249        0.25206
     241 -> 251        0.20979
     242 -> 247        0.38077
     242 -> 249        0.14941
     242 -> 251        0.11534

 The electronic state is 1-A.
 Alpha  occ. eigenvalues --  -46.88893 -19.26400 -19.26205 -19.20696 -19.19080
 Alpha  occ. eigenvalues --  -19.18740 -19.17798 -14.42810 -14.41446 -14.39958
 Alpha  occ. eigenvalues --  -14.38986 -10.40405 -10.39961 -10.34642 -10.33624
 Alpha  occ. eigenvalues --  -10.32682 -10.32043 -10.32007 -10.31163 -10.30911
 Alpha  occ. eigenvalues --  -10.30808 -10.30481 -10.29934 -10.29401 -10.29122
 Alpha  occ. eigenvalues --  -10.28433 -10.28105 -10.28066 -10.28034 -10.28020
 Alpha  occ. eigenvalues --  -10.27917 -10.27886 -10.27778 -10.27713 -10.27524
 Alpha  occ. eigenvalues --  -10.27257 -10.26932 -10.26866 -10.26791 -10.26744
 Alpha  occ. eigenvalues --  -10.26429 -10.26412 -10.26120 -10.25988 -10.25864
 Alpha  occ. eigenvalues --  -10.25777 -10.25431 -10.25364 -10.25321 -10.25246
 Alpha  occ. eigenvalues --  -10.25223 -10.25169 -10.25108 -10.25020 -10.24984
 Alpha  occ. eigenvalues --  -10.24976 -10.24936 -10.24890 -10.24825 -10.24747
 Alpha  occ. eigenvalues --  -10.24552 -10.24542 -10.24539 -10.24490 -10.23666
 Alpha  occ. eigenvalues --  -10.23316  -3.17409  -1.92283  -1.91875  -1.91705
 Alpha  occ. eigenvalues --   -1.17999  -1.15422  -1.10283  -1.09477  -1.07859
 Alpha  occ. eigenvalues --   -1.06048  -1.04685  -1.03144  -1.03015  -1.01273
 Alpha  occ. eigenvalues --   -0.92622  -0.90726  -0.89999  -0.89759  -0.88754
 Alpha  occ. eigenvalues --   -0.88589  -0.87504  -0.87485  -0.87236  -0.86943
 Alpha  occ. eigenvalues --   -0.86240  -0.85938  -0.84377  -0.83523  -0.83176
 Alpha  occ. eigenvalues --   -0.82197  -0.81382  -0.81199  -0.80871  -0.80365
 Alpha  occ. eigenvalues --   -0.79964  -0.78775  -0.77973  -0.77083  -0.76320
 Alpha  occ. eigenvalues --   -0.75956  -0.75373  -0.74799  -0.74618  -0.74223
 Alpha  occ. eigenvalues --   -0.73691  -0.72796  -0.70999  -0.70913  -0.69817
 Alpha  occ. eigenvalues --   -0.69216  -0.68799  -0.67591  -0.67370  -0.65462
 Alpha  occ. eigenvalues --   -0.65420  -0.64978  -0.64888  -0.64515  -0.63848
 Alpha  occ. eigenvalues --   -0.63772  -0.62810  -0.62310  -0.61585  -0.60841
 Alpha  occ. eigenvalues --   -0.60351  -0.60082  -0.59157  -0.58511  -0.58118
 Alpha  occ. eigenvalues --   -0.57725  -0.57230  -0.56176  -0.56078  -0.55534
 Alpha  occ. eigenvalues --   -0.55185  -0.54635  -0.54507  -0.54214  -0.54095
 Alpha  occ. eigenvalues --   -0.53626  -0.53481  -0.53351  -0.53056  -0.52798
 Alpha  occ. eigenvalues --   -0.52769  -0.52667  -0.52506  -0.51953  -0.51608
 Alpha  occ. eigenvalues --   -0.51410  -0.51337  -0.51187  -0.50691  -0.50432
 Alpha  occ. eigenvalues --   -0.50223  -0.50109  -0.49854  -0.49637  -0.49478
 Alpha  occ. eigenvalues --   -0.49255  -0.49051  -0.48963  -0.48859  -0.48628
 Alpha  occ. eigenvalues --   -0.48347  -0.48260  -0.48173  -0.47827  -0.47614
 Alpha  occ. eigenvalues --   -0.47547  -0.47486  -0.47348  -0.46789  -0.46487
 Alpha  occ. eigenvalues --   -0.46293  -0.46179  -0.46020  -0.45837  -0.45610
 Alpha  occ. eigenvalues --   -0.45470  -0.45050  -0.44799  -0.44622  -0.44513
 Alpha  occ. eigenvalues --   -0.44077  -0.43981  -0.43789  -0.43637  -0.43354
 Alpha  occ. eigenvalues --   -0.43218  -0.43071  -0.43016  -0.42926  -0.42899
 Alpha  occ. eigenvalues --   -0.42718  -0.42566  -0.42419  -0.42194  -0.42090
 Alpha  occ. eigenvalues --   -0.41990  -0.41737  -0.41588  -0.41464  -0.41212
 Alpha  occ. eigenvalues --   -0.41024  -0.40807  -0.40683  -0.40426  -0.40227
 Alpha  occ. eigenvalues --   -0.40155  -0.39795  -0.39686  -0.39495  -0.38940
 Alpha  occ. eigenvalues --   -0.38778  -0.38476  -0.37668  -0.37542  -0.37481
 Alpha  occ. eigenvalues --   -0.37276  -0.36936  -0.36673  -0.36596  -0.36416
 Alpha  occ. eigenvalues --   -0.35621  -0.35044  -0.34876  -0.34371  -0.34262
 Alpha  occ. eigenvalues --   -0.33781  -0.33539  -0.33116  -0.31284  -0.31143
 Alpha  occ. eigenvalues --   -0.30389  -0.30115  -0.29819  -0.29471  -0.24316
 Alpha  occ. eigenvalues --   -0.20746
 Alpha virt. eigenvalues --   -0.08365  -0.02042   0.00287   0.01464   0.02430
 Alpha virt. eigenvalues --    0.03839   0.04483   0.05462   0.06097   0.07444
 Alpha virt. eigenvalues --    0.07656   0.08029   0.08518   0.08982   0.09129

 Mulliken charges:
               1
     1  Mg   0.837940
     2  C   -0.075764
     3  C   -0.085906
     4  C   -0.028489
     5  C   -0.067023
     6  N   -0.304469
     7  C   -0.024397
     8  C    0.025264
     9  C   -0.094643
    10  C    0.028809
    11  C    0.078738
    12  C    0.063773
    13  C   -0.001034
    14  C    0.168015
    15  O   -0.281588
    16  O   -0.292316
    17  N   -0.403506
    18  C    0.175560
    19  C   -0.172059
    20  C    0.008710
    21  C    0.154765
    22  C    0.152589
    23  C   -0.022186
    24  O   -0.189837
    25  C    0.022434
    26  N   -0.265396
    27  C    0.025346
    28  C   -0.090930
    29  C    0.028453
    30  C    0.049112
    31  C    0.041679
    32  C    0.018121
    33  C   -0.027390
    34  N   -0.342334
    35  C    0.107081
    36  C   -0.185791
    37  C    0.118401
    38  C    0.115908
    39  C    0.107692
    40  C   -0.051189
    41  O   -0.174713
    42  C    0.036378
    43  C    0.246457
    44  O   -0.214632
    45  O   -0.350614
    46  C    0.164935
    47  C    0.314535
    48  C   -0.167989
    49  C   -0.157364
    50  C    0.094367
    51  C    0.085362
    52  C   -0.021853
    53  C    0.040732
    54  C   -0.107507
    55  C    0.051070
    56  C    0.026670
    57  C    0.072440
    58  C    0.011267
    59  C   -0.128869
    60  C    0.038367
    61  C    0.056078
    62  C    0.004737
    63  C    0.047877
    64  C   -0.132606
    65  C    0.030576
    66  C    0.016051
    67  H   -0.018287
    68  H   -0.013049
    69  H   -0.026151
    70  H    0.008950
    71  H    0.020554
    72  H    0.016475
    73  H    0.029848
    74  H    0.026866
    75  H    0.023010
    76  H    0.021774
    77  H    0.051228
    78  H    0.016230
    79  H    0.028741
    80  H    0.006767
    81  H    0.045241
    82  H    0.036998
    83  H    0.013583
    84  H    0.026881
    85  H    0.027419
    86  H    0.010251
    87  H    0.028521
    88  H    0.026646
    89  H    0.013598
    90  H    0.008357
    91  H    0.011446
    92  H    0.019064
    93  H    0.016269
    94  H    0.012999
    95  H    0.031918
    96  H   -0.006343
    97  H    0.029117
    98  H    0.021041
    99  H    0.045209
   100  H    0.029062
   101  H    0.047226
   102  H    0.048372
   103  H    0.025665
   104  H   -0.004987
   105  H   -0.006126
   106  H    0.014576
   107  H    0.012763
   108  H    0.010307
   109  H   -0.011272
   110  H   -0.000482
   111  H    0.020906
   112  H    0.003745
   113  H   -0.004709
   114  H   -0.014400
   115  H    0.000886
   116  H    0.012338
   117  H    0.004144
   118  H    0.006798
   119  H   -0.017013
   120  H    0.011509
   121  H   -0.006109
   122  H   -0.018346
   123  H   -0.004850
   124  H   -0.006047
   125  H   -0.001523
   126  H    0.006102
   127  H   -0.002426
   128  H   -0.007442
   129  H   -0.012684
   130  H    0.004293
   131  H   -0.001151
   132  H   -0.006543
   133  H   -0.000485
   134  H    0.001512
   135  H    0.018866
   136  H    0.006799
   137  H   -0.004442
   138  H    0.015539
   139  H   -0.000311
   140  H    0.014872
 Sum of Mulliken charges =  -0.00000

 Dipole moment (field-independent basis, Debye):
    X=              4.2374    Y=              2.7642    Z=              0.0378  Tot=              5.0594
 Quadrupole moment (field-independent basis, Debye-Ang):
   XX=           -382.1367   YY=           -415.1214   ZZ=           -407.8767
   XY=             -5.6115   XZ=             15.7535   YZ=              1.4369

 Normal termination of Gaussian 16 at Thu May  5 08:48:34 2022.
