 Gaussian 16, Revision A.03,
 Gaussian 16:  ES64L-G16RevA.03 25-Dec-2016

 ---------------------------------
 #p PBE1PBE/Def2SVP td=(nstates=5)
 ---------------------------------

 -----------------------------------------------------
 step_801_chromophore_13 TDDFT with PBE1PBE functional
 -----------------------------------------------------
 Symbolic Z-matrix:
 Charge =  0 Multiplicity = 1

                         Standard orientation:
 ---------------------------------------------------------------------
 Center     Atomic      Atomic             Coordinates (Angstroms)
 Number     Number       Type             X           Y           Z
 ---------------------------------------------------------------------
      1         12           0       -5.847766    0.410157   -0.231909
      2          6           0       -3.587534   -2.181314    0.070992
      3          6           0       -3.412949    2.724519    0.850471
      4          6           0       -8.259885    2.696691    0.175014
      5          6           0       -8.472291   -2.065644   -0.417589
      6          7           0       -3.821001    0.276503    0.494500
      7          6           0       -3.034423   -0.907977    0.380332
      8          6           0       -1.568517   -0.688749    0.478803
      9          6           0       -1.517174    0.775259    0.839720
     10          6           0       -3.018810    1.315589    0.772767
     11          6           0       -1.048180    1.091881    2.303264
     12          6           0       -0.816896   -1.015885   -0.855754
     13          6           0        0.426791   -1.992462   -0.856459
     14          6           0        1.791469   -1.577651   -1.442050
     15          8           0        1.925335   -0.657609   -2.302918
     16          8           0        2.763339   -2.435561   -1.135289
     17          7           0       -5.851122    2.412769    0.352843
     18          6           0       -4.710196    3.202166    0.619596
     19          6           0       -5.094015    4.644556    0.647112
     20          6           0       -6.514047    4.627761    0.484599
     21          6           0       -6.960074    3.248918    0.285819
     22          6           0       -4.150722    5.795262    0.921731
     23          6           0       -7.374356    5.795935    0.469805
     24          8           0       -8.584335    5.676629    0.402027
     25          6           0       -6.678303    7.157614    0.348733
     26          7           0       -8.081405    0.347619   -0.100650
     27          6           0       -8.795791    1.477301    0.119587
     28          6           0      -10.315677    1.188658    0.028574
     29          6           0      -10.380467   -0.399914   -0.246880
     30          6           0       -8.900618   -0.729933   -0.268828
     31          6           0      -11.119143    1.579492    1.352019
     32          6           0      -11.271717   -0.693584   -1.507923
     33          6           0      -10.659087   -0.287644   -2.933811
     34          7           0       -6.003914   -1.647733   -0.335154
     35          6           0       -7.116825   -2.464374   -0.434690
     36          6           0       -6.594681   -3.792611   -0.551946
     37          6           0       -5.247874   -3.771283   -0.337130
     38          6           0       -4.953761   -2.414032   -0.140625
     39          6           0       -7.378716   -5.068628   -0.745578
     40          6           0       -4.080598   -4.499222   -0.259395
     41          8           0       -3.928844   -5.687352   -0.473413
     42          6           0       -2.915470   -3.574182    0.191887
     43          6           0       -2.384106   -4.018429    1.547085
     44          8           0       -2.981749   -3.807084    2.607274
     45          8           0       -1.056911   -4.437974    1.379690
     46          6           0       -0.365738   -4.819142    2.640361
     47          6           0        4.030137   -2.316959   -1.793448
     48          6           0        4.787427   -1.366273   -0.873454
     49          6           0        6.067124   -0.938872   -0.877519
     50          6           0        7.120380   -1.453394   -1.779195
     51          6           0        6.519122   -0.035966    0.258613
     52          6           0        7.051591    1.315015   -0.301022
     53          6           0        8.532821    1.547710    0.075832
     54          6           0        9.448029    2.087355   -1.042974
     55          6           0        8.889210    3.349124   -1.716795
     56          6           0        9.952603    0.965726   -2.009084
     57          6           0       11.306864    1.239062   -2.685177
     58          6           0       12.360938    0.417269   -1.923262
     59          6           0       13.540394    1.201235   -1.297309
     60          6           0       14.380603    1.841438   -2.413431
     61          6           0       14.457904    0.380903   -0.409099
     62          6           0       14.476196    0.862250    1.084760
     63          6           0       14.049401   -0.299197    2.089437
     64          6           0       12.971235    0.037983    3.130149
     65          6           0       13.397356   -0.391702    4.629346
     66          6           0       11.715536   -0.719747    2.657557
     67          1           0       -2.573896    3.402445    1.016286
     68          1           0       -9.111048    3.378749    0.226093
     69          1           0       -9.135513   -2.932481   -0.422540
     70          1           0       -1.120264   -1.372021    1.199951
     71          1           0       -0.877033    1.270842    0.108908
     72          1           0       -0.920985    0.159550    2.853684
     73          1           0       -1.860157    1.633234    2.789606
     74          1           0       -0.119440    1.631634    2.119069
     75          1           0       -0.386323   -0.085514   -1.225448
     76          1           0       -1.478102   -1.420902   -1.621165
     77          1           0        0.171085   -2.914998   -1.378596
     78          1           0        0.633236   -2.379432    0.140860
     79          1           0       -4.120852    6.338390   -0.023291
     80          1           0       -3.165570    5.358396    1.082646
     81          1           0       -4.448069    6.439966    1.749401
     82          1           0       -6.057300    7.523136    1.166477
     83          1           0       -7.433194    7.892058    0.066081
     84          1           0       -6.101528    7.240608   -0.572598
     85          1           0      -10.835556    1.738236   -0.755168
     86          1           0      -10.884186   -0.880405    0.591960
     87          1           0      -10.433357    1.885266    2.141000
     88          1           0      -11.922358    0.927000    1.696830
     89          1           0      -11.582246    2.504898    1.010145
     90          1           0      -12.168644   -0.101152   -1.327017
     91          1           0      -11.626292   -1.712925   -1.663554
     92          1           0       -9.611758   -0.014326   -2.802580
     93          1           0      -11.164689    0.524921   -3.454711
     94          1           0      -10.635181   -1.088790   -3.672146
     95          1           0       -7.372039   -5.488601   -1.751598
     96          1           0       -8.429376   -4.989125   -0.465727
     97          1           0       -6.995196   -5.829986   -0.067164
     98          1           0       -2.097254   -3.611258   -0.527505
     99          1           0       -0.825951   -4.518093    3.580837
    100          1           0        0.571712   -4.262274    2.639623
    101          1           0       -0.146277   -5.878921    2.776364
    102          1           0        4.055710   -2.024537   -2.842675
    103          1           0        4.555020   -3.270000   -1.730143
    104          1           0        4.182676   -0.996670   -0.045508
    105          1           0        6.783498   -2.213002   -2.486097
    106          1           0        7.830650   -2.009590   -1.168192
    107          1           0        7.686030   -0.721578   -2.357213
    108          1           0        7.237263   -0.612262    0.841138
    109          1           0        5.705705    0.269448    0.915543
    110          1           0        6.387179    2.045365    0.160765
    111          1           0        6.863900    1.382304   -1.372458
    112          1           0        9.054611    0.671941    0.460273
    113          1           0        8.435487    2.352807    0.805129
    114          1           0       10.286144    2.364273   -0.403716
    115          1           0        9.084027    3.241197   -2.784132
    116          1           0        9.230297    4.323694   -1.366465
    117          1           0        7.803822    3.416958   -1.654257
    118          1           0        9.220746    0.653276   -2.753312
    119          1           0       10.092538    0.084934   -1.382314
    120          1           0       11.545158    2.301223   -2.742267
    121          1           0       11.310196    0.785657   -3.676636
    122          1           0       12.730615   -0.245175   -2.706024
    123          1           0       12.127454   -0.313132   -1.147825
    124          1           0       13.117108    2.079998   -0.811648
    125          1           0       13.914890    1.777625   -3.396915
    126          1           0       15.397114    1.464573   -2.527431
    127          1           0       14.405796    2.902793   -2.168405
    128          1           0       15.497541    0.357737   -0.738080
    129          1           0       14.178026   -0.667901   -0.500254
    130          1           0       13.849348    1.724287    1.313625
    131          1           0       15.529250    1.105050    1.225734
    132          1           0       15.004409   -0.507258    2.573463
    133          1           0       13.760873   -1.137162    1.454785
    134          1           0       12.734949    1.100850    3.198247
    135          1           0       13.451295    0.444542    5.324817
    136          1           0       14.319070   -0.965549    4.721998
    137          1           0       12.656293   -1.122991    4.950703
    138          1           0       11.493747   -0.590944    1.598381
    139          1           0       10.755626   -0.428867    3.085930
    140          1           0       11.923193   -1.737839    2.988345
 ---------------------------------------------------------------------

 SCF Done:  E(RPBE1PBE) =  -3005.32559475     A.U. after   15 cycles

 Excitation energies and oscillator strengths:

 Excited State   1:      Singlet-A      1.8567 eV  667.78 nm  f=0.3599  <S**2>=0.000
     245 -> 248       -0.17852
     246 -> 247        0.69127
     246 <- 247       -0.10868
 This state for optimization and/or second-order correction.
 Total Energy, E(TD-HF/TD-DFT) =  -3005.25736347
 Copying the excited state density for this state as the 1-particle RhoCI density.

 Excited State   2:      Singlet-A      2.2954 eV  540.14 nm  f=0.0658  <S**2>=0.000
     245 -> 247        0.62135
     246 -> 248        0.32674

 Excited State   3:      Singlet-A      3.0079 eV  412.19 nm  f=0.0007  <S**2>=0.000
     243 -> 247        0.66738
     243 -> 249        0.16563
     243 -> 250        0.10556

 Excited State   4:      Singlet-A      3.1451 eV  394.22 nm  f=0.0008  <S**2>=0.000
     240 -> 247        0.24157
     241 -> 247        0.62257
     241 -> 249       -0.16449

 Excited State   5:      Singlet-A      3.1803 eV  389.85 nm  f=0.0136  <S**2>=0.000
     240 -> 247       -0.11859
     242 -> 247        0.67760
     246 -> 248        0.12662

 The electronic state is 1-A.
 Alpha  occ. eigenvalues --  -46.92312 -19.27098 -19.26911 -19.20950 -19.19433
 Alpha  occ. eigenvalues --  -19.18814 -19.18141 -14.42308 -14.40987 -14.39606
 Alpha  occ. eigenvalues --  -14.38698 -10.37448 -10.37037 -10.31611 -10.30823
 Alpha  occ. eigenvalues --  -10.30095 -10.29666 -10.29306 -10.29018 -10.28462
 Alpha  occ. eigenvalues --  -10.28369 -10.28340 -10.27557 -10.27016 -10.26902
 Alpha  occ. eigenvalues --  -10.26101 -10.25821 -10.25789 -10.25751 -10.25696
 Alpha  occ. eigenvalues --  -10.25693 -10.25621 -10.25572 -10.25416 -10.25090
 Alpha  occ. eigenvalues --  -10.24959 -10.24765 -10.24565 -10.24450 -10.24332
 Alpha  occ. eigenvalues --  -10.24099 -10.24079 -10.23570 -10.23474 -10.23228
 Alpha  occ. eigenvalues --  -10.23183 -10.22946 -10.22944 -10.22877 -10.22807
 Alpha  occ. eigenvalues --  -10.22799 -10.22683 -10.22672 -10.22642 -10.22608
 Alpha  occ. eigenvalues --  -10.22559 -10.22510 -10.22456 -10.22245 -10.22142
 Alpha  occ. eigenvalues --  -10.22134 -10.22128 -10.22085 -10.21917 -10.21141
 Alpha  occ. eigenvalues --  -10.21067  -3.14406  -1.87218  -1.86790  -1.86624
 Alpha  occ. eigenvalues --   -1.12877  -1.10198  -1.04883  -1.04319  -1.02702
 Alpha  occ. eigenvalues --   -1.00904  -0.99483  -0.97718  -0.97653  -0.95824
 Alpha  occ. eigenvalues --   -0.87053  -0.84837  -0.84192  -0.83978  -0.83026
 Alpha  occ. eigenvalues --   -0.82708  -0.81708  -0.81600  -0.81536  -0.81305
 Alpha  occ. eigenvalues --   -0.80584  -0.80191  -0.78546  -0.77844  -0.77440
 Alpha  occ. eigenvalues --   -0.76421  -0.75578  -0.75390  -0.75191  -0.74550
 Alpha  occ. eigenvalues --   -0.74144  -0.72942  -0.72275  -0.71433  -0.70523
 Alpha  occ. eigenvalues --   -0.70242  -0.69462  -0.69115  -0.68817  -0.68379
 Alpha  occ. eigenvalues --   -0.67973  -0.67253  -0.65466  -0.65210  -0.64184
 Alpha  occ. eigenvalues --   -0.63460  -0.63269  -0.61987  -0.61607  -0.59906
 Alpha  occ. eigenvalues --   -0.59668  -0.59541  -0.59427  -0.59025  -0.58305
 Alpha  occ. eigenvalues --   -0.57963  -0.57004  -0.56946  -0.55830  -0.55202
 Alpha  occ. eigenvalues --   -0.54820  -0.54618  -0.53764  -0.53239  -0.52550
 Alpha  occ. eigenvalues --   -0.52156  -0.51790  -0.50756  -0.50551  -0.50091
 Alpha  occ. eigenvalues --   -0.49755  -0.49262  -0.48993  -0.48746  -0.48556
 Alpha  occ. eigenvalues --   -0.48169  -0.47910  -0.47591  -0.47502  -0.47446
 Alpha  occ. eigenvalues --   -0.47250  -0.47158  -0.46996  -0.46530  -0.46193
 Alpha  occ. eigenvalues --   -0.46009  -0.45859  -0.45849  -0.45276  -0.44952
 Alpha  occ. eigenvalues --   -0.44849  -0.44721  -0.44326  -0.44163  -0.44073
 Alpha  occ. eigenvalues --   -0.43835  -0.43622  -0.43524  -0.43460  -0.43272
 Alpha  occ. eigenvalues --   -0.42981  -0.42894  -0.42791  -0.42455  -0.42215
 Alpha  occ. eigenvalues --   -0.42158  -0.42087  -0.41981  -0.41505  -0.41210
 Alpha  occ. eigenvalues --   -0.41006  -0.40858  -0.40713  -0.40574  -0.40209
 Alpha  occ. eigenvalues --   -0.40182  -0.39816  -0.39493  -0.39410  -0.39212
 Alpha  occ. eigenvalues --   -0.38871  -0.38772  -0.38581  -0.38344  -0.38181
 Alpha  occ. eigenvalues --   -0.38016  -0.37824  -0.37788  -0.37699  -0.37598
 Alpha  occ. eigenvalues --   -0.37505  -0.37367  -0.37308  -0.36950  -0.36796
 Alpha  occ. eigenvalues --   -0.36682  -0.36532  -0.36396  -0.36371  -0.36047
 Alpha  occ. eigenvalues --   -0.35789  -0.35714  -0.35439  -0.35352  -0.35051
 Alpha  occ. eigenvalues --   -0.34981  -0.34629  -0.34609  -0.34320  -0.33878
 Alpha  occ. eigenvalues --   -0.33620  -0.33219  -0.32660  -0.32551  -0.32276
 Alpha  occ. eigenvalues --   -0.32258  -0.31788  -0.31718  -0.31623  -0.31478
 Alpha  occ. eigenvalues --   -0.30474  -0.29979  -0.29735  -0.29519  -0.29315
 Alpha  occ. eigenvalues --   -0.28720  -0.28719  -0.28298  -0.26912  -0.25836
 Alpha  occ. eigenvalues --   -0.25766  -0.25501  -0.25193  -0.24779  -0.21199
 Alpha  occ. eigenvalues --   -0.18456
 Alpha virt. eigenvalues --   -0.10874  -0.05511  -0.03901  -0.01970  -0.01398
 Alpha virt. eigenvalues --   -0.00766  -0.00117   0.01018   0.01849   0.03542
 Alpha virt. eigenvalues --    0.04096   0.04480   0.04805   0.05594   0.05711

 Mulliken charges:
               1
     1  Mg   0.979515
     2  C   -0.067643
     3  C   -0.075638
     4  C   -0.033240
     5  C   -0.051219
     6  N   -0.408205
     7  C    0.039506
     8  C   -0.048229
     9  C   -0.172769
    10  C    0.065958
    11  C    0.023013
    12  C    0.019595
    13  C   -0.076513
    14  C    0.232992
    15  O   -0.311343
    16  O   -0.325073
    17  N   -0.511366
    18  C    0.192119
    19  C   -0.191890
    20  C   -0.049158
    21  C    0.191987
    22  C    0.082254
    23  C    0.037780
    24  O   -0.230033
    25  C   -0.052656
    26  N   -0.367918
    27  C    0.062724
    28  C   -0.167418
    29  C   -0.039899
    30  C    0.083100
    31  C   -0.013291
    32  C   -0.044318
    33  C   -0.098725
    34  N   -0.473643
    35  C    0.128310
    36  C   -0.202483
    37  C    0.066671
    38  C    0.166210
    39  C    0.059086
    40  C    0.040408
    41  O   -0.220937
    42  C   -0.076154
    43  C    0.330456
    44  O   -0.247847
    45  O   -0.381289
    46  C    0.110684
    47  C    0.272537
    48  C   -0.171334
    49  C   -0.214655
    50  C    0.034353
    51  C    0.025682
    52  C   -0.081719
    53  C   -0.018201
    54  C   -0.194059
    55  C   -0.006759
    56  C   -0.034386
    57  C    0.009887
    58  C   -0.044437
    59  C   -0.216031
    60  C   -0.017186
    61  C    0.003355
    62  C   -0.055514
    63  C   -0.006048
    64  C   -0.224333
    65  C   -0.027549
    66  C   -0.053809
    67  H    0.012989
    68  H    0.020687
    69  H    0.005955
    70  H    0.049533
    71  H    0.055503
    72  H    0.043769
    73  H    0.058274
    74  H    0.053700
    75  H    0.055503
    76  H    0.054291
    77  H    0.082199
    78  H    0.049501
    79  H    0.057562
    80  H    0.036212
    81  H    0.072013
    82  H    0.062534
    83  H    0.041456
    84  H    0.054239
    85  H    0.063114
    86  H    0.047445
    87  H    0.056714
    88  H    0.052740
    89  H    0.040995
    90  H    0.042451
    91  H    0.043071
    92  H    0.049574
    93  H    0.043484
    94  H    0.040593
    95  H    0.059813
    96  H    0.020996
    97  H    0.056789
    98  H    0.063498
    99  H    0.066100
   100  H    0.050460
   101  H    0.068904
   102  H    0.073584
   103  H    0.052779
   104  H    0.025027
   105  H    0.021907
   106  H    0.041747
   107  H    0.044048
   108  H    0.041848
   109  H    0.020762
   110  H    0.032390
   111  H    0.052721
   112  H    0.037227
   113  H    0.029362
   114  H    0.027039
   115  H    0.028889
   116  H    0.039410
   117  H    0.031577
   118  H    0.039212
   119  H    0.016676
   120  H    0.042498
   121  H    0.027501
   122  H    0.015740
   123  H    0.028758
   124  H    0.032808
   125  H    0.026196
   126  H    0.032805
   127  H    0.025253
   128  H    0.024233
   129  H    0.018265
   130  H    0.035066
   131  H    0.032143
   132  H    0.026669
   133  H    0.030521
   134  H    0.037812
   135  H    0.045781
   136  H    0.033134
   137  H    0.022914
   138  H    0.048439
   139  H    0.028421
   140  H    0.042915
 Sum of Mulliken charges =  -0.00000

 Dipole moment (field-independent basis, Debye):
    X=              4.1876    Y=              2.3918    Z=             -0.0548  Tot=              4.8228
 Quadrupole moment (field-independent basis, Debye-Ang):
   XX=           -374.9834   YY=           -412.9459   ZZ=           -405.3711
   XY=             -3.0973   XZ=             16.4728   YZ=              1.4694

 Normal termination of Gaussian 16 at Thu May  5 09:09:25 2022.
