 Gaussian 16, Revision A.03,
 Gaussian 16:  ES64L-G16RevA.03 25-Dec-2016

 --------------------------------
 #p wB97XD/Def2SVP td=(nstates=5)
 --------------------------------

 ----------------------------------------------------
 step_801_chromophore_13 TDDFT with wB97XD functional
 ----------------------------------------------------
 Symbolic Z-matrix:
 Charge =  0 Multiplicity = 1

                         Standard orientation:
 ---------------------------------------------------------------------
 Center     Atomic      Atomic             Coordinates (Angstroms)
 Number     Number       Type             X           Y           Z
 ---------------------------------------------------------------------
      1         12           0       -5.847766    0.410157   -0.231909
      2          6           0       -3.587534   -2.181314    0.070992
      3          6           0       -3.412949    2.724519    0.850471
      4          6           0       -8.259885    2.696691    0.175014
      5          6           0       -8.472291   -2.065644   -0.417589
      6          7           0       -3.821001    0.276503    0.494500
      7          6           0       -3.034423   -0.907977    0.380332
      8          6           0       -1.568517   -0.688749    0.478803
      9          6           0       -1.517174    0.775259    0.839720
     10          6           0       -3.018810    1.315589    0.772767
     11          6           0       -1.048180    1.091881    2.303264
     12          6           0       -0.816896   -1.015885   -0.855754
     13          6           0        0.426791   -1.992462   -0.856459
     14          6           0        1.791469   -1.577651   -1.442050
     15          8           0        1.925335   -0.657609   -2.302918
     16          8           0        2.763339   -2.435561   -1.135289
     17          7           0       -5.851122    2.412769    0.352843
     18          6           0       -4.710196    3.202166    0.619596
     19          6           0       -5.094015    4.644556    0.647112
     20          6           0       -6.514047    4.627761    0.484599
     21          6           0       -6.960074    3.248918    0.285819
     22          6           0       -4.150722    5.795262    0.921731
     23          6           0       -7.374356    5.795935    0.469805
     24          8           0       -8.584335    5.676629    0.402027
     25          6           0       -6.678303    7.157614    0.348733
     26          7           0       -8.081405    0.347619   -0.100650
     27          6           0       -8.795791    1.477301    0.119587
     28          6           0      -10.315677    1.188658    0.028574
     29          6           0      -10.380467   -0.399914   -0.246880
     30          6           0       -8.900618   -0.729933   -0.268828
     31          6           0      -11.119143    1.579492    1.352019
     32          6           0      -11.271717   -0.693584   -1.507923
     33          6           0      -10.659087   -0.287644   -2.933811
     34          7           0       -6.003914   -1.647733   -0.335154
     35          6           0       -7.116825   -2.464374   -0.434690
     36          6           0       -6.594681   -3.792611   -0.551946
     37          6           0       -5.247874   -3.771283   -0.337130
     38          6           0       -4.953761   -2.414032   -0.140625
     39          6           0       -7.378716   -5.068628   -0.745578
     40          6           0       -4.080598   -4.499222   -0.259395
     41          8           0       -3.928844   -5.687352   -0.473413
     42          6           0       -2.915470   -3.574182    0.191887
     43          6           0       -2.384106   -4.018429    1.547085
     44          8           0       -2.981749   -3.807084    2.607274
     45          8           0       -1.056911   -4.437974    1.379690
     46          6           0       -0.365738   -4.819142    2.640361
     47          6           0        4.030137   -2.316959   -1.793448
     48          6           0        4.787427   -1.366273   -0.873454
     49          6           0        6.067124   -0.938872   -0.877519
     50          6           0        7.120380   -1.453394   -1.779195
     51          6           0        6.519122   -0.035966    0.258613
     52          6           0        7.051591    1.315015   -0.301022
     53          6           0        8.532821    1.547710    0.075832
     54          6           0        9.448029    2.087355   -1.042974
     55          6           0        8.889210    3.349124   -1.716795
     56          6           0        9.952603    0.965726   -2.009084
     57          6           0       11.306864    1.239062   -2.685177
     58          6           0       12.360938    0.417269   -1.923262
     59          6           0       13.540394    1.201235   -1.297309
     60          6           0       14.380603    1.841438   -2.413431
     61          6           0       14.457904    0.380903   -0.409099
     62          6           0       14.476196    0.862250    1.084760
     63          6           0       14.049401   -0.299197    2.089437
     64          6           0       12.971235    0.037983    3.130149
     65          6           0       13.397356   -0.391702    4.629346
     66          6           0       11.715536   -0.719747    2.657557
     67          1           0       -2.573896    3.402445    1.016286
     68          1           0       -9.111048    3.378749    0.226093
     69          1           0       -9.135513   -2.932481   -0.422540
     70          1           0       -1.120264   -1.372021    1.199951
     71          1           0       -0.877033    1.270842    0.108908
     72          1           0       -0.920985    0.159550    2.853684
     73          1           0       -1.860157    1.633234    2.789606
     74          1           0       -0.119440    1.631634    2.119069
     75          1           0       -0.386323   -0.085514   -1.225448
     76          1           0       -1.478102   -1.420902   -1.621165
     77          1           0        0.171085   -2.914998   -1.378596
     78          1           0        0.633236   -2.379432    0.140860
     79          1           0       -4.120852    6.338390   -0.023291
     80          1           0       -3.165570    5.358396    1.082646
     81          1           0       -4.448069    6.439966    1.749401
     82          1           0       -6.057300    7.523136    1.166477
     83          1           0       -7.433194    7.892058    0.066081
     84          1           0       -6.101528    7.240608   -0.572598
     85          1           0      -10.835556    1.738236   -0.755168
     86          1           0      -10.884186   -0.880405    0.591960
     87          1           0      -10.433357    1.885266    2.141000
     88          1           0      -11.922358    0.927000    1.696830
     89          1           0      -11.582246    2.504898    1.010145
     90          1           0      -12.168644   -0.101152   -1.327017
     91          1           0      -11.626292   -1.712925   -1.663554
     92          1           0       -9.611758   -0.014326   -2.802580
     93          1           0      -11.164689    0.524921   -3.454711
     94          1           0      -10.635181   -1.088790   -3.672146
     95          1           0       -7.372039   -5.488601   -1.751598
     96          1           0       -8.429376   -4.989125   -0.465727
     97          1           0       -6.995196   -5.829986   -0.067164
     98          1           0       -2.097254   -3.611258   -0.527505
     99          1           0       -0.825951   -4.518093    3.580837
    100          1           0        0.571712   -4.262274    2.639623
    101          1           0       -0.146277   -5.878921    2.776364
    102          1           0        4.055710   -2.024537   -2.842675
    103          1           0        4.555020   -3.270000   -1.730143
    104          1           0        4.182676   -0.996670   -0.045508
    105          1           0        6.783498   -2.213002   -2.486097
    106          1           0        7.830650   -2.009590   -1.168192
    107          1           0        7.686030   -0.721578   -2.357213
    108          1           0        7.237263   -0.612262    0.841138
    109          1           0        5.705705    0.269448    0.915543
    110          1           0        6.387179    2.045365    0.160765
    111          1           0        6.863900    1.382304   -1.372458
    112          1           0        9.054611    0.671941    0.460273
    113          1           0        8.435487    2.352807    0.805129
    114          1           0       10.286144    2.364273   -0.403716
    115          1           0        9.084027    3.241197   -2.784132
    116          1           0        9.230297    4.323694   -1.366465
    117          1           0        7.803822    3.416958   -1.654257
    118          1           0        9.220746    0.653276   -2.753312
    119          1           0       10.092538    0.084934   -1.382314
    120          1           0       11.545158    2.301223   -2.742267
    121          1           0       11.310196    0.785657   -3.676636
    122          1           0       12.730615   -0.245175   -2.706024
    123          1           0       12.127454   -0.313132   -1.147825
    124          1           0       13.117108    2.079998   -0.811648
    125          1           0       13.914890    1.777625   -3.396915
    126          1           0       15.397114    1.464573   -2.527431
    127          1           0       14.405796    2.902793   -2.168405
    128          1           0       15.497541    0.357737   -0.738080
    129          1           0       14.178026   -0.667901   -0.500254
    130          1           0       13.849348    1.724287    1.313625
    131          1           0       15.529250    1.105050    1.225734
    132          1           0       15.004409   -0.507258    2.573463
    133          1           0       13.760873   -1.137162    1.454785
    134          1           0       12.734949    1.100850    3.198247
    135          1           0       13.451295    0.444542    5.324817
    136          1           0       14.319070   -0.965549    4.721998
    137          1           0       12.656293   -1.122991    4.950703
    138          1           0       11.493747   -0.590944    1.598381
    139          1           0       10.755626   -0.428867    3.085930
    140          1           0       11.923193   -1.737839    2.988345
 ---------------------------------------------------------------------

 SCF Done:  E(RwB97XD) =  -3007.83581196     A.U. after   20 cycles

 Excitation energies and oscillator strengths:

 Excited State   1:      Singlet-A      1.6451 eV  753.67 nm  f=0.3740  <S**2>=0.000
     245 -> 248       -0.18755
     246 -> 247        0.68204
     245 <- 248       -0.11806
 This state for optimization and/or second-order correction.
 Total Energy, E(TD-HF/TD-DFT) =  -3007.77535640
 Copying the excited state density for this state as the 1-particle RhoCI density.

 Excited State   2:      Singlet-A      2.2299 eV  556.01 nm  f=0.0587  <S**2>=0.000
     245 -> 247        0.60427
     246 -> 248        0.35347

 Excited State   3:      Singlet-A      3.4267 eV  361.82 nm  f=0.6114  <S**2>=0.000
     241 -> 247       -0.25723
     242 -> 247       -0.18622
     245 -> 247       -0.28926
     246 -> 248        0.54930
     245 <- 247        0.10531

 Excited State   4:      Singlet-A      3.5459 eV  349.65 nm  f=0.1436  <S**2>=0.000
     241 -> 247       -0.21561
     242 -> 247       -0.19535
     243 -> 247        0.57253
     245 -> 247        0.14090
     246 -> 248       -0.20501

 Excited State   5:      Singlet-A      3.5791 eV  346.41 nm  f=0.0185  <S**2>=0.000
     241 -> 247       -0.15877
     241 -> 249       -0.16884
     241 -> 250       -0.14034
     242 -> 247        0.50624
     242 -> 249        0.25982
     242 -> 250        0.20610
     243 -> 247        0.11197

 The electronic state is 1-A.
 Alpha  occ. eigenvalues --  -46.95247 -19.31638 -19.31461 -19.25646 -19.24075
 Alpha  occ. eigenvalues --  -19.23786 -19.22829 -14.47433 -14.46028 -14.44599
 Alpha  occ. eigenvalues --  -14.43553 -10.44274 -10.43804 -10.38614 -10.37591
 Alpha  occ. eigenvalues --  -10.36567 -10.36082 -10.35797 -10.35195 -10.35026
 Alpha  occ. eigenvalues --  -10.34904 -10.34458 -10.33964 -10.33615 -10.33097
 Alpha  occ. eigenvalues --  -10.32484 -10.32212 -10.32066 -10.32058 -10.32018
 Alpha  occ. eigenvalues --  -10.31969 -10.31936 -10.31777 -10.31762 -10.31562
 Alpha  occ. eigenvalues --  -10.31274 -10.30997 -10.30913 -10.30802 -10.30751
 Alpha  occ. eigenvalues --  -10.30428 -10.30370 -10.29987 -10.29891 -10.29763
 Alpha  occ. eigenvalues --  -10.29703 -10.29311 -10.29306 -10.29264 -10.29203
 Alpha  occ. eigenvalues --  -10.29194 -10.29035 -10.28988 -10.28959 -10.28946
 Alpha  occ. eigenvalues --  -10.28925 -10.28852 -10.28820 -10.28651 -10.28564
 Alpha  occ. eigenvalues --  -10.28480 -10.28473 -10.28434 -10.28358 -10.27492
 Alpha  occ. eigenvalues --  -10.27287  -3.21212  -1.94771  -1.94343  -1.94175
 Alpha  occ. eigenvalues --   -1.20236  -1.17594  -1.12516  -1.11685  -1.10062
 Alpha  occ. eigenvalues --   -1.08251  -1.06694  -1.05152  -1.05014  -1.03342
 Alpha  occ. eigenvalues --   -0.94596  -0.92512  -0.91817  -0.91608  -0.90701
 Alpha  occ. eigenvalues --   -0.90370  -0.89455  -0.89260  -0.89101  -0.88864
 Alpha  occ. eigenvalues --   -0.88190  -0.87832  -0.86209  -0.85450  -0.85085
 Alpha  occ. eigenvalues --   -0.84085  -0.83253  -0.83077  -0.82797  -0.82293
 Alpha  occ. eigenvalues --   -0.81803  -0.80761  -0.79873  -0.79006  -0.78172
 Alpha  occ. eigenvalues --   -0.77855  -0.77160  -0.76705  -0.76475  -0.76049
 Alpha  occ. eigenvalues --   -0.75595  -0.74768  -0.72987  -0.72832  -0.71710
 Alpha  occ. eigenvalues --   -0.71100  -0.70792  -0.69606  -0.69247  -0.67424
 Alpha  occ. eigenvalues --   -0.67291  -0.66985  -0.66882  -0.66456  -0.65753
 Alpha  occ. eigenvalues --   -0.65643  -0.64641  -0.64301  -0.63443  -0.62733
 Alpha  occ. eigenvalues --   -0.62378  -0.62032  -0.61159  -0.60513  -0.60055
 Alpha  occ. eigenvalues --   -0.59632  -0.59216  -0.58134  -0.58002  -0.57463
 Alpha  occ. eigenvalues --   -0.57188  -0.56628  -0.56405  -0.56116  -0.56004
 Alpha  occ. eigenvalues --   -0.55540  -0.55337  -0.55299  -0.54925  -0.54726
 Alpha  occ. eigenvalues --   -0.54664  -0.54578  -0.54408  -0.53879  -0.53535
 Alpha  occ. eigenvalues --   -0.53334  -0.53211  -0.53134  -0.52592  -0.52306
 Alpha  occ. eigenvalues --   -0.52121  -0.52013  -0.51838  -0.51609  -0.51385
 Alpha  occ. eigenvalues --   -0.51158  -0.50923  -0.50881  -0.50764  -0.50544
 Alpha  occ. eigenvalues --   -0.50299  -0.50157  -0.50102  -0.49768  -0.49507
 Alpha  occ. eigenvalues --   -0.49448  -0.49416  -0.49232  -0.48715  -0.48395
 Alpha  occ. eigenvalues --   -0.48206  -0.48065  -0.47946  -0.47757  -0.47446
 Alpha  occ. eigenvalues --   -0.47407  -0.47012  -0.46672  -0.46531  -0.46400
 Alpha  occ. eigenvalues --   -0.46000  -0.45894  -0.45701  -0.45505  -0.45315
 Alpha  occ. eigenvalues --   -0.45134  -0.44991  -0.44977  -0.44877  -0.44763
 Alpha  occ. eigenvalues --   -0.44650  -0.44466  -0.44340  -0.44116  -0.44007
 Alpha  occ. eigenvalues --   -0.43856  -0.43637  -0.43474  -0.43429  -0.43105
 Alpha  occ. eigenvalues --   -0.42880  -0.42730  -0.42534  -0.42373  -0.42098
 Alpha  occ. eigenvalues --   -0.42039  -0.41649  -0.41576  -0.41340  -0.40845
 Alpha  occ. eigenvalues --   -0.40662  -0.40300  -0.39575  -0.39526  -0.39319
 Alpha  occ. eigenvalues --   -0.39263  -0.38810  -0.38700  -0.38644  -0.38350
 Alpha  occ. eigenvalues --   -0.37467  -0.36916  -0.36824  -0.36265  -0.36221
 Alpha  occ. eigenvalues --   -0.35621  -0.35454  -0.35370  -0.33493  -0.33111
 Alpha  occ. eigenvalues --   -0.32461  -0.32201  -0.31964  -0.31501  -0.26242
 Alpha  occ. eigenvalues --   -0.22549
 Alpha virt. eigenvalues --   -0.06720  -0.00145   0.02365   0.04531   0.04622
 Alpha virt. eigenvalues --    0.05997   0.06753   0.07746   0.08531   0.10317
 Alpha virt. eigenvalues --    0.10717   0.10985   0.11323   0.12253   0.12370

 Mulliken charges:
               1
     1  Mg   0.970807
     2  C   -0.077596
     3  C   -0.098158
     4  C   -0.045847
     5  C   -0.068982
     6  N   -0.375119
     7  C    0.013504
     8  C   -0.019907
     9  C   -0.147525
    10  C    0.055395
    11  C    0.033398
    12  C    0.030102
    13  C   -0.059380
    14  C    0.221797
    15  O   -0.308694
    16  O   -0.323658
    17  N   -0.483160
    18  C    0.189770
    19  C   -0.185440
    20  C   -0.037624
    21  C    0.182083
    22  C    0.101022
    23  C    0.028114
    24  O   -0.222639
    25  C   -0.038144
    26  N   -0.333014
    27  C    0.051311
    28  C   -0.142892
    29  C   -0.016040
    30  C    0.064549
    31  C   -0.003867
    32  C   -0.030062
    33  C   -0.080573
    34  N   -0.433839
    35  C    0.120600
    36  C   -0.201128
    37  C    0.072296
    38  C    0.147877
    39  C    0.068045
    40  C    0.023810
    41  O   -0.211839
    42  C   -0.030755
    43  C    0.307065
    44  O   -0.242993
    45  O   -0.380366
    46  C    0.127041
    47  C    0.286352
    48  C   -0.181452
    49  C   -0.192922
    50  C    0.047704
    51  C    0.041584
    52  C   -0.068813
    53  C    0.001890
    54  C   -0.163304
    55  C    0.002181
    56  C   -0.010406
    57  C    0.019892
    58  C   -0.021323
    59  C   -0.185175
    60  C   -0.007524
    61  C    0.018510
    62  C   -0.040186
    63  C    0.010296
    64  C   -0.198046
    65  C   -0.016074
    66  C   -0.032516
    67  H    0.007975
    68  H    0.014559
    69  H    0.000015
    70  H    0.031678
    71  H    0.046015
    72  H    0.039322
    73  H    0.050724
    74  H    0.049029
    75  H    0.045587
    76  H    0.046294
    77  H    0.076446
    78  H    0.041163
    79  H    0.051090
    80  H    0.031659
    81  H    0.067251
    82  H    0.057716
    83  H    0.040093
    84  H    0.048108
    85  H    0.052765
    86  H    0.037858
    87  H    0.050635
    88  H    0.048368
    89  H    0.034672
    90  H    0.032330
    91  H    0.036675
    92  H    0.038388
    93  H    0.037952
    94  H    0.035422
    95  H    0.055097
    96  H    0.014636
    97  H    0.051766
    98  H    0.050141
    99  H    0.062136
   100  H    0.045916
   101  H    0.065048
   102  H    0.070533
   103  H    0.048249
   104  H    0.018870
   105  H    0.017572
   106  H    0.035853
   107  H    0.032355
   108  H    0.033413
   109  H    0.014727
   110  H    0.025903
   111  H    0.040002
   112  H    0.024914
   113  H    0.021428
   114  H    0.013100
   115  H    0.022187
   116  H    0.035497
   117  H    0.024883
   118  H    0.029108
   119  H    0.001467
   120  H    0.033543
   121  H    0.021512
   122  H    0.006059
   123  H    0.013617
   124  H    0.017209
   125  H    0.019051
   126  H    0.027156
   127  H    0.019989
   128  H    0.016533
   129  H    0.008035
   130  H    0.025058
   131  H    0.025164
   132  H    0.018421
   133  H    0.018229
   134  H    0.028155
   135  H    0.041121
   136  H    0.027278
   137  H    0.015912
   138  H    0.036239
   139  H    0.022830
   140  H    0.034285
 Sum of Mulliken charges =  -0.00000

 Dipole moment (field-independent basis, Debye):
    X=              4.2894    Y=              2.8980    Z=              0.0158  Tot=              5.1766
 Quadrupole moment (field-independent basis, Debye-Ang):
   XX=           -377.2522   YY=           -410.6385   ZZ=           -404.9799
   XY=             -6.2576   XZ=             16.2359   YZ=              1.6160

 Normal termination of Gaussian 16 at Thu May  5 09:41:56 2022.
