 Gaussian 16, Revision A.03,
 Gaussian 16:  ES64L-G16RevA.03 25-Dec-2016

 --------------------
 #p ZINDO=(nstates=5)
 --------------------

 -----------------------------
 step_801_chromophore_13 ZINDO
 -----------------------------
 Symbolic Z-matrix:
 Charge =  0 Multiplicity = 1

                         Standard orientation:
 ---------------------------------------------------------------------
 Center     Atomic      Atomic             Coordinates (Angstroms)
 Number     Number       Type             X           Y           Z
 ---------------------------------------------------------------------
      1         12           0       -5.847766    0.410157   -0.231909
      2          6           0       -3.587534   -2.181314    0.070992
      3          6           0       -3.412949    2.724519    0.850471
      4          6           0       -8.259885    2.696691    0.175014
      5          6           0       -8.472291   -2.065644   -0.417589
      6          7           0       -3.821001    0.276503    0.494500
      7          6           0       -3.034423   -0.907977    0.380332
      8          6           0       -1.568517   -0.688749    0.478803
      9          6           0       -1.517174    0.775259    0.839720
     10          6           0       -3.018810    1.315589    0.772767
     11          6           0       -1.048180    1.091881    2.303264
     12          6           0       -0.816896   -1.015885   -0.855754
     13          6           0        0.426791   -1.992462   -0.856459
     14          6           0        1.791469   -1.577651   -1.442050
     15          8           0        1.925335   -0.657609   -2.302918
     16          8           0        2.763339   -2.435561   -1.135289
     17          7           0       -5.851122    2.412769    0.352843
     18          6           0       -4.710196    3.202166    0.619596
     19          6           0       -5.094015    4.644556    0.647112
     20          6           0       -6.514047    4.627761    0.484599
     21          6           0       -6.960074    3.248918    0.285819
     22          6           0       -4.150722    5.795262    0.921731
     23          6           0       -7.374356    5.795935    0.469805
     24          8           0       -8.584335    5.676629    0.402027
     25          6           0       -6.678303    7.157614    0.348733
     26          7           0       -8.081405    0.347619   -0.100650
     27          6           0       -8.795791    1.477301    0.119587
     28          6           0      -10.315677    1.188658    0.028574
     29          6           0      -10.380467   -0.399914   -0.246880
     30          6           0       -8.900618   -0.729933   -0.268828
     31          6           0      -11.119143    1.579492    1.352019
     32          6           0      -11.271717   -0.693584   -1.507923
     33          6           0      -10.659087   -0.287644   -2.933811
     34          7           0       -6.003914   -1.647733   -0.335154
     35          6           0       -7.116825   -2.464374   -0.434690
     36          6           0       -6.594681   -3.792611   -0.551946
     37          6           0       -5.247874   -3.771283   -0.337130
     38          6           0       -4.953761   -2.414032   -0.140625
     39          6           0       -7.378716   -5.068628   -0.745578
     40          6           0       -4.080598   -4.499222   -0.259395
     41          8           0       -3.928844   -5.687352   -0.473413
     42          6           0       -2.915470   -3.574182    0.191887
     43          6           0       -2.384106   -4.018429    1.547085
     44          8           0       -2.981749   -3.807084    2.607274
     45          8           0       -1.056911   -4.437974    1.379690
     46          6           0       -0.365738   -4.819142    2.640361
     47          6           0        4.030137   -2.316959   -1.793448
     48          6           0        4.787427   -1.366273   -0.873454
     49          6           0        6.067124   -0.938872   -0.877519
     50          6           0        7.120380   -1.453394   -1.779195
     51          6           0        6.519122   -0.035966    0.258613
     52          6           0        7.051591    1.315015   -0.301022
     53          6           0        8.532821    1.547710    0.075832
     54          6           0        9.448029    2.087355   -1.042974
     55          6           0        8.889210    3.349124   -1.716795
     56          6           0        9.952603    0.965726   -2.009084
     57          6           0       11.306864    1.239062   -2.685177
     58          6           0       12.360938    0.417269   -1.923262
     59          6           0       13.540394    1.201235   -1.297309
     60          6           0       14.380603    1.841438   -2.413431
     61          6           0       14.457904    0.380903   -0.409099
     62          6           0       14.476196    0.862250    1.084760
     63          6           0       14.049401   -0.299197    2.089437
     64          6           0       12.971235    0.037983    3.130149
     65          6           0       13.397356   -0.391702    4.629346
     66          6           0       11.715536   -0.719747    2.657557
     67          1           0       -2.573896    3.402445    1.016286
     68          1           0       -9.111048    3.378749    0.226093
     69          1           0       -9.135513   -2.932481   -0.422540
     70          1           0       -1.120264   -1.372021    1.199951
     71          1           0       -0.877033    1.270842    0.108908
     72          1           0       -0.920985    0.159550    2.853684
     73          1           0       -1.860157    1.633234    2.789606
     74          1           0       -0.119440    1.631634    2.119069
     75          1           0       -0.386323   -0.085514   -1.225448
     76          1           0       -1.478102   -1.420902   -1.621165
     77          1           0        0.171085   -2.914998   -1.378596
     78          1           0        0.633236   -2.379432    0.140860
     79          1           0       -4.120852    6.338390   -0.023291
     80          1           0       -3.165570    5.358396    1.082646
     81          1           0       -4.448069    6.439966    1.749401
     82          1           0       -6.057300    7.523136    1.166477
     83          1           0       -7.433194    7.892058    0.066081
     84          1           0       -6.101528    7.240608   -0.572598
     85          1           0      -10.835556    1.738236   -0.755168
     86          1           0      -10.884186   -0.880405    0.591960
     87          1           0      -10.433357    1.885266    2.141000
     88          1           0      -11.922358    0.927000    1.696830
     89          1           0      -11.582246    2.504898    1.010145
     90          1           0      -12.168644   -0.101152   -1.327017
     91          1           0      -11.626292   -1.712925   -1.663554
     92          1           0       -9.611758   -0.014326   -2.802580
     93          1           0      -11.164689    0.524921   -3.454711
     94          1           0      -10.635181   -1.088790   -3.672146
     95          1           0       -7.372039   -5.488601   -1.751598
     96          1           0       -8.429376   -4.989125   -0.465727
     97          1           0       -6.995196   -5.829986   -0.067164
     98          1           0       -2.097254   -3.611258   -0.527505
     99          1           0       -0.825951   -4.518093    3.580837
    100          1           0        0.571712   -4.262274    2.639623
    101          1           0       -0.146277   -5.878921    2.776364
    102          1           0        4.055710   -2.024537   -2.842675
    103          1           0        4.555020   -3.270000   -1.730143
    104          1           0        4.182676   -0.996670   -0.045508
    105          1           0        6.783498   -2.213002   -2.486097
    106          1           0        7.830650   -2.009590   -1.168192
    107          1           0        7.686030   -0.721578   -2.357213
    108          1           0        7.237263   -0.612262    0.841138
    109          1           0        5.705705    0.269448    0.915543
    110          1           0        6.387179    2.045365    0.160765
    111          1           0        6.863900    1.382304   -1.372458
    112          1           0        9.054611    0.671941    0.460273
    113          1           0        8.435487    2.352807    0.805129
    114          1           0       10.286144    2.364273   -0.403716
    115          1           0        9.084027    3.241197   -2.784132
    116          1           0        9.230297    4.323694   -1.366465
    117          1           0        7.803822    3.416958   -1.654257
    118          1           0        9.220746    0.653276   -2.753312
    119          1           0       10.092538    0.084934   -1.382314
    120          1           0       11.545158    2.301223   -2.742267
    121          1           0       11.310196    0.785657   -3.676636
    122          1           0       12.730615   -0.245175   -2.706024
    123          1           0       12.127454   -0.313132   -1.147825
    124          1           0       13.117108    2.079998   -0.811648
    125          1           0       13.914890    1.777625   -3.396915
    126          1           0       15.397114    1.464573   -2.527431
    127          1           0       14.405796    2.902793   -2.168405
    128          1           0       15.497541    0.357737   -0.738080
    129          1           0       14.178026   -0.667901   -0.500254
    130          1           0       13.849348    1.724287    1.313625
    131          1           0       15.529250    1.105050    1.225734
    132          1           0       15.004409   -0.507258    2.573463
    133          1           0       13.760873   -1.137162    1.454785
    134          1           0       12.734949    1.100850    3.198247
    135          1           0       13.451295    0.444542    5.324817
    136          1           0       14.319070   -0.965549    4.721998
    137          1           0       12.656293   -1.122991    4.950703
    138          1           0       11.493747   -0.590944    1.598381
    139          1           0       10.755626   -0.428867    3.085930
    140          1           0       11.923193   -1.737839    2.988345
 ---------------------------------------------------------------------

 SCF Done:  E(RZINDO/S) =  -474.204342478     A.U. after   19 cycles

 Excitation energies and oscillator strengths:

 Excited State   1:      Singlet-A      1.2453 eV  995.60 nm  f=0.6021  <S**2>=0.000
     175 ->178         0.18477
     176 ->177         0.66340
 This state for optimization and/or second-order correction.
 Total Energy, E(CIS/TDA) =  -474.158577957
 Copying the excited state density for this state as the 1-particle RhoCI density.

 Excited State   2:      Singlet-A      1.9240 eV  644.42 nm  f=0.0046  <S**2>=0.000
     175 ->177         0.48781
     176 ->178        -0.48690

 Excited State   3:      Singlet-A      2.8636 eV  432.96 nm  f=0.2860  <S**2>=0.000
     175 ->177         0.25220
     176 ->178         0.31633
     176 ->179         0.49381
     176 ->182         0.18066
     176 ->183         0.13937

 Excited State   4:      Singlet-A      2.9467 eV  420.76 nm  f=0.0113  <S**2>=0.000
     168 ->177         0.31011
     168 ->179        -0.42883
     168 ->180        -0.22217
     168 ->183         0.14116
     168 ->185        -0.18589
     168 ->187        -0.15453

 Excited State   5:      Singlet-A      2.9695 eV  417.52 nm  f=0.0053  <S**2>=0.000
     170 ->177         0.31532
     170 ->178         0.19394
     170 ->179         0.29388
     170 ->180        -0.19111
     170 ->183         0.31121
     170 ->184        -0.10838
     170 ->185         0.20332
     170 ->203        -0.11143

 The electronic state is 1-A.
 Alpha  occ. eigenvalues --   -1.86518  -1.79143  -1.78690  -1.75232  -1.70384
 Alpha  occ. eigenvalues --   -1.69573  -1.66249  -1.60999  -1.59580  -1.59274
 Alpha  occ. eigenvalues --   -1.55079  -1.50902  -1.48564  -1.48269  -1.44933
 Alpha  occ. eigenvalues --   -1.43949  -1.42505  -1.40644  -1.39879  -1.37996
 Alpha  occ. eigenvalues --   -1.35525  -1.33163  -1.32507  -1.31640  -1.28146
 Alpha  occ. eigenvalues --   -1.27355  -1.24861  -1.22655  -1.20535  -1.17840
 Alpha  occ. eigenvalues --   -1.16899  -1.16537  -1.15035  -1.14595  -1.12388
 Alpha  occ. eigenvalues --   -1.11930  -1.11520  -1.11073  -1.06432  -1.04823
 Alpha  occ. eigenvalues --   -1.03890  -1.01705  -1.00021  -0.98223  -0.97391
 Alpha  occ. eigenvalues --   -0.96548  -0.94926  -0.93869  -0.92957  -0.92207
 Alpha  occ. eigenvalues --   -0.90217  -0.89464  -0.88544  -0.88245  -0.85672
 Alpha  occ. eigenvalues --   -0.84646  -0.84266  -0.83312  -0.82004  -0.81633
 Alpha  occ. eigenvalues --   -0.80679  -0.79275  -0.77471  -0.76948  -0.75966
 Alpha  occ. eigenvalues --   -0.75647  -0.75373  -0.74846  -0.74191  -0.73987
 Alpha  occ. eigenvalues --   -0.73697  -0.72970  -0.72618  -0.72335  -0.71808
 Alpha  occ. eigenvalues --   -0.70619  -0.69445  -0.68575  -0.68367  -0.68072
 Alpha  occ. eigenvalues --   -0.67861  -0.67278  -0.66764  -0.65694  -0.65570
 Alpha  occ. eigenvalues --   -0.65419  -0.64813  -0.64710  -0.63877  -0.63291
 Alpha  occ. eigenvalues --   -0.63075  -0.62756  -0.62446  -0.62153  -0.61953
 Alpha  occ. eigenvalues --   -0.61287  -0.61112  -0.60849  -0.59993  -0.59785
 Alpha  occ. eigenvalues --   -0.59290  -0.59264  -0.58783  -0.58441  -0.58043
 Alpha  occ. eigenvalues --   -0.57462  -0.56873  -0.56789  -0.56234  -0.55671
 Alpha  occ. eigenvalues --   -0.55624  -0.54949  -0.54925  -0.54700  -0.54013
 Alpha  occ. eigenvalues --   -0.53938  -0.53343  -0.53213  -0.52922  -0.52575
 Alpha  occ. eigenvalues --   -0.52250  -0.52038  -0.51744  -0.51521  -0.51140
 Alpha  occ. eigenvalues --   -0.51090  -0.50742  -0.50671  -0.50580  -0.50360
 Alpha  occ. eigenvalues --   -0.50232  -0.49956  -0.49598  -0.49422  -0.49402
 Alpha  occ. eigenvalues --   -0.48896  -0.48649  -0.48517  -0.48468  -0.48173
 Alpha  occ. eigenvalues --   -0.47890  -0.47606  -0.47334  -0.47065  -0.46854
 Alpha  occ. eigenvalues --   -0.46690  -0.46202  -0.45917  -0.45688  -0.45661
 Alpha  occ. eigenvalues --   -0.45459  -0.45016  -0.44498  -0.44317  -0.43580
 Alpha  occ. eigenvalues --   -0.43065  -0.42741  -0.42510  -0.42186  -0.42007
 Alpha  occ. eigenvalues --   -0.41103  -0.40729  -0.40460  -0.39361  -0.38871
 Alpha  occ. eigenvalues --   -0.38762  -0.37149  -0.35560  -0.34860  -0.34255
 Alpha  occ. eigenvalues --   -0.33656  -0.32467  -0.32307  -0.31917  -0.26944
 Alpha  occ. eigenvalues --   -0.21376
 Alpha virt. eigenvalues --   -0.08241  -0.02452  -0.00688   0.00822   0.01054
 Alpha virt. eigenvalues --    0.01149   0.01856   0.02708   0.04984   0.05130
 Alpha virt. eigenvalues --    0.06409   0.07048   0.07426   0.07764   0.07857

 Mulliken charges:
               1
     1  Mg   0.430707
     2  C   -0.049546
     3  C   -0.083792
     4  C   -0.054847
     5  C   -0.069454
     6  N   -0.268682
     7  C    0.096118
     8  C    0.014998
     9  C    0.002061
    10  C    0.148084
    11  C   -0.058000
    12  C   -0.029905
    13  C    0.000158
    14  C    0.468399
    15  O   -0.547756
    16  O   -0.244906
    17  N   -0.340409
    18  C    0.115224
    19  C    0.012585
    20  C   -0.033821
    21  C    0.152685
    22  C   -0.037179
    23  C    0.332192
    24  O   -0.516258
    25  C   -0.043421
    26  N   -0.278367
    27  C    0.155659
    28  C   -0.006112
    29  C    0.000322
    30  C    0.119571
    31  C   -0.063107
    32  C   -0.029751
    33  C   -0.064323
    34  N   -0.306970
    35  C    0.079018
    36  C    0.033169
    37  C   -0.047284
    38  C    0.117987
    39  C   -0.047079
    40  C    0.340579
    41  O   -0.541240
    42  C    0.052082
    43  C    0.487073
    44  O   -0.506360
    45  O   -0.263204
    46  C    0.070286
    47  C    0.113571
    48  C   -0.093865
    49  C   -0.004176
    50  C   -0.040262
    51  C   -0.025851
    52  C   -0.033891
    53  C   -0.035410
    54  C   -0.010482
    55  C   -0.056548
    56  C   -0.032977
    57  C   -0.028961
    58  C   -0.039265
    59  C   -0.010718
    60  C   -0.062652
    61  C   -0.031655
    62  C   -0.049051
    63  C   -0.038886
    64  C   -0.006456
    65  C   -0.067522
    66  C   -0.057638
    67  H    0.035009
    68  H    0.030760
    69  H    0.038263
    70  H    0.036828
    71  H    0.035576
    72  H    0.027482
    73  H    0.033104
    74  H    0.028697
    75  H    0.031480
    76  H    0.029826
    77  H    0.046348
    78  H    0.031765
    79  H    0.035987
    80  H    0.023806
    81  H    0.042869
    82  H    0.045521
    83  H    0.025530
    84  H    0.031657
    85  H    0.039687
    86  H    0.031091
    87  H    0.028185
    88  H    0.031726
    89  H    0.013102
    90  H    0.015312
    91  H    0.023251
    92  H    0.019921
    93  H    0.021531
    94  H    0.018030
    95  H    0.034618
    96  H    0.012389
    97  H    0.029329
    98  H    0.046362
    99  H    0.048682
   100  H    0.024567
   101  H    0.046739
   102  H    0.063808
   103  H    0.034926
   104  H    0.026368
   105  H    0.013808
   106  H    0.022239
   107  H    0.033175
   108  H    0.027275
   109  H    0.018303
   110  H    0.017155
   111  H    0.027094
   112  H    0.025190
   113  H    0.014436
   114  H    0.011497
   115  H    0.013688
   116  H    0.023811
   117  H    0.017163
   118  H    0.020058
   119  H    0.013160
   120  H    0.031594
   121  H    0.018283
   122  H    0.005229
   123  H    0.022525
   124  H    0.021674
   125  H    0.013077
   126  H    0.021331
   127  H    0.010011
   128  H    0.017740
   129  H    0.016963
   130  H    0.027056
   131  H    0.017626
   132  H    0.014532
   133  H    0.026932
   134  H    0.023664
   135  H    0.023684
   136  H    0.021099
   137  H    0.015259
   138  H    0.018566
   139  H    0.007376
   140  H    0.023107
 Sum of Mulliken charges =  -0.00000

 Dipole moment (field-independent basis, Debye):
    X=              6.2053    Y=              4.9501    Z=              0.4628  Tot=              7.9513
 N-N= 4.269622437630D+03 E-N= 0.000000000000D+00  KE=-9.213459612807D+03
 Leave Link  601 at Thu May  5 09:53:58 2022, MaxMem=  6710886400 cpu:               2.9 elap:               0.1
 (Enter /sw/apps/gaussian-16.0/g16/l9999.exe)
 1\1\GINC-BP1-COMPUTE159\SP\RZINDO CIS\STO-3G\C55H74Mg1N4O6\OF15641\05-
 May-2022\0\\#p ZINDO=(nstates=5)\\step_801_chromophore_13 ZINDO\\0,1\M
 g,0,46.918,24.925,28.414\C,0,47.558,27.016,31.085\C,0,46.222,22.252,30
 .611\C,0,47.061,22.81,25.822\C,0,48.513,27.366,26.281\N,0,47.011,24.63
 1,30.549\C,0,47.156,25.708,31.473\C,0,46.726,25.395,32.86\C,0,46.439,2
 3.918,32.749\C,0,46.603,23.535,31.207\C,0,47.447,22.978,33.499\C,0,45.
 478,26.228,33.309\C,0,45.505,27.046,34.662\C,0,44.432,26.857,35.753\O,

 Normal termination of Gaussian 16 at Thu May  5 09:53:58 2022.
