 Gaussian 16, Revision A.03,
 Gaussian 16:  ES64L-G16RevA.03 25-Dec-2016

 ------------------------------
 #p blyp/Def2SVP td=(nstates=5)
 ------------------------------

 --------------------------------------------------
 step_1451_chromophore_2 TDDFT with blyp functional
 --------------------------------------------------
 Symbolic Z-matrix:
 Charge =  0 Multiplicity = 1

                         Standard orientation:
 ---------------------------------------------------------------------
 Center     Atomic      Atomic             Coordinates (Angstroms)
 Number     Number       Type             X           Y           Z
 ---------------------------------------------------------------------
      1         12           0        4.283166    1.139721   -0.557557
      2          6           0        3.596503   -2.373636   -0.913286
      3          6           0        1.879860    1.846118   -2.925433
      4          6           0        3.999445    4.061875    0.751911
      5          6           0        6.198713    0.073968    2.425230
      6          7           0        2.908950   -0.139598   -1.777832
      7          6           0        2.812767   -1.527291   -1.754964
      8          6           0        1.822164   -2.009815   -2.871266
      9          6           0        1.368293   -0.619238   -3.458027
     10          6           0        2.108435    0.439040   -2.651219
     11          6           0        1.548185   -0.448332   -4.997942
     12          6           0        0.693815   -3.039084   -2.559800
     13          6           0        0.133884   -2.925544   -1.172810
     14          6           0       -1.363920   -3.327430   -1.047801
     15          8           0       -1.766228   -4.505740   -0.882203
     16          8           0       -2.171936   -2.277897   -1.160758
     17          7           0        3.263013    2.813490   -1.142981
     18          6           0        2.308288    2.950438   -2.112692
     19          6           0        1.908374    4.338743   -2.217120
     20          6           0        2.607459    5.077309   -1.188797
     21          6           0        3.301000    3.953489   -0.433200
     22          6           0        1.008025    4.817474   -3.321881
     23          6           0        2.570744    6.612772   -0.823945
     24          8           0        1.812313    7.335236   -1.434767
     25          6           0        3.518461    7.187856    0.260198
     26          7           0        4.920380    1.883672    1.389512
     27          6           0        4.699390    3.241008    1.605708
     28          6           0        5.283969    3.630146    2.956364
     29          6           0        5.747642    2.287050    3.551099
     30          6           0        5.602927    1.321977    2.417762
     31          6           0        6.510036    4.594366    2.784954
     32          6           0        4.900424    1.887124    4.806696
     33          6           0        5.774742    1.205973    5.912457
     34          7           0        5.083795   -0.783416    0.392533
     35          6           0        5.846595   -0.993083    1.518868
     36          6           0        6.018936   -2.430294    1.735882
     37          6           0        5.175856   -3.021940    0.778873
     38          6           0        4.585061   -1.955994    0.036793
     39          6           0        6.902410   -3.055350    2.788582
     40          6           0        4.607403   -4.278992    0.325213
     41          8           0        4.858658   -5.471952    0.701431
     42          6           0        3.604754   -3.930522   -0.817854
     43          6           0        3.995743   -4.704741   -2.018366
     44          8           0        3.673414   -5.845729   -2.194013
     45          8           0        4.794310   -3.961612   -2.839957
     46          6           0        4.970739   -4.667469   -4.103521
     47          6           0       -3.606219   -2.433352   -1.076023
     48          6           0       -4.005621   -3.153797    0.219050
     49          6           0       -4.196266   -2.732157    1.511823
     50          6           0       -3.826257   -1.438162    2.027947
     51          6           0       -4.707864   -3.773027    2.568547
     52          6           0       -6.094404   -3.500194    3.229414
     53          6           0       -7.272777   -4.091900    2.394599
     54          6           0       -8.502379   -3.092458    2.300532
     55          6           0       -9.890931   -3.841145    2.408139
     56          6           0       -8.357712   -2.327174    0.949016
     57          6           0       -8.869397   -0.894953    0.914621
     58          6           0       -7.785817    0.185836    1.399977
     59          6           0       -7.410686    1.069204    0.183829
     60          6           0       -6.567607    0.346784   -0.951935
     61          6           0       -6.635768    2.306562    0.627247
     62          6           0       -7.557018    3.506395    0.756049
     63          6           0       -7.977460    4.124699   -0.584473
     64          6           0       -9.473078    4.535650   -0.826775
     65          6           0      -10.118323    3.639335   -1.910766
     66          6           0       -9.746873    5.999442   -1.111970
     67          1           0        1.145741    2.068763   -3.702411
     68          1           0        4.067386    5.066124    1.175224
     69          1           0        6.628399   -0.120865    3.409207
     70          1           0        2.549963   -2.402147   -3.581836
     71          1           0        0.306418   -0.540453   -3.222803
     72          1           0        1.426437    0.590327   -5.306347
     73          1           0        0.763940   -1.107750   -5.368015
     74          1           0        2.569474   -0.728427   -5.254366
     75          1           0        0.991293   -4.018625   -2.935949
     76          1           0       -0.089763   -2.795139   -3.276527
     77          1           0        0.184976   -1.929686   -0.732743
     78          1           0        0.646677   -3.654612   -0.546655
     79          1           0        0.036109    5.048062   -2.885537
     80          1           0        0.740145    4.093450   -4.090610
     81          1           0        1.485993    5.711989   -3.721500
     82          1           0        4.445717    6.617977    0.194227
     83          1           0        3.047051    7.054596    1.232622
     84          1           0        3.927814    8.191106    0.140595
     85          1           0        4.607856    4.162945    3.625428
     86          1           0        6.815470    2.461284    3.686506
     87          1           0        6.171038    5.425141    2.166004
     88          1           0        7.394007    4.073619    2.417803
     89          1           0        6.896653    4.943939    3.742187
     90          1           0        4.121647    1.178176    4.524929
     91          1           0        4.363623    2.763864    5.168643
     92          1           0        6.794102    0.984700    5.596593
     93          1           0        5.387979    0.272265    6.320718
     94          1           0        5.868134    1.725552    6.865465
     95          1           0        6.707144   -2.644599    3.779027
     96          1           0        7.953478   -2.938950    2.523448
     97          1           0        6.718801   -4.129166    2.750509
     98          1           0        2.685459   -4.322157   -0.383478
     99          1           0        3.963462   -4.847332   -4.480125
    100          1           0        5.575598   -5.572077   -4.033165
    101          1           0        5.470134   -4.072623   -4.867932
    102          1           0       -4.050735   -3.048648   -1.857682
    103          1           0       -3.980581   -1.410416   -1.068812
    104          1           0       -4.277484   -4.208647    0.175021
    105          1           0       -4.678862   -0.813953    2.296418
    106          1           0       -3.104625   -1.058077    1.304729
    107          1           0       -3.230998   -1.574894    2.930587
    108          1           0       -3.983744   -3.909569    3.371972
    109          1           0       -4.704424   -4.772724    2.134603
    110          1           0       -6.133387   -2.414501    3.141564
    111          1           0       -6.050992   -3.716618    4.296452
    112          1           0       -7.574354   -4.906717    3.051814
    113          1           0       -6.899890   -4.546033    1.476234
    114          1           0       -8.572227   -2.405998    3.144376
    115          1           0      -10.588481   -3.421776    1.681837
    116          1           0      -10.353447   -3.815649    3.395373
    117          1           0       -9.943134   -4.867835    2.046176
    118          1           0       -8.889123   -2.920024    0.204737
    119          1           0       -7.292713   -2.331123    0.715441
    120          1           0       -9.675026   -0.789154    1.641672
    121          1           0       -9.287563   -0.713576   -0.075375
    122          1           0       -6.990522   -0.452948    1.783115
    123          1           0       -8.158279    0.769543    2.241797
    124          1           0       -8.332194    1.493153   -0.213417
    125          1           0       -6.495159   -0.714648   -0.716215
    126          1           0       -5.566691    0.778241   -0.915238
    127          1           0       -7.047572    0.516704   -1.915631
    128          1           0       -5.824486    2.594682   -0.039941
    129          1           0       -6.194805    2.059119    1.593587
    130          1           0       -6.943644    4.299415    1.186240
    131          1           0       -8.352513    3.308116    1.473727
    132          1           0       -7.525212    3.483455   -1.342165
    133          1           0       -7.390829    5.040627   -0.655363
    134          1           0      -10.059221    4.290499    0.058263
    135          1           0      -11.027799    3.183592   -1.519458
    136          1           0       -9.383435    2.913004   -2.256793
    137          1           0      -10.446799    4.178272   -2.799310
    138          1           0      -10.077208    6.161372   -2.138277
    139          1           0       -8.860719    6.618526   -0.973390
    140          1           0      -10.522667    6.320447   -0.416693
 ---------------------------------------------------------------------

 SCF Done:  E(RB-LYP) =  -3007.36843372     A.U. after   22 cycles

 Excitation energies and oscillator strengths:

 Excited State   1:      Singlet-A      1.7789 eV  696.97 nm  f=0.2873  <S**2>=0.000
     244 -> 247       -0.13796
     245 -> 248        0.18158
     246 -> 247        0.67490
     246 <- 247       -0.15040
 This state for optimization and/or second-order correction.
 Total Energy, E(TD-HF/TD-DFT) =  -3007.30306037
 Copying the excited state density for this state as the 1-particle RhoCI density.

 Excited State   2:      Singlet-A      1.8143 eV  683.36 nm  f=0.0223  <S**2>=0.000
     244 -> 247        0.67029
     245 -> 247        0.16514
     246 -> 247        0.14435

 Excited State   3:      Singlet-A      2.0230 eV  612.86 nm  f=0.0591  <S**2>=0.000
     243 -> 247       -0.17053
     244 -> 247       -0.16481
     245 -> 247        0.59884
     246 -> 248       -0.24819

 Excited State   4:      Singlet-A      2.1018 eV  589.89 nm  f=0.0060  <S**2>=0.000
     243 -> 247        0.67797
     245 -> 247        0.13806

 Excited State   5:      Singlet-A      2.1193 eV  585.02 nm  f=0.0008  <S**2>=0.000
     242 -> 247        0.69989

 The electronic state is 1-A.
 Alpha  occ. eigenvalues --  -46.29364 -18.82989 -18.82589 -18.76549 -18.76393
 Alpha  occ. eigenvalues --  -18.75925 -18.75392 -14.04129 -14.03120 -14.01748
 Alpha  occ. eigenvalues --  -14.00949 -10.03996 -10.03457 -10.01382  -9.99674
 Alpha  occ. eigenvalues --   -9.98900  -9.97701  -9.97535  -9.97168  -9.96781
 Alpha  occ. eigenvalues --   -9.96615  -9.96213  -9.96075  -9.95833  -9.94616
 Alpha  occ. eigenvalues --   -9.94579  -9.94496  -9.94459  -9.94225  -9.94112
 Alpha  occ. eigenvalues --   -9.94000  -9.93978  -9.93961  -9.93859  -9.93775
 Alpha  occ. eigenvalues --   -9.93723  -9.93665  -9.93626  -9.93175  -9.93132
 Alpha  occ. eigenvalues --   -9.93028  -9.92848  -9.92800  -9.92484  -9.92393
 Alpha  occ. eigenvalues --   -9.92362  -9.92332  -9.92238  -9.91859  -9.91749
 Alpha  occ. eigenvalues --   -9.91616  -9.91610  -9.91497  -9.91419  -9.91418
 Alpha  occ. eigenvalues --   -9.91289  -9.91256  -9.91232  -9.90986  -9.90961
 Alpha  occ. eigenvalues --   -9.90771  -9.90704  -9.90651  -9.90621  -9.90492
 Alpha  occ. eigenvalues --   -9.90438  -2.93726  -1.74130  -1.73624  -1.73440
 Alpha  occ. eigenvalues --   -0.99010  -0.98810  -0.92687  -0.90733  -0.88347
 Alpha  occ. eigenvalues --   -0.88321  -0.87003  -0.86325  -0.86267  -0.85440
 Alpha  occ. eigenvalues --   -0.75032  -0.73450  -0.73247  -0.72848  -0.72775
 Alpha  occ. eigenvalues --   -0.72335  -0.71595  -0.70887  -0.70554  -0.70167
 Alpha  occ. eigenvalues --   -0.69637  -0.69415  -0.68166  -0.67573  -0.67408
 Alpha  occ. eigenvalues --   -0.66598  -0.66019  -0.65660  -0.65057  -0.64755
 Alpha  occ. eigenvalues --   -0.63839  -0.62448  -0.62225  -0.61803  -0.61147
 Alpha  occ. eigenvalues --   -0.60438  -0.60169  -0.59978  -0.59773  -0.58943
 Alpha  occ. eigenvalues --   -0.58530  -0.58077  -0.57162  -0.56441  -0.55463
 Alpha  occ. eigenvalues --   -0.54173  -0.53790  -0.52858  -0.52251  -0.52026
 Alpha  occ. eigenvalues --   -0.51502  -0.51296  -0.51061  -0.50439  -0.49776
 Alpha  occ. eigenvalues --   -0.49654  -0.49417  -0.49230  -0.48902  -0.46725
 Alpha  occ. eigenvalues --   -0.46179  -0.45783  -0.45504  -0.45221  -0.44598
 Alpha  occ. eigenvalues --   -0.44118  -0.43943  -0.43467  -0.43239  -0.42774
 Alpha  occ. eigenvalues --   -0.42145  -0.41974  -0.41804  -0.41233  -0.40987
 Alpha  occ. eigenvalues --   -0.40887  -0.40635  -0.40494  -0.40142  -0.40023
 Alpha  occ. eigenvalues --   -0.39908  -0.39879  -0.39503  -0.39381  -0.39172
 Alpha  occ. eigenvalues --   -0.38972  -0.38847  -0.38544  -0.38355  -0.38186
 Alpha  occ. eigenvalues --   -0.38137  -0.37956  -0.37918  -0.37530  -0.37263
 Alpha  occ. eigenvalues --   -0.37217  -0.37192  -0.37016  -0.36827  -0.36560
 Alpha  occ. eigenvalues --   -0.36418  -0.36350  -0.36108  -0.35847  -0.35710
 Alpha  occ. eigenvalues --   -0.35619  -0.35387  -0.35195  -0.34810  -0.34604
 Alpha  occ. eigenvalues --   -0.34554  -0.34474  -0.34321  -0.34178  -0.34099
 Alpha  occ. eigenvalues --   -0.33951  -0.33722  -0.33655  -0.33235  -0.33089
 Alpha  occ. eigenvalues --   -0.32883  -0.32797  -0.32771  -0.32438  -0.32360
 Alpha  occ. eigenvalues --   -0.32175  -0.32069  -0.31866  -0.31735  -0.31540
 Alpha  occ. eigenvalues --   -0.31281  -0.31177  -0.31059  -0.30780  -0.30658
 Alpha  occ. eigenvalues --   -0.30602  -0.30458  -0.30255  -0.30036  -0.29781
 Alpha  occ. eigenvalues --   -0.29641  -0.29544  -0.29325  -0.29191  -0.29138
 Alpha  occ. eigenvalues --   -0.28985  -0.28378  -0.28349  -0.28036  -0.27818
 Alpha  occ. eigenvalues --   -0.27552  -0.27284  -0.26944  -0.26894  -0.26389
 Alpha  occ. eigenvalues --   -0.26335  -0.26292  -0.25863  -0.25663  -0.25580
 Alpha  occ. eigenvalues --   -0.25214  -0.24926  -0.24674  -0.23839  -0.23562
 Alpha  occ. eigenvalues --   -0.23443  -0.22489  -0.21656  -0.21538  -0.20964
 Alpha  occ. eigenvalues --   -0.20417  -0.19541  -0.19336  -0.18339  -0.17670
 Alpha  occ. eigenvalues --   -0.15912
 Alpha virt. eigenvalues --   -0.11758  -0.07416  -0.06732  -0.04932  -0.04319
 Alpha virt. eigenvalues --   -0.03105  -0.02473  -0.01760  -0.01446  -0.00145
 Alpha virt. eigenvalues --    0.01133   0.01486   0.02109   0.02425   0.02752

 Mulliken charges:
               1
     1  Mg   0.705890
     2  C    0.062214
     3  C   -0.074025
     4  C   -0.007866
     5  C   -0.034586
     6  N   -0.193154
     7  C   -0.127857
     8  C    0.036561
     9  C   -0.033159
    10  C    0.023271
    11  C    0.123534
    12  C    0.142700
    13  C    0.177712
    14  C    0.044622
    15  O   -0.223101
    16  O   -0.238532
    17  N   -0.299009
    18  C    0.128323
    19  C   -0.141582
    20  C    0.001216
    21  C    0.153442
    22  C    0.181305
    23  C   -0.054804
    24  O   -0.144432
    25  C    0.117602
    26  N   -0.232967
    27  C   -0.030905
    28  C   -0.004462
    29  C    0.066289
    30  C   -0.034071
    31  C    0.103835
    32  C    0.142583
    33  C    0.045427
    34  N   -0.174170
    35  C    0.078683
    36  C   -0.194071
    37  C    0.121731
    38  C    0.013920
    39  C    0.175070
    40  C   -0.077263
    41  O   -0.174433
    42  C    0.053362
    43  C    0.100191
    44  O   -0.144163
    45  O   -0.265300
    46  C    0.226776
    47  C    0.380520
    48  C   -0.123139
    49  C   -0.188585
    50  C    0.177482
    51  C    0.098061
    52  C    0.064061
    53  C    0.132542
    54  C   -0.062120
    55  C    0.087828
    56  C    0.069265
    57  C    0.086392
    58  C    0.092313
    59  C   -0.102193
    60  C    0.096507
    61  C    0.107003
    62  C    0.064819
    63  C    0.108342
    64  C   -0.081920
    65  C    0.090704
    66  C    0.116996
    67  H   -0.053721
    68  H   -0.110109
    69  H   -0.061942
    70  H   -0.029216
    71  H   -0.022682
    72  H   -0.004101
    73  H    0.001713
    74  H   -0.005352
    75  H   -0.005758
    76  H   -0.027135
    77  H    0.000874
    78  H    0.000109
    79  H    0.002953
    80  H   -0.021301
    81  H    0.018486
    82  H    0.006538
    83  H    0.030616
    84  H    0.000211
    85  H   -0.026135
    86  H   -0.033277
    87  H   -0.002905
    88  H   -0.009886
    89  H   -0.011898
    90  H   -0.010591
    91  H   -0.019568
    92  H   -0.001515
    93  H   -0.015423
    94  H   -0.016961
    95  H    0.003457
    96  H    0.001175
    97  H    0.004762
    98  H    0.015085
    99  H    0.006090
   100  H    0.024191
   101  H   -0.001782
   102  H    0.001696
   103  H   -0.011295
   104  H   -0.030326
   105  H    0.014228
   106  H   -0.012670
   107  H   -0.021671
   108  H   -0.034690
   109  H   -0.036019
   110  H   -0.048815
   111  H   -0.023324
   112  H   -0.039836
   113  H   -0.016356
   114  H   -0.035452
   115  H   -0.032649
   116  H   -0.010648
   117  H   -0.024911
   118  H   -0.037045
   119  H   -0.011448
   120  H   -0.038812
   121  H   -0.027357
   122  H   -0.031590
   123  H   -0.033236
   124  H   -0.024726
   125  H   -0.007125
   126  H   -0.004408
   127  H   -0.003840
   128  H   -0.039106
   129  H   -0.044357
   130  H   -0.044948
   131  H   -0.031642
   132  H   -0.036215
   133  H   -0.046820
   134  H   -0.032649
   135  H   -0.014748
   136  H   -0.013047
   137  H   -0.025682
   138  H   -0.016708
   139  H   -0.021277
   140  H   -0.012702
 Sum of Mulliken charges =  -0.00000

 Dipole moment (field-independent basis, Debye):
    X=              0.9033    Y=              6.2010    Z=              0.3885  Tot=              6.2785
 Quadrupole moment (field-independent basis, Debye-Ang):
   XX=           -377.9178   YY=           -479.5680   ZZ=           -371.3522
   XY=             30.0944   XZ=              1.5260   YZ=             19.6684

 Normal termination of Gaussian 16 at Wed May  4 07:33:48 2022.
