 Gaussian 16, Revision A.03,
 Gaussian 16:  ES64L-G16RevA.03 25-Dec-2016

 -----------------------------------
 #p cam-b3lyp/Def2SVP td=(nstates=5)
 -----------------------------------

 -------------------------------------------------------
 step_1451_chromophore_2 TDDFT with cam-b3lyp functional
 -------------------------------------------------------
 Symbolic Z-matrix:
 Charge =  0 Multiplicity = 1

                         Standard orientation:
 ---------------------------------------------------------------------
 Center     Atomic      Atomic             Coordinates (Angstroms)
 Number     Number       Type             X           Y           Z
 ---------------------------------------------------------------------
      1         12           0        4.283166    1.139721   -0.557557
      2          6           0        3.596503   -2.373636   -0.913286
      3          6           0        1.879860    1.846118   -2.925433
      4          6           0        3.999445    4.061875    0.751911
      5          6           0        6.198713    0.073968    2.425230
      6          7           0        2.908950   -0.139598   -1.777832
      7          6           0        2.812767   -1.527291   -1.754964
      8          6           0        1.822164   -2.009815   -2.871266
      9          6           0        1.368293   -0.619238   -3.458027
     10          6           0        2.108435    0.439040   -2.651219
     11          6           0        1.548185   -0.448332   -4.997942
     12          6           0        0.693815   -3.039084   -2.559800
     13          6           0        0.133884   -2.925544   -1.172810
     14          6           0       -1.363920   -3.327430   -1.047801
     15          8           0       -1.766228   -4.505740   -0.882203
     16          8           0       -2.171936   -2.277897   -1.160758
     17          7           0        3.263013    2.813490   -1.142981
     18          6           0        2.308288    2.950438   -2.112692
     19          6           0        1.908374    4.338743   -2.217120
     20          6           0        2.607459    5.077309   -1.188797
     21          6           0        3.301000    3.953489   -0.433200
     22          6           0        1.008025    4.817474   -3.321881
     23          6           0        2.570744    6.612772   -0.823945
     24          8           0        1.812313    7.335236   -1.434767
     25          6           0        3.518461    7.187856    0.260198
     26          7           0        4.920380    1.883672    1.389512
     27          6           0        4.699390    3.241008    1.605708
     28          6           0        5.283969    3.630146    2.956364
     29          6           0        5.747642    2.287050    3.551099
     30          6           0        5.602927    1.321977    2.417762
     31          6           0        6.510036    4.594366    2.784954
     32          6           0        4.900424    1.887124    4.806696
     33          6           0        5.774742    1.205973    5.912457
     34          7           0        5.083795   -0.783416    0.392533
     35          6           0        5.846595   -0.993083    1.518868
     36          6           0        6.018936   -2.430294    1.735882
     37          6           0        5.175856   -3.021940    0.778873
     38          6           0        4.585061   -1.955994    0.036793
     39          6           0        6.902410   -3.055350    2.788582
     40          6           0        4.607403   -4.278992    0.325213
     41          8           0        4.858658   -5.471952    0.701431
     42          6           0        3.604754   -3.930522   -0.817854
     43          6           0        3.995743   -4.704741   -2.018366
     44          8           0        3.673414   -5.845729   -2.194013
     45          8           0        4.794310   -3.961612   -2.839957
     46          6           0        4.970739   -4.667469   -4.103521
     47          6           0       -3.606219   -2.433352   -1.076023
     48          6           0       -4.005621   -3.153797    0.219050
     49          6           0       -4.196266   -2.732157    1.511823
     50          6           0       -3.826257   -1.438162    2.027947
     51          6           0       -4.707864   -3.773027    2.568547
     52          6           0       -6.094404   -3.500194    3.229414
     53          6           0       -7.272777   -4.091900    2.394599
     54          6           0       -8.502379   -3.092458    2.300532
     55          6           0       -9.890931   -3.841145    2.408139
     56          6           0       -8.357712   -2.327174    0.949016
     57          6           0       -8.869397   -0.894953    0.914621
     58          6           0       -7.785817    0.185836    1.399977
     59          6           0       -7.410686    1.069204    0.183829
     60          6           0       -6.567607    0.346784   -0.951935
     61          6           0       -6.635768    2.306562    0.627247
     62          6           0       -7.557018    3.506395    0.756049
     63          6           0       -7.977460    4.124699   -0.584473
     64          6           0       -9.473078    4.535650   -0.826775
     65          6           0      -10.118323    3.639335   -1.910766
     66          6           0       -9.746873    5.999442   -1.111970
     67          1           0        1.145741    2.068763   -3.702411
     68          1           0        4.067386    5.066124    1.175224
     69          1           0        6.628399   -0.120865    3.409207
     70          1           0        2.549963   -2.402147   -3.581836
     71          1           0        0.306418   -0.540453   -3.222803
     72          1           0        1.426437    0.590327   -5.306347
     73          1           0        0.763940   -1.107750   -5.368015
     74          1           0        2.569474   -0.728427   -5.254366
     75          1           0        0.991293   -4.018625   -2.935949
     76          1           0       -0.089763   -2.795139   -3.276527
     77          1           0        0.184976   -1.929686   -0.732743
     78          1           0        0.646677   -3.654612   -0.546655
     79          1           0        0.036109    5.048062   -2.885537
     80          1           0        0.740145    4.093450   -4.090610
     81          1           0        1.485993    5.711989   -3.721500
     82          1           0        4.445717    6.617977    0.194227
     83          1           0        3.047051    7.054596    1.232622
     84          1           0        3.927814    8.191106    0.140595
     85          1           0        4.607856    4.162945    3.625428
     86          1           0        6.815470    2.461284    3.686506
     87          1           0        6.171038    5.425141    2.166004
     88          1           0        7.394007    4.073619    2.417803
     89          1           0        6.896653    4.943939    3.742187
     90          1           0        4.121647    1.178176    4.524929
     91          1           0        4.363623    2.763864    5.168643
     92          1           0        6.794102    0.984700    5.596593
     93          1           0        5.387979    0.272265    6.320718
     94          1           0        5.868134    1.725552    6.865465
     95          1           0        6.707144   -2.644599    3.779027
     96          1           0        7.953478   -2.938950    2.523448
     97          1           0        6.718801   -4.129166    2.750509
     98          1           0        2.685459   -4.322157   -0.383478
     99          1           0        3.963462   -4.847332   -4.480125
    100          1           0        5.575598   -5.572077   -4.033165
    101          1           0        5.470134   -4.072623   -4.867932
    102          1           0       -4.050735   -3.048648   -1.857682
    103          1           0       -3.980581   -1.410416   -1.068812
    104          1           0       -4.277484   -4.208647    0.175021
    105          1           0       -4.678862   -0.813953    2.296418
    106          1           0       -3.104625   -1.058077    1.304729
    107          1           0       -3.230998   -1.574894    2.930587
    108          1           0       -3.983744   -3.909569    3.371972
    109          1           0       -4.704424   -4.772724    2.134603
    110          1           0       -6.133387   -2.414501    3.141564
    111          1           0       -6.050992   -3.716618    4.296452
    112          1           0       -7.574354   -4.906717    3.051814
    113          1           0       -6.899890   -4.546033    1.476234
    114          1           0       -8.572227   -2.405998    3.144376
    115          1           0      -10.588481   -3.421776    1.681837
    116          1           0      -10.353447   -3.815649    3.395373
    117          1           0       -9.943134   -4.867835    2.046176
    118          1           0       -8.889123   -2.920024    0.204737
    119          1           0       -7.292713   -2.331123    0.715441
    120          1           0       -9.675026   -0.789154    1.641672
    121          1           0       -9.287563   -0.713576   -0.075375
    122          1           0       -6.990522   -0.452948    1.783115
    123          1           0       -8.158279    0.769543    2.241797
    124          1           0       -8.332194    1.493153   -0.213417
    125          1           0       -6.495159   -0.714648   -0.716215
    126          1           0       -5.566691    0.778241   -0.915238
    127          1           0       -7.047572    0.516704   -1.915631
    128          1           0       -5.824486    2.594682   -0.039941
    129          1           0       -6.194805    2.059119    1.593587
    130          1           0       -6.943644    4.299415    1.186240
    131          1           0       -8.352513    3.308116    1.473727
    132          1           0       -7.525212    3.483455   -1.342165
    133          1           0       -7.390829    5.040627   -0.655363
    134          1           0      -10.059221    4.290499    0.058263
    135          1           0      -11.027799    3.183592   -1.519458
    136          1           0       -9.383435    2.913004   -2.256793
    137          1           0      -10.446799    4.178272   -2.799310
    138          1           0      -10.077208    6.161372   -2.138277
    139          1           0       -8.860719    6.618526   -0.973390
    140          1           0      -10.522667    6.320447   -0.416693
 ---------------------------------------------------------------------

 SCF Done:  E(RCAM-B3LYP) =  -3007.15739482     A.U. after   17 cycles

 Excitation energies and oscillator strengths:

 Excited State   1:      Singlet-A      1.6890 eV  734.08 nm  f=0.3868  <S**2>=0.000
     245 -> 248       -0.17453
     246 -> 247        0.68651
     245 <- 248       -0.10510
 This state for optimization and/or second-order correction.
 Total Energy, E(TD-HF/TD-DFT) =  -3007.09532638
 Copying the excited state density for this state as the 1-particle RhoCI density.

 Excited State   2:      Singlet-A      2.2692 eV  546.38 nm  f=0.0727  <S**2>=0.000
     245 -> 247        0.61682
     246 -> 248        0.32989

 Excited State   3:      Singlet-A      3.3534 eV  369.73 nm  f=0.1623  <S**2>=0.000
     242 -> 247       -0.28191
     242 -> 249        0.15990
     242 -> 251       -0.12473
     243 -> 247       -0.37754
     245 -> 247       -0.18146
     246 -> 248        0.41203

 Excited State   4:      Singlet-A      3.3904 eV  365.69 nm  f=0.1329  <S**2>=0.000
     241 -> 247       -0.13430
     242 -> 247        0.44924
     242 -> 249       -0.26590
     242 -> 251        0.20697
     245 -> 247       -0.14822
     246 -> 248        0.31066

 Excited State   5:      Singlet-A      3.4275 eV  361.74 nm  f=0.0423  <S**2>=0.000
     241 -> 247        0.46025
     242 -> 247        0.11856
     243 -> 247       -0.45498
     246 -> 248       -0.14804

 The electronic state is 1-A.
 Alpha  occ. eigenvalues --  -46.91110 -19.25849 -19.25487 -19.20072 -19.19479
 Alpha  occ. eigenvalues --  -19.18718 -19.18298 -14.43097 -14.41948 -14.40422
 Alpha  occ. eigenvalues --  -14.39197 -10.39188 -10.38790 -10.36891 -10.34905
 Alpha  occ. eigenvalues --  -10.33024 -10.31928 -10.31866 -10.31637 -10.31524
 Alpha  occ. eigenvalues --  -10.31468 -10.30946 -10.30181 -10.29722 -10.29521
 Alpha  occ. eigenvalues --  -10.28834 -10.28827 -10.28639 -10.28596 -10.28396
 Alpha  occ. eigenvalues --  -10.28257 -10.28221 -10.28043 -10.27855 -10.27746
 Alpha  occ. eigenvalues --  -10.27655 -10.27437 -10.27434 -10.27329 -10.26978
 Alpha  occ. eigenvalues --  -10.26976 -10.26945 -10.26749 -10.26519 -10.26473
 Alpha  occ. eigenvalues --  -10.26173 -10.25941 -10.25714 -10.25558 -10.25510
 Alpha  occ. eigenvalues --  -10.25381 -10.25348 -10.25193 -10.25185 -10.25165
 Alpha  occ. eigenvalues --  -10.25035 -10.24962 -10.24917 -10.24684 -10.24635
 Alpha  occ. eigenvalues --  -10.24420 -10.24341 -10.24256 -10.24205 -10.24093
 Alpha  occ. eigenvalues --  -10.24085  -3.19357  -1.94242  -1.93815  -1.93648
 Alpha  occ. eigenvalues --   -1.17394  -1.17354  -1.11401  -1.08688  -1.06366
 Alpha  occ. eigenvalues --   -1.06060  -1.04869  -1.04068  -1.03815  -1.02913
 Alpha  occ. eigenvalues --   -0.92035  -0.90285  -0.90080  -0.89656  -0.89563
 Alpha  occ. eigenvalues --   -0.89008  -0.88266  -0.87512  -0.87110  -0.86855
 Alpha  occ. eigenvalues --   -0.86089  -0.85826  -0.84409  -0.83791  -0.83450
 Alpha  occ. eigenvalues --   -0.82614  -0.82335  -0.81620  -0.80825  -0.80614
 Alpha  occ. eigenvalues --   -0.79632  -0.78024  -0.77752  -0.77557  -0.76543
 Alpha  occ. eigenvalues --   -0.75756  -0.75484  -0.75347  -0.75107  -0.74152
 Alpha  occ. eigenvalues --   -0.73647  -0.73028  -0.72142  -0.71315  -0.70014
 Alpha  occ. eigenvalues --   -0.68760  -0.68356  -0.67520  -0.66572  -0.66123
 Alpha  occ. eigenvalues --   -0.65631  -0.65374  -0.65179  -0.64420  -0.63659
 Alpha  occ. eigenvalues --   -0.63429  -0.63359  -0.63192  -0.62800  -0.60420
 Alpha  occ. eigenvalues --   -0.59774  -0.59299  -0.58941  -0.58739  -0.57992
 Alpha  occ. eigenvalues --   -0.57624  -0.57311  -0.56796  -0.56436  -0.55865
 Alpha  occ. eigenvalues --   -0.55378  -0.55076  -0.54684  -0.53938  -0.53838
 Alpha  occ. eigenvalues --   -0.53747  -0.53582  -0.53345  -0.53074  -0.52880
 Alpha  occ. eigenvalues --   -0.52642  -0.52416  -0.52274  -0.51889  -0.51666
 Alpha  occ. eigenvalues --   -0.51642  -0.51285  -0.51217  -0.50883  -0.50690
 Alpha  occ. eigenvalues --   -0.50527  -0.50323  -0.50224  -0.50153  -0.49686
 Alpha  occ. eigenvalues --   -0.49384  -0.49335  -0.49237  -0.48937  -0.48906
 Alpha  occ. eigenvalues --   -0.48750  -0.48576  -0.48198  -0.48024  -0.47884
 Alpha  occ. eigenvalues --   -0.47805  -0.47576  -0.47163  -0.47003  -0.46670
 Alpha  occ. eigenvalues --   -0.46324  -0.46254  -0.46121  -0.46009  -0.45882
 Alpha  occ. eigenvalues --   -0.45865  -0.45682  -0.45458  -0.45170  -0.44804
 Alpha  occ. eigenvalues --   -0.44634  -0.44475  -0.44361  -0.44130  -0.43944
 Alpha  occ. eigenvalues --   -0.43821  -0.43697  -0.43478  -0.43244  -0.43172
 Alpha  occ. eigenvalues --   -0.42851  -0.42513  -0.42468  -0.42263  -0.42222
 Alpha  occ. eigenvalues --   -0.42015  -0.41890  -0.41876  -0.41324  -0.41074
 Alpha  occ. eigenvalues --   -0.40940  -0.40766  -0.40718  -0.40425  -0.40240
 Alpha  occ. eigenvalues --   -0.40070  -0.39461  -0.39290  -0.39087  -0.38808
 Alpha  occ. eigenvalues --   -0.38417  -0.38157  -0.38110  -0.37774  -0.37287
 Alpha  occ. eigenvalues --   -0.37110  -0.36956  -0.36886  -0.36735  -0.36587
 Alpha  occ. eigenvalues --   -0.35895  -0.35640  -0.35375  -0.34574  -0.34167
 Alpha  occ. eigenvalues --   -0.33977  -0.33251  -0.32976  -0.32081  -0.31380
 Alpha  occ. eigenvalues --   -0.30411  -0.30233  -0.29473  -0.29434  -0.24574
 Alpha  occ. eigenvalues --   -0.21099
 Alpha virt. eigenvalues --   -0.08840  -0.02279  -0.00391   0.00801   0.01973
 Alpha virt. eigenvalues --    0.04282   0.05167   0.05657   0.06114   0.06972
 Alpha virt. eigenvalues --    0.07436   0.08037   0.08510   0.08707   0.09132

 Mulliken charges:
               1
     1  Mg   0.833750
     2  C    0.038474
     3  C   -0.083643
     4  C   -0.048137
     5  C   -0.038410
     6  N   -0.264055
     7  C   -0.083831
     8  C   -0.007238
     9  C   -0.092800
    10  C    0.050108
    11  C    0.069801
    12  C    0.083076
    13  C    0.105838
    14  C    0.128164
    15  O   -0.266122
    16  O   -0.303208
    17  N   -0.388095
    18  C    0.135206
    19  C   -0.148252
    20  C   -0.054274
    21  C    0.184091
    22  C    0.125859
    23  C    0.024599
    24  O   -0.181021
    25  C    0.034980
    26  N   -0.303870
    27  C    0.002200
    28  C   -0.058313
    29  C   -0.003388
    30  C   -0.008032
    31  C    0.051006
    32  C    0.085088
    33  C   -0.016990
    34  N   -0.258428
    35  C    0.081866
    36  C   -0.188711
    37  C    0.037645
    38  C    0.048771
    39  C    0.124004
    40  C    0.024385
    41  O   -0.215150
    42  C   -0.020627
    43  C    0.182889
    44  O   -0.180806
    45  O   -0.324924
    46  C    0.183022
    47  C    0.350234
    48  C   -0.152902
    49  C   -0.201635
    50  C    0.111168
    51  C    0.043331
    52  C    0.015674
    53  C    0.071303
    54  C   -0.118280
    55  C    0.030774
    56  C    0.022802
    57  C    0.029563
    58  C    0.052457
    59  C   -0.155875
    60  C    0.048043
    61  C    0.050968
    62  C    0.009976
    63  C    0.051189
    64  C   -0.142937
    65  C    0.034939
    66  C    0.058501
    67  H   -0.020531
    68  H   -0.074529
    69  H   -0.030109
    70  H    0.005409
    71  H    0.011631
    72  H    0.019643
    73  H    0.025202
    74  H    0.018459
    75  H    0.025670
    76  H    0.004230
    77  H    0.033687
    78  H    0.030499
    79  H    0.031934
    80  H    0.006615
    81  H    0.045557
    82  H    0.032024
    83  H    0.057747
    84  H    0.035175
    85  H    0.009044
    86  H    0.003324
    87  H    0.016978
    88  H    0.015118
    89  H    0.015077
    90  H    0.020229
    91  H    0.008134
    92  H    0.018627
    93  H    0.009629
    94  H    0.008083
    95  H    0.025162
    96  H    0.026446
    97  H    0.032263
    98  H    0.054582
    99  H    0.027128
   100  H    0.048537
   101  H    0.023350
   102  H    0.032283
   103  H    0.016815
   104  H    0.002875
   105  H    0.034402
   106  H    0.013144
   107  H    0.006384
   108  H   -0.003292
   109  H   -0.005478
   110  H   -0.025997
   111  H    0.006557
   112  H   -0.008265
   113  H    0.011861
   114  H   -0.003469
   115  H   -0.008325
   116  H    0.013523
   117  H    0.000037
   118  H   -0.007372
   119  H    0.009481
   120  H   -0.010011
   121  H    0.001440
   122  H   -0.013485
   123  H   -0.003963
   124  H    0.003404
   125  H    0.008748
   126  H    0.016188
   127  H    0.018867
   128  H   -0.010071
   129  H   -0.014083
   130  H   -0.013331
   131  H   -0.005062
   132  H   -0.008966
   133  H   -0.016419
   134  H   -0.000378
   135  H    0.009167
   136  H    0.007602
   137  H   -0.001265
   138  H    0.006654
   139  H    0.002786
   140  H    0.011196
 Sum of Mulliken charges =  -0.00000

 Dipole moment (field-independent basis, Debye):
    X=              0.6946    Y=              7.2361    Z=              0.1164  Tot=              7.2703
 Quadrupole moment (field-independent basis, Debye-Ang):
   XX=           -378.8734   YY=           -477.5674   ZZ=           -368.3582
   XY=             34.4733   XZ=              1.4407   YZ=             20.5288

 Normal termination of Gaussian 16 at Wed May  4 06:28:20 2022.
