 Gaussian 16, Revision A.03,
 Gaussian 16:  ES64L-G16RevA.03 25-Dec-2016

 ---------------------------------
 #p PBE1PBE/Def2SVP td=(nstates=5)
 ---------------------------------

 -----------------------------------------------------
 step_1451_chromophore_2 TDDFT with PBE1PBE functional
 -----------------------------------------------------
 Symbolic Z-matrix:
 Charge =  0 Multiplicity = 1

                         Standard orientation:
 ---------------------------------------------------------------------
 Center     Atomic      Atomic             Coordinates (Angstroms)
 Number     Number       Type             X           Y           Z
 ---------------------------------------------------------------------
      1         12           0        4.283166    1.139721   -0.557557
      2          6           0        3.596503   -2.373636   -0.913286
      3          6           0        1.879860    1.846118   -2.925433
      4          6           0        3.999445    4.061875    0.751911
      5          6           0        6.198713    0.073968    2.425230
      6          7           0        2.908950   -0.139598   -1.777832
      7          6           0        2.812767   -1.527291   -1.754964
      8          6           0        1.822164   -2.009815   -2.871266
      9          6           0        1.368293   -0.619238   -3.458027
     10          6           0        2.108435    0.439040   -2.651219
     11          6           0        1.548185   -0.448332   -4.997942
     12          6           0        0.693815   -3.039084   -2.559800
     13          6           0        0.133884   -2.925544   -1.172810
     14          6           0       -1.363920   -3.327430   -1.047801
     15          8           0       -1.766228   -4.505740   -0.882203
     16          8           0       -2.171936   -2.277897   -1.160758
     17          7           0        3.263013    2.813490   -1.142981
     18          6           0        2.308288    2.950438   -2.112692
     19          6           0        1.908374    4.338743   -2.217120
     20          6           0        2.607459    5.077309   -1.188797
     21          6           0        3.301000    3.953489   -0.433200
     22          6           0        1.008025    4.817474   -3.321881
     23          6           0        2.570744    6.612772   -0.823945
     24          8           0        1.812313    7.335236   -1.434767
     25          6           0        3.518461    7.187856    0.260198
     26          7           0        4.920380    1.883672    1.389512
     27          6           0        4.699390    3.241008    1.605708
     28          6           0        5.283969    3.630146    2.956364
     29          6           0        5.747642    2.287050    3.551099
     30          6           0        5.602927    1.321977    2.417762
     31          6           0        6.510036    4.594366    2.784954
     32          6           0        4.900424    1.887124    4.806696
     33          6           0        5.774742    1.205973    5.912457
     34          7           0        5.083795   -0.783416    0.392533
     35          6           0        5.846595   -0.993083    1.518868
     36          6           0        6.018936   -2.430294    1.735882
     37          6           0        5.175856   -3.021940    0.778873
     38          6           0        4.585061   -1.955994    0.036793
     39          6           0        6.902410   -3.055350    2.788582
     40          6           0        4.607403   -4.278992    0.325213
     41          8           0        4.858658   -5.471952    0.701431
     42          6           0        3.604754   -3.930522   -0.817854
     43          6           0        3.995743   -4.704741   -2.018366
     44          8           0        3.673414   -5.845729   -2.194013
     45          8           0        4.794310   -3.961612   -2.839957
     46          6           0        4.970739   -4.667469   -4.103521
     47          6           0       -3.606219   -2.433352   -1.076023
     48          6           0       -4.005621   -3.153797    0.219050
     49          6           0       -4.196266   -2.732157    1.511823
     50          6           0       -3.826257   -1.438162    2.027947
     51          6           0       -4.707864   -3.773027    2.568547
     52          6           0       -6.094404   -3.500194    3.229414
     53          6           0       -7.272777   -4.091900    2.394599
     54          6           0       -8.502379   -3.092458    2.300532
     55          6           0       -9.890931   -3.841145    2.408139
     56          6           0       -8.357712   -2.327174    0.949016
     57          6           0       -8.869397   -0.894953    0.914621
     58          6           0       -7.785817    0.185836    1.399977
     59          6           0       -7.410686    1.069204    0.183829
     60          6           0       -6.567607    0.346784   -0.951935
     61          6           0       -6.635768    2.306562    0.627247
     62          6           0       -7.557018    3.506395    0.756049
     63          6           0       -7.977460    4.124699   -0.584473
     64          6           0       -9.473078    4.535650   -0.826775
     65          6           0      -10.118323    3.639335   -1.910766
     66          6           0       -9.746873    5.999442   -1.111970
     67          1           0        1.145741    2.068763   -3.702411
     68          1           0        4.067386    5.066124    1.175224
     69          1           0        6.628399   -0.120865    3.409207
     70          1           0        2.549963   -2.402147   -3.581836
     71          1           0        0.306418   -0.540453   -3.222803
     72          1           0        1.426437    0.590327   -5.306347
     73          1           0        0.763940   -1.107750   -5.368015
     74          1           0        2.569474   -0.728427   -5.254366
     75          1           0        0.991293   -4.018625   -2.935949
     76          1           0       -0.089763   -2.795139   -3.276527
     77          1           0        0.184976   -1.929686   -0.732743
     78          1           0        0.646677   -3.654612   -0.546655
     79          1           0        0.036109    5.048062   -2.885537
     80          1           0        0.740145    4.093450   -4.090610
     81          1           0        1.485993    5.711989   -3.721500
     82          1           0        4.445717    6.617977    0.194227
     83          1           0        3.047051    7.054596    1.232622
     84          1           0        3.927814    8.191106    0.140595
     85          1           0        4.607856    4.162945    3.625428
     86          1           0        6.815470    2.461284    3.686506
     87          1           0        6.171038    5.425141    2.166004
     88          1           0        7.394007    4.073619    2.417803
     89          1           0        6.896653    4.943939    3.742187
     90          1           0        4.121647    1.178176    4.524929
     91          1           0        4.363623    2.763864    5.168643
     92          1           0        6.794102    0.984700    5.596593
     93          1           0        5.387979    0.272265    6.320718
     94          1           0        5.868134    1.725552    6.865465
     95          1           0        6.707144   -2.644599    3.779027
     96          1           0        7.953478   -2.938950    2.523448
     97          1           0        6.718801   -4.129166    2.750509
     98          1           0        2.685459   -4.322157   -0.383478
     99          1           0        3.963462   -4.847332   -4.480125
    100          1           0        5.575598   -5.572077   -4.033165
    101          1           0        5.470134   -4.072623   -4.867932
    102          1           0       -4.050735   -3.048648   -1.857682
    103          1           0       -3.980581   -1.410416   -1.068812
    104          1           0       -4.277484   -4.208647    0.175021
    105          1           0       -4.678862   -0.813953    2.296418
    106          1           0       -3.104625   -1.058077    1.304729
    107          1           0       -3.230998   -1.574894    2.930587
    108          1           0       -3.983744   -3.909569    3.371972
    109          1           0       -4.704424   -4.772724    2.134603
    110          1           0       -6.133387   -2.414501    3.141564
    111          1           0       -6.050992   -3.716618    4.296452
    112          1           0       -7.574354   -4.906717    3.051814
    113          1           0       -6.899890   -4.546033    1.476234
    114          1           0       -8.572227   -2.405998    3.144376
    115          1           0      -10.588481   -3.421776    1.681837
    116          1           0      -10.353447   -3.815649    3.395373
    117          1           0       -9.943134   -4.867835    2.046176
    118          1           0       -8.889123   -2.920024    0.204737
    119          1           0       -7.292713   -2.331123    0.715441
    120          1           0       -9.675026   -0.789154    1.641672
    121          1           0       -9.287563   -0.713576   -0.075375
    122          1           0       -6.990522   -0.452948    1.783115
    123          1           0       -8.158279    0.769543    2.241797
    124          1           0       -8.332194    1.493153   -0.213417
    125          1           0       -6.495159   -0.714648   -0.716215
    126          1           0       -5.566691    0.778241   -0.915238
    127          1           0       -7.047572    0.516704   -1.915631
    128          1           0       -5.824486    2.594682   -0.039941
    129          1           0       -6.194805    2.059119    1.593587
    130          1           0       -6.943644    4.299415    1.186240
    131          1           0       -8.352513    3.308116    1.473727
    132          1           0       -7.525212    3.483455   -1.342165
    133          1           0       -7.390829    5.040627   -0.655363
    134          1           0      -10.059221    4.290499    0.058263
    135          1           0      -11.027799    3.183592   -1.519458
    136          1           0       -9.383435    2.913004   -2.256793
    137          1           0      -10.446799    4.178272   -2.799310
    138          1           0      -10.077208    6.161372   -2.138277
    139          1           0       -8.860719    6.618526   -0.973390
    140          1           0      -10.522667    6.320447   -0.416693
 ---------------------------------------------------------------------

 SCF Done:  E(RPBE1PBE) =  -3005.34809087     A.U. after   15 cycles

 Excitation energies and oscillator strengths:

 Excited State   1:      Singlet-A      1.8327 eV  676.52 nm  f=0.3730  <S**2>=0.000
     245 -> 248       -0.17012
     246 -> 247        0.69390
     246 <- 247       -0.11144
 This state for optimization and/or second-order correction.
 Total Energy, E(TD-HF/TD-DFT) =  -3005.28074142
 Copying the excited state density for this state as the 1-particle RhoCI density.

 Excited State   2:      Singlet-A      2.2664 eV  547.06 nm  f=0.0768  <S**2>=0.000
     245 -> 247        0.63355
     246 -> 248        0.29631

 Excited State   3:      Singlet-A      2.8748 eV  431.28 nm  f=0.0001  <S**2>=0.000
     242 -> 247        0.12748
     243 -> 247        0.65371
     243 -> 249       -0.18223
     243 -> 250        0.10328

 Excited State   4:      Singlet-A      3.0453 eV  407.14 nm  f=0.0022  <S**2>=0.000
     241 -> 247        0.21136
     242 -> 247        0.63476
     243 -> 247       -0.12595
     246 -> 248        0.15519

 Excited State   5:      Singlet-A      3.0868 eV  401.66 nm  f=0.0043  <S**2>=0.000
     241 -> 247        0.62951
     242 -> 247       -0.15247
     246 -> 248       -0.21756

 The electronic state is 1-A.
 Alpha  occ. eigenvalues --  -46.94466 -19.26509 -19.26138 -19.20103 -19.19743
 Alpha  occ. eigenvalues --  -19.19064 -19.18746 -14.42537 -14.41488 -14.39922
 Alpha  occ. eigenvalues --  -14.38933 -10.36270 -10.35820 -10.33916 -10.32234
 Alpha  occ. eigenvalues --  -10.30368 -10.29862 -10.29427 -10.29077 -10.28885
 Alpha  occ. eigenvalues --  -10.28878 -10.28384 -10.28048 -10.27737 -10.26917
 Alpha  occ. eigenvalues --  -10.26673 -10.26499 -10.26495 -10.26401 -10.26102
 Alpha  occ. eigenvalues --  -10.26017 -10.25819 -10.25795 -10.25707 -10.25461
 Alpha  occ. eigenvalues --  -10.25327 -10.25140 -10.25132 -10.24622 -10.24556
 Alpha  occ. eigenvalues --  -10.24504 -10.24425 -10.24424 -10.24065 -10.23886
 Alpha  occ. eigenvalues --  -10.23778 -10.23440 -10.23305 -10.23199 -10.23181
 Alpha  occ. eigenvalues --  -10.22997 -10.22979 -10.22904 -10.22753 -10.22747
 Alpha  occ. eigenvalues --  -10.22532 -10.22504 -10.22323 -10.22230 -10.22165
 Alpha  occ. eigenvalues --  -10.21952 -10.21849 -10.21660 -10.21611 -10.21560
 Alpha  occ. eigenvalues --  -10.21466  -3.16301  -1.89121  -1.88676  -1.88511
 Alpha  occ. eigenvalues --   -1.12234  -1.12150  -1.06001  -1.03555  -1.01228
 Alpha  occ. eigenvalues --   -1.00915  -0.99405  -0.98658  -0.98536  -0.97636
 Alpha  occ. eigenvalues --   -0.86449  -0.84438  -0.84164  -0.83840  -0.83785
 Alpha  occ. eigenvalues --   -0.83317  -0.82347  -0.81778  -0.81211  -0.81068
 Alpha  occ. eigenvalues --   -0.80462  -0.80088  -0.78617  -0.77986  -0.77775
 Alpha  occ. eigenvalues --   -0.76810  -0.76414  -0.75787  -0.75166  -0.74965
 Alpha  occ. eigenvalues --   -0.73757  -0.72354  -0.72036  -0.71757  -0.70876
 Alpha  occ. eigenvalues --   -0.70064  -0.69709  -0.69417  -0.69172  -0.68331
 Alpha  occ. eigenvalues --   -0.67928  -0.67481  -0.66514  -0.65665  -0.64371
 Alpha  occ. eigenvalues --   -0.63277  -0.62592  -0.61890  -0.60853  -0.60582
 Alpha  occ. eigenvalues --   -0.60036  -0.59734  -0.59642  -0.58989  -0.58045
 Alpha  occ. eigenvalues --   -0.57944  -0.57594  -0.57310  -0.56919  -0.54917
 Alpha  occ. eigenvalues --   -0.54372  -0.53826  -0.53448  -0.53129  -0.52708
 Alpha  occ. eigenvalues --   -0.52050  -0.51690  -0.51266  -0.50888  -0.50403
 Alpha  occ. eigenvalues --   -0.49911  -0.49614  -0.49270  -0.48535  -0.48389
 Alpha  occ. eigenvalues --   -0.48256  -0.48016  -0.47805  -0.47680  -0.47359
 Alpha  occ. eigenvalues --   -0.46995  -0.46877  -0.46817  -0.46426  -0.46266
 Alpha  occ. eigenvalues --   -0.46224  -0.45784  -0.45712  -0.45469  -0.45326
 Alpha  occ. eigenvalues --   -0.44999  -0.44852  -0.44784  -0.44648  -0.44301
 Alpha  occ. eigenvalues --   -0.43975  -0.43861  -0.43845  -0.43537  -0.43523
 Alpha  occ. eigenvalues --   -0.43436  -0.43239  -0.42813  -0.42651  -0.42550
 Alpha  occ. eigenvalues --   -0.42416  -0.42135  -0.41835  -0.41678  -0.41432
 Alpha  occ. eigenvalues --   -0.41103  -0.40873  -0.40717  -0.40689  -0.40566
 Alpha  occ. eigenvalues --   -0.40463  -0.40440  -0.40168  -0.39857  -0.39605
 Alpha  occ. eigenvalues --   -0.39411  -0.39275  -0.38994  -0.38915  -0.38571
 Alpha  occ. eigenvalues --   -0.38491  -0.38480  -0.38233  -0.38150  -0.37988
 Alpha  occ. eigenvalues --   -0.37613  -0.37360  -0.37217  -0.37071  -0.36990
 Alpha  occ. eigenvalues --   -0.36868  -0.36753  -0.36602  -0.36225  -0.35911
 Alpha  occ. eigenvalues --   -0.35657  -0.35639  -0.35497  -0.35172  -0.35161
 Alpha  occ. eigenvalues --   -0.34797  -0.34385  -0.34260  -0.33939  -0.33590
 Alpha  occ. eigenvalues --   -0.33243  -0.33143  -0.32866  -0.32518  -0.32234
 Alpha  occ. eigenvalues --   -0.31953  -0.31855  -0.31788  -0.31737  -0.31472
 Alpha  occ. eigenvalues --   -0.30833  -0.30596  -0.30249  -0.29633  -0.29323
 Alpha  occ. eigenvalues --   -0.28880  -0.28541  -0.28046  -0.27056  -0.26807
 Alpha  occ. eigenvalues --   -0.25683  -0.25325  -0.25206  -0.24782  -0.21449
 Alpha  occ. eigenvalues --   -0.18789
 Alpha virt. eigenvalues --   -0.11337  -0.05763  -0.04504  -0.02418  -0.02016
 Alpha virt. eigenvalues --   -0.00089   0.00663   0.01344   0.01508   0.02937
 Alpha virt. eigenvalues --    0.03770   0.04337   0.05067   0.05296   0.05501

 Mulliken charges:
               1
     1  Mg   0.967165
     2  C    0.027476
     3  C   -0.073150
     4  C   -0.064110
     5  C   -0.031377
     6  N   -0.374401
     7  C   -0.005975
     8  C   -0.068931
     9  C   -0.173885
    10  C    0.096596
    11  C    0.007867
    12  C    0.024354
    13  C    0.020890
    14  C    0.199996
    15  O   -0.296663
    16  O   -0.335471
    17  N   -0.499445
    18  C    0.155446
    19  C   -0.184516
    20  C   -0.083206
    21  C    0.203716
    22  C    0.069245
    23  C    0.078534
    24  O   -0.217084
    25  C   -0.045943
    26  N   -0.402506
    27  C    0.047423
    28  C   -0.135573
    29  C   -0.091788
    30  C    0.039927
    31  C   -0.007916
    32  C    0.026689
    33  C   -0.086351
    34  N   -0.379640
    35  C    0.107423
    36  C   -0.201174
    37  C   -0.010659
    38  C    0.099215
    39  C    0.068441
    40  C    0.113657
    41  O   -0.256445
    42  C   -0.124138
    43  C    0.271496
    44  O   -0.216895
    45  O   -0.355791
    46  C    0.124569
    47  C    0.301508
    48  C   -0.171858
    49  C   -0.238433
    50  C    0.043937
    51  C   -0.013431
    52  C   -0.051290
    53  C    0.011183
    54  C   -0.200486
    55  C   -0.026302
    56  C   -0.039037
    57  C   -0.028357
    58  C   -0.011986
    59  C   -0.240877
    60  C   -0.017357
    61  C   -0.006924
    62  C   -0.057358
    63  C   -0.004603
    64  C   -0.232883
    65  C   -0.024191
    66  C   -0.001177
    67  H    0.010333
    68  H   -0.035319
    69  H    0.004944
    70  H    0.048730
    71  H    0.050240
    72  H    0.047600
    73  H    0.053242
    74  H    0.045715
    75  H    0.056778
    76  H    0.038785
    77  H    0.066332
    78  H    0.066866
    79  H    0.059229
    80  H    0.032023
    81  H    0.071875
    82  H    0.059277
    83  H    0.083827
    84  H    0.061895
    85  H    0.044284
    86  H    0.041134
    87  H    0.046728
    88  H    0.042301
    89  H    0.043597
    90  H    0.052653
    91  H    0.040660
    92  H    0.043520
    93  H    0.037111
    94  H    0.036575
    95  H    0.052190
    96  H    0.055579
    97  H    0.061231
    98  H    0.094241
    99  H    0.049196
   100  H    0.070853
   101  H    0.046185
   102  H    0.059067
   103  H    0.047016
   104  H    0.031843
   105  H    0.062907
   106  H    0.042671
   107  H    0.035171
   108  H    0.029894
   109  H    0.026125
   110  H    0.013064
   111  H    0.037520
   112  H    0.026987
   113  H    0.041959
   114  H    0.032877
   115  H    0.019306
   116  H    0.040741
   117  H    0.027170
   118  H    0.025606
   119  H    0.046281
   120  H    0.023752
   121  H    0.032646
   122  H    0.029511
   123  H    0.027711
   124  H    0.047138
   125  H    0.041022
   126  H    0.042368
   127  H    0.045505
   128  H    0.022167
   129  H    0.020067
   130  H    0.021737
   131  H    0.026512
   132  H    0.024285
   133  H    0.017000
   134  H    0.037596
   135  H    0.036201
   136  H    0.033885
   137  H    0.025806
   138  H    0.033114
   139  H    0.029802
   140  H    0.038395
 Sum of Mulliken charges =  -0.00000

 Dipole moment (field-independent basis, Debye):
    X=              0.9026    Y=              6.8418    Z=              0.3833  Tot=              6.9118
 Quadrupole moment (field-independent basis, Debye-Ang):
   XX=           -373.6159   YY=           -475.6295   ZZ=           -364.0104
   XY=             33.5464   XZ=              3.2190   YZ=             20.9953

 Normal termination of Gaussian 16 at Wed May  4 06:49:22 2022.
