 Gaussian 16, Revision A.03,
 Gaussian 16:  ES64L-G16RevA.03 25-Dec-2016

 --------------------------------
 #p wB97XD/Def2SVP td=(nstates=5)
 --------------------------------

 ----------------------------------------------------
 step_1451_chromophore_2 TDDFT with wB97XD functional
 ----------------------------------------------------
 Symbolic Z-matrix:
 Charge =  0 Multiplicity = 1

                         Standard orientation:
 ---------------------------------------------------------------------
 Center     Atomic      Atomic             Coordinates (Angstroms)
 Number     Number       Type             X           Y           Z
 ---------------------------------------------------------------------
      1         12           0        4.283166    1.139721   -0.557557
      2          6           0        3.596503   -2.373636   -0.913286
      3          6           0        1.879860    1.846118   -2.925433
      4          6           0        3.999445    4.061875    0.751911
      5          6           0        6.198713    0.073968    2.425230
      6          7           0        2.908950   -0.139598   -1.777832
      7          6           0        2.812767   -1.527291   -1.754964
      8          6           0        1.822164   -2.009815   -2.871266
      9          6           0        1.368293   -0.619238   -3.458027
     10          6           0        2.108435    0.439040   -2.651219
     11          6           0        1.548185   -0.448332   -4.997942
     12          6           0        0.693815   -3.039084   -2.559800
     13          6           0        0.133884   -2.925544   -1.172810
     14          6           0       -1.363920   -3.327430   -1.047801
     15          8           0       -1.766228   -4.505740   -0.882203
     16          8           0       -2.171936   -2.277897   -1.160758
     17          7           0        3.263013    2.813490   -1.142981
     18          6           0        2.308288    2.950438   -2.112692
     19          6           0        1.908374    4.338743   -2.217120
     20          6           0        2.607459    5.077309   -1.188797
     21          6           0        3.301000    3.953489   -0.433200
     22          6           0        1.008025    4.817474   -3.321881
     23          6           0        2.570744    6.612772   -0.823945
     24          8           0        1.812313    7.335236   -1.434767
     25          6           0        3.518461    7.187856    0.260198
     26          7           0        4.920380    1.883672    1.389512
     27          6           0        4.699390    3.241008    1.605708
     28          6           0        5.283969    3.630146    2.956364
     29          6           0        5.747642    2.287050    3.551099
     30          6           0        5.602927    1.321977    2.417762
     31          6           0        6.510036    4.594366    2.784954
     32          6           0        4.900424    1.887124    4.806696
     33          6           0        5.774742    1.205973    5.912457
     34          7           0        5.083795   -0.783416    0.392533
     35          6           0        5.846595   -0.993083    1.518868
     36          6           0        6.018936   -2.430294    1.735882
     37          6           0        5.175856   -3.021940    0.778873
     38          6           0        4.585061   -1.955994    0.036793
     39          6           0        6.902410   -3.055350    2.788582
     40          6           0        4.607403   -4.278992    0.325213
     41          8           0        4.858658   -5.471952    0.701431
     42          6           0        3.604754   -3.930522   -0.817854
     43          6           0        3.995743   -4.704741   -2.018366
     44          8           0        3.673414   -5.845729   -2.194013
     45          8           0        4.794310   -3.961612   -2.839957
     46          6           0        4.970739   -4.667469   -4.103521
     47          6           0       -3.606219   -2.433352   -1.076023
     48          6           0       -4.005621   -3.153797    0.219050
     49          6           0       -4.196266   -2.732157    1.511823
     50          6           0       -3.826257   -1.438162    2.027947
     51          6           0       -4.707864   -3.773027    2.568547
     52          6           0       -6.094404   -3.500194    3.229414
     53          6           0       -7.272777   -4.091900    2.394599
     54          6           0       -8.502379   -3.092458    2.300532
     55          6           0       -9.890931   -3.841145    2.408139
     56          6           0       -8.357712   -2.327174    0.949016
     57          6           0       -8.869397   -0.894953    0.914621
     58          6           0       -7.785817    0.185836    1.399977
     59          6           0       -7.410686    1.069204    0.183829
     60          6           0       -6.567607    0.346784   -0.951935
     61          6           0       -6.635768    2.306562    0.627247
     62          6           0       -7.557018    3.506395    0.756049
     63          6           0       -7.977460    4.124699   -0.584473
     64          6           0       -9.473078    4.535650   -0.826775
     65          6           0      -10.118323    3.639335   -1.910766
     66          6           0       -9.746873    5.999442   -1.111970
     67          1           0        1.145741    2.068763   -3.702411
     68          1           0        4.067386    5.066124    1.175224
     69          1           0        6.628399   -0.120865    3.409207
     70          1           0        2.549963   -2.402147   -3.581836
     71          1           0        0.306418   -0.540453   -3.222803
     72          1           0        1.426437    0.590327   -5.306347
     73          1           0        0.763940   -1.107750   -5.368015
     74          1           0        2.569474   -0.728427   -5.254366
     75          1           0        0.991293   -4.018625   -2.935949
     76          1           0       -0.089763   -2.795139   -3.276527
     77          1           0        0.184976   -1.929686   -0.732743
     78          1           0        0.646677   -3.654612   -0.546655
     79          1           0        0.036109    5.048062   -2.885537
     80          1           0        0.740145    4.093450   -4.090610
     81          1           0        1.485993    5.711989   -3.721500
     82          1           0        4.445717    6.617977    0.194227
     83          1           0        3.047051    7.054596    1.232622
     84          1           0        3.927814    8.191106    0.140595
     85          1           0        4.607856    4.162945    3.625428
     86          1           0        6.815470    2.461284    3.686506
     87          1           0        6.171038    5.425141    2.166004
     88          1           0        7.394007    4.073619    2.417803
     89          1           0        6.896653    4.943939    3.742187
     90          1           0        4.121647    1.178176    4.524929
     91          1           0        4.363623    2.763864    5.168643
     92          1           0        6.794102    0.984700    5.596593
     93          1           0        5.387979    0.272265    6.320718
     94          1           0        5.868134    1.725552    6.865465
     95          1           0        6.707144   -2.644599    3.779027
     96          1           0        7.953478   -2.938950    2.523448
     97          1           0        6.718801   -4.129166    2.750509
     98          1           0        2.685459   -4.322157   -0.383478
     99          1           0        3.963462   -4.847332   -4.480125
    100          1           0        5.575598   -5.572077   -4.033165
    101          1           0        5.470134   -4.072623   -4.867932
    102          1           0       -4.050735   -3.048648   -1.857682
    103          1           0       -3.980581   -1.410416   -1.068812
    104          1           0       -4.277484   -4.208647    0.175021
    105          1           0       -4.678862   -0.813953    2.296418
    106          1           0       -3.104625   -1.058077    1.304729
    107          1           0       -3.230998   -1.574894    2.930587
    108          1           0       -3.983744   -3.909569    3.371972
    109          1           0       -4.704424   -4.772724    2.134603
    110          1           0       -6.133387   -2.414501    3.141564
    111          1           0       -6.050992   -3.716618    4.296452
    112          1           0       -7.574354   -4.906717    3.051814
    113          1           0       -6.899890   -4.546033    1.476234
    114          1           0       -8.572227   -2.405998    3.144376
    115          1           0      -10.588481   -3.421776    1.681837
    116          1           0      -10.353447   -3.815649    3.395373
    117          1           0       -9.943134   -4.867835    2.046176
    118          1           0       -8.889123   -2.920024    0.204737
    119          1           0       -7.292713   -2.331123    0.715441
    120          1           0       -9.675026   -0.789154    1.641672
    121          1           0       -9.287563   -0.713576   -0.075375
    122          1           0       -6.990522   -0.452948    1.783115
    123          1           0       -8.158279    0.769543    2.241797
    124          1           0       -8.332194    1.493153   -0.213417
    125          1           0       -6.495159   -0.714648   -0.716215
    126          1           0       -5.566691    0.778241   -0.915238
    127          1           0       -7.047572    0.516704   -1.915631
    128          1           0       -5.824486    2.594682   -0.039941
    129          1           0       -6.194805    2.059119    1.593587
    130          1           0       -6.943644    4.299415    1.186240
    131          1           0       -8.352513    3.308116    1.473727
    132          1           0       -7.525212    3.483455   -1.342165
    133          1           0       -7.390829    5.040627   -0.655363
    134          1           0      -10.059221    4.290499    0.058263
    135          1           0      -11.027799    3.183592   -1.519458
    136          1           0       -9.383435    2.913004   -2.256793
    137          1           0      -10.446799    4.178272   -2.799310
    138          1           0      -10.077208    6.161372   -2.138277
    139          1           0       -8.860719    6.618526   -0.973390
    140          1           0      -10.522667    6.320447   -0.416693
 ---------------------------------------------------------------------

 SCF Done:  E(RwB97XD) =  -3007.86401152     A.U. after   20 cycles

 Excitation energies and oscillator strengths:

 Excited State   1:      Singlet-A      1.6360 eV  757.84 nm  f=0.3855  <S**2>=0.000
     245 -> 248       -0.17947
     246 -> 247        0.68429
     245 <- 248       -0.11393
 This state for optimization and/or second-order correction.
 Total Energy, E(TD-HF/TD-DFT) =  -3007.80388910
 Copying the excited state density for this state as the 1-particle RhoCI density.

 Excited State   2:      Singlet-A      2.2167 eV  559.32 nm  f=0.0709  <S**2>=0.000
     245 -> 247        0.61533
     246 -> 248        0.33136

 Excited State   3:      Singlet-A      3.3794 eV  366.88 nm  f=0.2170  <S**2>=0.000
     241 -> 247       -0.15381
     242 -> 247       -0.21518
     242 -> 249        0.14451
     243 -> 247       -0.36196
     245 -> 247       -0.20181
     246 -> 248        0.45106

 Excited State   4:      Singlet-A      3.4262 eV  361.88 nm  f=0.1278  <S**2>=0.000
     241 -> 247       -0.23748
     242 -> 247        0.42393
     242 -> 249       -0.29225
     242 -> 250        0.14315
     242 -> 251       -0.17341
     245 -> 247       -0.13645
     246 -> 248        0.27940

 Excited State   5:      Singlet-A      3.4549 eV  358.86 nm  f=0.0012  <S**2>=0.000
     241 -> 247        0.46104
     242 -> 247        0.20638
     242 -> 249       -0.12615
     243 -> 247       -0.42439

 The electronic state is 1-A.
 Alpha  occ. eigenvalues --  -46.97431 -19.31057 -19.30674 -19.25149 -19.24393
 Alpha  occ. eigenvalues --  -19.23669 -19.23337 -14.47681 -14.46534 -14.45040
 Alpha  occ. eigenvalues --  -14.43738 -10.43002 -10.42605 -10.40941 -10.38917
 Alpha  occ. eigenvalues --  -10.36877 -10.35949 -10.35921 -10.35600 -10.35575
 Alpha  occ. eigenvalues --  -10.35359 -10.35072 -10.34117 -10.33754 -10.33675
 Alpha  occ. eigenvalues --  -10.33051 -10.32968 -10.32694 -10.32524 -10.32434
 Alpha  occ. eigenvalues --  -10.32399 -10.32272 -10.32082 -10.31804 -10.31803
 Alpha  occ. eigenvalues --  -10.31555 -10.31461 -10.31358 -10.31253 -10.30948
 Alpha  occ. eigenvalues --  -10.30873 -10.30844 -10.30748 -10.30530 -10.30480
 Alpha  occ. eigenvalues --  -10.30171 -10.29762 -10.29542 -10.29495 -10.29489
 Alpha  occ. eigenvalues --  -10.29315 -10.29287 -10.29101 -10.29088 -10.29031
 Alpha  occ. eigenvalues --  -10.28980 -10.28857 -10.28793 -10.28610 -10.28547
 Alpha  occ. eigenvalues --  -10.28337 -10.28234 -10.28088 -10.28004 -10.27989
 Alpha  occ. eigenvalues --  -10.27899  -3.23178  -1.96738  -1.96292  -1.96126
 Alpha  occ. eigenvalues --   -1.19585  -1.19495  -1.13688  -1.10865  -1.08549
 Alpha  occ. eigenvalues --   -1.08228  -1.06912  -1.06104  -1.05807  -1.04922
 Alpha  occ. eigenvalues --   -0.93973  -0.92080  -0.91842  -0.91499  -0.91439
 Alpha  occ. eigenvalues --   -0.90896  -0.90025  -0.89446  -0.88900  -0.88817
 Alpha  occ. eigenvalues --   -0.88022  -0.87711  -0.86271  -0.85646  -0.85314
 Alpha  occ. eigenvalues --   -0.84473  -0.84272  -0.83461  -0.82742  -0.82581
 Alpha  occ. eigenvalues --   -0.81435  -0.79953  -0.79681  -0.79494  -0.78447
 Alpha  occ. eigenvalues --   -0.77675  -0.77355  -0.77131  -0.76897  -0.75987
 Alpha  occ. eigenvalues --   -0.75530  -0.74977  -0.74101  -0.73253  -0.71891
 Alpha  occ. eigenvalues --   -0.70759  -0.70223  -0.69567  -0.68449  -0.68051
 Alpha  occ. eigenvalues --   -0.67538  -0.67283  -0.67187  -0.66413  -0.65560
 Alpha  occ. eigenvalues --   -0.65324  -0.65252  -0.64993  -0.64598  -0.62425
 Alpha  occ. eigenvalues --   -0.61786  -0.61288  -0.60865  -0.60661  -0.59996
 Alpha  occ. eigenvalues --   -0.59505  -0.59188  -0.58771  -0.58312  -0.57787
 Alpha  occ. eigenvalues --   -0.57299  -0.57017  -0.56615  -0.55808  -0.55790
 Alpha  occ. eigenvalues --   -0.55645  -0.55476  -0.55242  -0.55011  -0.54811
 Alpha  occ. eigenvalues --   -0.54612  -0.54264  -0.54205  -0.53763  -0.53629
 Alpha  occ. eigenvalues --   -0.53566  -0.53219  -0.53129  -0.52859  -0.52584
 Alpha  occ. eigenvalues --   -0.52380  -0.52300  -0.52095  -0.51998  -0.51583
 Alpha  occ. eigenvalues --   -0.51263  -0.51182  -0.51153  -0.50825  -0.50801
 Alpha  occ. eigenvalues --   -0.50709  -0.50470  -0.50121  -0.49940  -0.49777
 Alpha  occ. eigenvalues --   -0.49766  -0.49425  -0.49096  -0.48933  -0.48579
 Alpha  occ. eigenvalues --   -0.48193  -0.48143  -0.47981  -0.47959  -0.47752
 Alpha  occ. eigenvalues --   -0.47713  -0.47585  -0.47392  -0.47131  -0.46720
 Alpha  occ. eigenvalues --   -0.46550  -0.46412  -0.46214  -0.46046  -0.45873
 Alpha  occ. eigenvalues --   -0.45781  -0.45580  -0.45388  -0.45139  -0.45090
 Alpha  occ. eigenvalues --   -0.44762  -0.44441  -0.44341  -0.44171  -0.44091
 Alpha  occ. eigenvalues --   -0.43951  -0.43789  -0.43740  -0.43200  -0.42974
 Alpha  occ. eigenvalues --   -0.42769  -0.42733  -0.42599  -0.42271  -0.42126
 Alpha  occ. eigenvalues --   -0.41902  -0.41343  -0.41184  -0.40958  -0.40650
 Alpha  occ. eigenvalues --   -0.40250  -0.40073  -0.39932  -0.39599  -0.39298
 Alpha  occ. eigenvalues --   -0.39020  -0.38938  -0.38780  -0.38659  -0.38468
 Alpha  occ. eigenvalues --   -0.37804  -0.37511  -0.37219  -0.36543  -0.36136
 Alpha  occ. eigenvalues --   -0.35803  -0.35215  -0.35128  -0.34131  -0.33597
 Alpha  occ. eigenvalues --   -0.32621  -0.32162  -0.31587  -0.31422  -0.26508
 Alpha  occ. eigenvalues --   -0.22897
 Alpha virt. eigenvalues --   -0.07193  -0.00357   0.01744   0.04045   0.04073
 Alpha virt. eigenvalues --    0.06590   0.07472   0.08098   0.08330   0.09607
 Alpha virt. eigenvalues --    0.10114   0.10973   0.11793   0.11913   0.12121

 Mulliken charges:
               1
     1  Mg   0.962418
     2  C    0.027361
     3  C   -0.090658
     4  C   -0.066826
     5  C   -0.043570
     6  N   -0.335573
     7  C   -0.042656
     8  C   -0.044118
     9  C   -0.147059
    10  C    0.079429
    11  C    0.021814
    12  C    0.035782
    13  C    0.043676
    14  C    0.187562
    15  O   -0.294388
    16  O   -0.334315
    17  N   -0.470995
    18  C    0.151763
    19  C   -0.170576
    20  C   -0.083915
    21  C    0.202577
    22  C    0.079126
    23  C    0.071240
    24  O   -0.211266
    25  C   -0.025780
    26  N   -0.372231
    27  C    0.034640
    28  C   -0.109826
    29  C   -0.057387
    30  C    0.021473
    31  C    0.004054
    32  C    0.037712
    33  C   -0.071282
    34  N   -0.340590
    35  C    0.094231
    36  C   -0.199496
    37  C   -0.008250
    38  C    0.080029
    39  C    0.079448
    40  C    0.095203
    41  O   -0.248203
    42  C   -0.085574
    43  C    0.249113
    44  O   -0.212216
    45  O   -0.354558
    46  C    0.141114
    47  C    0.318500
    48  C   -0.174476
    49  C   -0.226406
    50  C    0.057886
    51  C    0.001451
    52  C   -0.026613
    53  C    0.026702
    54  C   -0.175807
    55  C   -0.016107
    56  C   -0.005296
    57  C   -0.017459
    58  C    0.020551
    59  C   -0.208440
    60  C    0.005476
    61  C    0.009872
    62  C   -0.037843
    63  C    0.012057
    64  C   -0.207264
    65  C   -0.009979
    66  C    0.011848
    67  H    0.001275
    68  H   -0.055452
    69  H   -0.005743
    70  H    0.032035
    71  H    0.038847
    72  H    0.041292
    73  H    0.047657
    74  H    0.039856
    75  H    0.052374
    76  H    0.028837
    77  H    0.058936
    78  H    0.056950
    79  H    0.056166
    80  H    0.029313
    81  H    0.068636
    82  H    0.049837
    83  H    0.080056
    84  H    0.061473
    85  H    0.035729
    86  H    0.027705
    87  H    0.038746
    88  H    0.036188
    89  H    0.038518
    90  H    0.045554
    91  H    0.032341
    92  H    0.036760
    93  H    0.031628
    94  H    0.030919
    95  H    0.046084
    96  H    0.049542
    97  H    0.056690
    98  H    0.084495
    99  H    0.043266
   100  H    0.067016
   101  H    0.042720
   102  H    0.056228
   103  H    0.038845
   104  H    0.026890
   105  H    0.055843
   106  H    0.036318
   107  H    0.030095
   108  H    0.022849
   109  H    0.017661
   110  H   -0.006942
   111  H    0.032993
   112  H    0.018435
   113  H    0.033453
   114  H    0.021991
   115  H    0.011924
   116  H    0.036279
   117  H    0.021428
   118  H    0.017604
   119  H    0.018885
   120  H    0.014680
   121  H    0.025471
   122  H   -0.000811
   123  H    0.020679
   124  H    0.024885
   125  H    0.026179
   126  H    0.034159
   127  H    0.040894
   128  H    0.012362
   129  H    0.011425
   130  H    0.013965
   131  H    0.017340
   132  H    0.010860
   133  H    0.007982
   134  H    0.026260
   135  H    0.031147
   136  H    0.026084
   137  H    0.019292
   138  H    0.026422
   139  H    0.023361
   140  H    0.033225
 Sum of Mulliken charges =  -0.00000

 Dipole moment (field-independent basis, Debye):
    X=              0.6904    Y=              7.4664    Z=              0.0522  Tot=              7.4984
 Quadrupole moment (field-independent basis, Debye-Ang):
   XX=           -374.9749   YY=           -473.7293   ZZ=           -363.7947
   XY=             35.3590   XZ=              1.7924   YZ=             20.4800

 Normal termination of Gaussian 16 at Wed May  4 07:19:48 2022.
