 Gaussian 16, Revision A.03,
 Gaussian 16:  ES64L-G16RevA.03 25-Dec-2016

 --------------------
 #p ZINDO=(nstates=5)
 --------------------

 -----------------------------
 step_1451_chromophore_2 ZINDO
 -----------------------------
 Symbolic Z-matrix:
 Charge =  0 Multiplicity = 1

                         Standard orientation:
 ---------------------------------------------------------------------
 Center     Atomic      Atomic             Coordinates (Angstroms)
 Number     Number       Type             X           Y           Z
 ---------------------------------------------------------------------
      1         12           0        4.283166    1.139721   -0.557557
      2          6           0        3.596503   -2.373636   -0.913286
      3          6           0        1.879860    1.846118   -2.925433
      4          6           0        3.999445    4.061875    0.751911
      5          6           0        6.198713    0.073968    2.425230
      6          7           0        2.908950   -0.139598   -1.777832
      7          6           0        2.812767   -1.527291   -1.754964
      8          6           0        1.822164   -2.009815   -2.871266
      9          6           0        1.368293   -0.619238   -3.458027
     10          6           0        2.108435    0.439040   -2.651219
     11          6           0        1.548185   -0.448332   -4.997942
     12          6           0        0.693815   -3.039084   -2.559800
     13          6           0        0.133884   -2.925544   -1.172810
     14          6           0       -1.363920   -3.327430   -1.047801
     15          8           0       -1.766228   -4.505740   -0.882203
     16          8           0       -2.171936   -2.277897   -1.160758
     17          7           0        3.263013    2.813490   -1.142981
     18          6           0        2.308288    2.950438   -2.112692
     19          6           0        1.908374    4.338743   -2.217120
     20          6           0        2.607459    5.077309   -1.188797
     21          6           0        3.301000    3.953489   -0.433200
     22          6           0        1.008025    4.817474   -3.321881
     23          6           0        2.570744    6.612772   -0.823945
     24          8           0        1.812313    7.335236   -1.434767
     25          6           0        3.518461    7.187856    0.260198
     26          7           0        4.920380    1.883672    1.389512
     27          6           0        4.699390    3.241008    1.605708
     28          6           0        5.283969    3.630146    2.956364
     29          6           0        5.747642    2.287050    3.551099
     30          6           0        5.602927    1.321977    2.417762
     31          6           0        6.510036    4.594366    2.784954
     32          6           0        4.900424    1.887124    4.806696
     33          6           0        5.774742    1.205973    5.912457
     34          7           0        5.083795   -0.783416    0.392533
     35          6           0        5.846595   -0.993083    1.518868
     36          6           0        6.018936   -2.430294    1.735882
     37          6           0        5.175856   -3.021940    0.778873
     38          6           0        4.585061   -1.955994    0.036793
     39          6           0        6.902410   -3.055350    2.788582
     40          6           0        4.607403   -4.278992    0.325213
     41          8           0        4.858658   -5.471952    0.701431
     42          6           0        3.604754   -3.930522   -0.817854
     43          6           0        3.995743   -4.704741   -2.018366
     44          8           0        3.673414   -5.845729   -2.194013
     45          8           0        4.794310   -3.961612   -2.839957
     46          6           0        4.970739   -4.667469   -4.103521
     47          6           0       -3.606219   -2.433352   -1.076023
     48          6           0       -4.005621   -3.153797    0.219050
     49          6           0       -4.196266   -2.732157    1.511823
     50          6           0       -3.826257   -1.438162    2.027947
     51          6           0       -4.707864   -3.773027    2.568547
     52          6           0       -6.094404   -3.500194    3.229414
     53          6           0       -7.272777   -4.091900    2.394599
     54          6           0       -8.502379   -3.092458    2.300532
     55          6           0       -9.890931   -3.841145    2.408139
     56          6           0       -8.357712   -2.327174    0.949016
     57          6           0       -8.869397   -0.894953    0.914621
     58          6           0       -7.785817    0.185836    1.399977
     59          6           0       -7.410686    1.069204    0.183829
     60          6           0       -6.567607    0.346784   -0.951935
     61          6           0       -6.635768    2.306562    0.627247
     62          6           0       -7.557018    3.506395    0.756049
     63          6           0       -7.977460    4.124699   -0.584473
     64          6           0       -9.473078    4.535650   -0.826775
     65          6           0      -10.118323    3.639335   -1.910766
     66          6           0       -9.746873    5.999442   -1.111970
     67          1           0        1.145741    2.068763   -3.702411
     68          1           0        4.067386    5.066124    1.175224
     69          1           0        6.628399   -0.120865    3.409207
     70          1           0        2.549963   -2.402147   -3.581836
     71          1           0        0.306418   -0.540453   -3.222803
     72          1           0        1.426437    0.590327   -5.306347
     73          1           0        0.763940   -1.107750   -5.368015
     74          1           0        2.569474   -0.728427   -5.254366
     75          1           0        0.991293   -4.018625   -2.935949
     76          1           0       -0.089763   -2.795139   -3.276527
     77          1           0        0.184976   -1.929686   -0.732743
     78          1           0        0.646677   -3.654612   -0.546655
     79          1           0        0.036109    5.048062   -2.885537
     80          1           0        0.740145    4.093450   -4.090610
     81          1           0        1.485993    5.711989   -3.721500
     82          1           0        4.445717    6.617977    0.194227
     83          1           0        3.047051    7.054596    1.232622
     84          1           0        3.927814    8.191106    0.140595
     85          1           0        4.607856    4.162945    3.625428
     86          1           0        6.815470    2.461284    3.686506
     87          1           0        6.171038    5.425141    2.166004
     88          1           0        7.394007    4.073619    2.417803
     89          1           0        6.896653    4.943939    3.742187
     90          1           0        4.121647    1.178176    4.524929
     91          1           0        4.363623    2.763864    5.168643
     92          1           0        6.794102    0.984700    5.596593
     93          1           0        5.387979    0.272265    6.320718
     94          1           0        5.868134    1.725552    6.865465
     95          1           0        6.707144   -2.644599    3.779027
     96          1           0        7.953478   -2.938950    2.523448
     97          1           0        6.718801   -4.129166    2.750509
     98          1           0        2.685459   -4.322157   -0.383478
     99          1           0        3.963462   -4.847332   -4.480125
    100          1           0        5.575598   -5.572077   -4.033165
    101          1           0        5.470134   -4.072623   -4.867932
    102          1           0       -4.050735   -3.048648   -1.857682
    103          1           0       -3.980581   -1.410416   -1.068812
    104          1           0       -4.277484   -4.208647    0.175021
    105          1           0       -4.678862   -0.813953    2.296418
    106          1           0       -3.104625   -1.058077    1.304729
    107          1           0       -3.230998   -1.574894    2.930587
    108          1           0       -3.983744   -3.909569    3.371972
    109          1           0       -4.704424   -4.772724    2.134603
    110          1           0       -6.133387   -2.414501    3.141564
    111          1           0       -6.050992   -3.716618    4.296452
    112          1           0       -7.574354   -4.906717    3.051814
    113          1           0       -6.899890   -4.546033    1.476234
    114          1           0       -8.572227   -2.405998    3.144376
    115          1           0      -10.588481   -3.421776    1.681837
    116          1           0      -10.353447   -3.815649    3.395373
    117          1           0       -9.943134   -4.867835    2.046176
    118          1           0       -8.889123   -2.920024    0.204737
    119          1           0       -7.292713   -2.331123    0.715441
    120          1           0       -9.675026   -0.789154    1.641672
    121          1           0       -9.287563   -0.713576   -0.075375
    122          1           0       -6.990522   -0.452948    1.783115
    123          1           0       -8.158279    0.769543    2.241797
    124          1           0       -8.332194    1.493153   -0.213417
    125          1           0       -6.495159   -0.714648   -0.716215
    126          1           0       -5.566691    0.778241   -0.915238
    127          1           0       -7.047572    0.516704   -1.915631
    128          1           0       -5.824486    2.594682   -0.039941
    129          1           0       -6.194805    2.059119    1.593587
    130          1           0       -6.943644    4.299415    1.186240
    131          1           0       -8.352513    3.308116    1.473727
    132          1           0       -7.525212    3.483455   -1.342165
    133          1           0       -7.390829    5.040627   -0.655363
    134          1           0      -10.059221    4.290499    0.058263
    135          1           0      -11.027799    3.183592   -1.519458
    136          1           0       -9.383435    2.913004   -2.256793
    137          1           0      -10.446799    4.178272   -2.799310
    138          1           0      -10.077208    6.161372   -2.138277
    139          1           0       -8.860719    6.618526   -0.973390
    140          1           0      -10.522667    6.320447   -0.416693
 ---------------------------------------------------------------------

 SCF Done:  E(RZINDO/S) =  -474.138863004     A.U. after   20 cycles

 Excitation energies and oscillator strengths:

 Excited State   1:      Singlet-A      1.2424 eV  997.98 nm  f=0.6187  <S**2>=0.000
     175 ->178         0.17823
     176 ->177         0.66631
 This state for optimization and/or second-order correction.
 Total Energy, E(CIS/TDA) =  -474.093207450
 Copying the excited state density for this state as the 1-particle RhoCI density.

 Excited State   2:      Singlet-A      1.9073 eV  650.03 nm  f=0.0031  <S**2>=0.000
     175 ->177        -0.48229
     176 ->178         0.49260

 Excited State   3:      Singlet-A      2.6857 eV  461.64 nm  f=0.0291  <S**2>=0.000
     176 ->179        -0.28939
     176 ->180         0.62648

 Excited State   4:      Singlet-A      2.8412 eV  436.38 nm  f=0.2726  <S**2>=0.000
     175 ->177         0.24971
     176 ->178         0.23540
     176 ->179         0.50823
     176 ->180         0.17269
     176 ->181        -0.18935

 Excited State   5:      Singlet-A      2.9470 eV  420.71 nm  f=0.0340  <S**2>=0.000
     170 ->177         0.28645
     170 ->178        -0.15099
     170 ->179        -0.33096
     170 ->181         0.35115
     170 ->185        -0.16043
     170 ->188         0.13653

 The electronic state is 1-A.
 Alpha  occ. eigenvalues --   -1.83604  -1.81648  -1.80789  -1.74766  -1.74363
 Alpha  occ. eigenvalues --   -1.71978  -1.66136  -1.60475  -1.58804  -1.56216
 Alpha  occ. eigenvalues --   -1.53504  -1.50548  -1.48341  -1.47435  -1.46258
 Alpha  occ. eigenvalues --   -1.43699  -1.43105  -1.41095  -1.39193  -1.38866
 Alpha  occ. eigenvalues --   -1.36287  -1.32967  -1.32259  -1.31706  -1.29440
 Alpha  occ. eigenvalues --   -1.27574  -1.26174  -1.22859  -1.21038  -1.17826
 Alpha  occ. eigenvalues --   -1.15707  -1.15188  -1.14899  -1.14302  -1.13062
 Alpha  occ. eigenvalues --   -1.12527  -1.10010  -1.09347  -1.06005  -1.05236
 Alpha  occ. eigenvalues --   -1.04414  -1.02247  -1.00714  -0.99027  -0.97317
 Alpha  occ. eigenvalues --   -0.96670  -0.93905  -0.93639  -0.92819  -0.92173
 Alpha  occ. eigenvalues --   -0.90949  -0.90275  -0.89410  -0.88970  -0.88339
 Alpha  occ. eigenvalues --   -0.85846  -0.84962  -0.83898  -0.83502  -0.81224
 Alpha  occ. eigenvalues --   -0.79759  -0.78790  -0.78036  -0.77775  -0.76958
 Alpha  occ. eigenvalues --   -0.76723  -0.75611  -0.74679  -0.73411  -0.72849
 Alpha  occ. eigenvalues --   -0.72811  -0.72746  -0.72082  -0.71549  -0.71051
 Alpha  occ. eigenvalues --   -0.70524  -0.69645  -0.68612  -0.68288  -0.68153
 Alpha  occ. eigenvalues --   -0.67285  -0.66753  -0.66413  -0.66067  -0.65906
 Alpha  occ. eigenvalues --   -0.65619  -0.65039  -0.64668  -0.64417  -0.64296
 Alpha  occ. eigenvalues --   -0.63902  -0.63539  -0.63372  -0.62617  -0.61782
 Alpha  occ. eigenvalues --   -0.61605  -0.61334  -0.61213  -0.60612  -0.60015
 Alpha  occ. eigenvalues --   -0.59862  -0.59416  -0.59010  -0.58873  -0.58755
 Alpha  occ. eigenvalues --   -0.58457  -0.58115  -0.57246  -0.57069  -0.56773
 Alpha  occ. eigenvalues --   -0.56542  -0.55830  -0.55230  -0.55224  -0.55029
 Alpha  occ. eigenvalues --   -0.54249  -0.54226  -0.53626  -0.53392  -0.53250
 Alpha  occ. eigenvalues --   -0.52750  -0.52650  -0.52527  -0.51935  -0.51782
 Alpha  occ. eigenvalues --   -0.51454  -0.51028  -0.50919  -0.50752  -0.50216
 Alpha  occ. eigenvalues --   -0.50092  -0.49729  -0.49585  -0.49445  -0.48818
 Alpha  occ. eigenvalues --   -0.48348  -0.48308  -0.47830  -0.47583  -0.47510
 Alpha  occ. eigenvalues --   -0.47384  -0.47255  -0.46886  -0.46638  -0.46561
 Alpha  occ. eigenvalues --   -0.46426  -0.46094  -0.46024  -0.45766  -0.45726
 Alpha  occ. eigenvalues --   -0.45470  -0.45188  -0.44994  -0.44941  -0.44244
 Alpha  occ. eigenvalues --   -0.43961  -0.43169  -0.43026  -0.42905  -0.42627
 Alpha  occ. eigenvalues --   -0.42188  -0.41511  -0.41115  -0.39247  -0.38496
 Alpha  occ. eigenvalues --   -0.38115  -0.37519  -0.37190  -0.34888  -0.34671
 Alpha  occ. eigenvalues --   -0.33865  -0.33096  -0.32267  -0.31437  -0.27584
 Alpha  occ. eigenvalues --   -0.21844
 Alpha virt. eigenvalues --   -0.08801  -0.02933  -0.01297  -0.00392   0.00821
 Alpha virt. eigenvalues --    0.01791   0.02596   0.03183   0.04092   0.05089
 Alpha virt. eigenvalues --    0.05108   0.05748   0.06544   0.07018   0.07457

 Mulliken charges:
               1
     1  Mg   0.440578
     2  C   -0.044688
     3  C   -0.098045
     4  C   -0.092500
     5  C   -0.085885
     6  N   -0.260615
     7  C    0.078227
     8  C   -0.008182
     9  C   -0.001691
    10  C    0.161376
    11  C   -0.051158
    12  C   -0.007851
    13  C    0.015752
    14  C    0.464223
    15  O   -0.532067
    16  O   -0.256160
    17  N   -0.319393
    18  C    0.121061
    19  C    0.052613
    20  C   -0.066006
    21  C    0.153757
    22  C   -0.035764
    23  C    0.333888
    24  O   -0.498332
    25  C   -0.028342
    26  N   -0.295663
    27  C    0.151485
    28  C    0.000569
    29  C    0.001252
    30  C    0.120936
    31  C   -0.055729
    32  C   -0.019641
    33  C   -0.064616
    34  N   -0.316826
    35  C    0.084430
    36  C    0.017734
    37  C   -0.056995
    38  C    0.102780
    39  C   -0.037069
    40  C    0.326718
    41  O   -0.537992
    42  C    0.054322
    43  C    0.495790
    44  O   -0.501359
    45  O   -0.267083
    46  C    0.076290
    47  C    0.116953
    48  C   -0.092395
    49  C   -0.005659
    50  C   -0.039539
    51  C   -0.030820
    52  C   -0.039337
    53  C   -0.034295
    54  C   -0.010486
    55  C   -0.067830
    56  C   -0.030707
    57  C   -0.044892
    58  C   -0.036738
    59  C   -0.015125
    60  C   -0.062271
    61  C   -0.033774
    62  C   -0.033943
    63  C   -0.033848
    64  C   -0.007673
    65  C   -0.060790
    66  C   -0.051345
    67  H    0.033508
    68  H    0.012847
    69  H    0.026971
    70  H    0.030667
    71  H    0.025610
    72  H    0.025646
    73  H    0.026851
    74  H    0.028399
    75  H    0.043156
    76  H    0.015828
    77  H    0.039912
    78  H    0.045108
    79  H    0.036217
    80  H    0.026654
    81  H    0.044026
    82  H    0.024963
    83  H    0.046938
    84  H    0.043224
    85  H    0.032625
    86  H    0.036005
    87  H    0.021117
    88  H    0.025938
    89  H    0.016458
    90  H    0.027118
    91  H    0.022894
    92  H    0.020871
    93  H    0.017622
    94  H    0.016859
    95  H    0.031196
    96  H    0.030964
    97  H    0.032104
    98  H    0.064438
    99  H    0.037486
   100  H    0.053145
   101  H    0.021429
   102  H    0.052126
   103  H    0.035546
   104  H    0.034740
   105  H    0.037651
   106  H    0.020895
   107  H    0.020545
   108  H    0.016420
   109  H    0.017410
   110  H    0.009938
   111  H    0.029985
   112  H    0.008177
   113  H    0.039370
   114  H    0.027795
   115  H    0.009856
   116  H    0.020786
   117  H    0.018129
   118  H    0.016693
   119  H    0.018153
   120  H    0.012153
   121  H    0.021783
   122  H    0.024552
   123  H    0.022008
   124  H    0.024283
   125  H    0.021589
   126  H    0.021964
   127  H    0.024094
   128  H    0.017525
   129  H    0.009649
   130  H    0.002265
   131  H    0.023661
   132  H    0.021512
   133  H    0.009506
   134  H    0.017395
   135  H    0.017494
   136  H    0.018757
   137  H    0.015483
   138  H    0.020433
   139  H    0.017113
   140  H    0.018154
 Sum of Mulliken charges =  -0.00000

 Dipole moment (field-independent basis, Debye):
    X=              0.0745    Y=             10.8523    Z=              0.0594  Tot=             10.8527
 N-N= 4.548391422939D+03 E-N= 0.000000000000D+00  KE=-9.770144723538D+03
 Leave Link  601 at Wed May  4 07:33:55 2022, MaxMem=  6710886400 cpu:               0.8 elap:               0.0
 (Enter /sw/apps/gaussian-16.0/g16/l9999.exe)
 1\1\GINC-BP1-COMPUTE096\SP\RZINDO CIS\STO-3G\C55H74Mg1N4O6\OF15641\04-
 May-2022\0\\#p ZINDO=(nstates=5)\\step_1451_chromophore_2 ZINDO\\0,1\M
 g,0,2.172,-0.532,43.907\C,0,5.628,-0.324,42.93\C,0,1.514,2.383,42.189\
 C,0,-0.888,-1.487,43.665\C,0,3.076,-3.959,44.975\N,0,3.448,0.863,42.70
 7\C,0,4.811,0.746,42.454\C,0,5.321,2.018,41.691\C,0,3.967,2.81,41.538\
 C,0,2.898,1.945,42.192\C,0,3.98,4.274,42.076\C,0,6.206,1.893,40.414\C,
 0,5.894,0.69,39.574\C,0,6.145,0.885,38.051\O,0,7.258,0.719,37.493\O,0,

 Normal termination of Gaussian 16 at Wed May  4 07:33:55 2022.
