 Gaussian 16, Revision A.03,
 Gaussian 16:  ES64L-G16RevA.03 25-Dec-2016

 ------------------------------
 #p blyp/Def2SVP td=(nstates=5)
 ------------------------------

 -------------------------------------------------
 step_51_chromophore_18 TDDFT with blyp functional
 -------------------------------------------------
 Symbolic Z-matrix:
 Charge =  0 Multiplicity = 1

                         Standard orientation:
 ---------------------------------------------------------------------
 Center     Atomic      Atomic             Coordinates (Angstroms)
 Number     Number       Type             X           Y           Z
 ---------------------------------------------------------------------
      1         12           0        5.123354    1.140570    0.300091
      2          6           0        4.531283   -2.267116    0.335760
      3          6           0        1.563359    1.618707    0.012641
      4          6           0        5.574580    4.501977   -0.185617
      5          6           0        8.540690    0.602515    0.019847
      6          7           0        3.242594   -0.178828    0.123894
      7          6           0        3.356002   -1.573420    0.417618
      8          6           0        1.912941   -2.076780    0.647700
      9          6           0        1.046204   -0.780989    0.594389
     10          6           0        2.059473    0.308380    0.200060
     11          6           0       -0.269248   -0.895844   -0.269727
     12          6           0        1.785988   -2.918674    1.974903
     13          6           0        1.126667   -4.253691    1.762784
     14          6           0        0.309989   -4.534061    0.466325
     15          8           0        0.732750   -4.993202   -0.587237
     16          8           0       -1.010291   -4.322424    0.622853
     17          7           0        3.758908    2.844733    0.066094
     18          6           0        2.361798    2.821296   -0.090961
     19          6           0        1.971045    4.177216   -0.249285
     20          6           0        3.050204    5.066068   -0.246257
     21          6           0        4.199372    4.148683   -0.126082
     22          6           0        0.526364    4.415068   -0.552133
     23          6           0        3.196620    6.581002   -0.324984
     24          8           0        4.271726    7.172500   -0.223441
     25          6           0        1.940365    7.292223   -0.620128
     26          7           0        6.809937    2.340844   -0.220283
     27          6           0        6.753473    3.682509   -0.197365
     28          6           0        8.123341    4.321941   -0.466536
     29          6           0        9.053841    3.163948   -0.197196
     30          6           0        8.096031    1.908534   -0.088991
     31          6           0        8.307507    5.115066   -1.806783
     32          6           0       10.050218    3.368017    0.983524
     33          6           0        9.514634    3.030438    2.430903
     34          7           0        6.366467   -0.490424    0.132798
     35          6           0        7.717964   -0.579775    0.040148
     36          6           0        8.100424   -1.938637   -0.033365
     37          6           0        6.874096   -2.667893    0.108082
     38          6           0        5.841114   -1.740962    0.158024
     39          6           0        9.483566   -2.472763   -0.393504
     40          6           0        6.337063   -4.020611    0.259735
     41          8           0        6.913150   -5.101845    0.214529
     42          6           0        4.732387   -3.791938    0.358293
     43          6           0        4.149792   -4.405800   -0.887648
     44          8           0        3.671198   -3.832671   -1.874673
     45          8           0        4.070569   -5.751755   -0.702258
     46          6           0        3.691784   -6.545851   -1.906515
     47          6           0       -1.937368   -4.634324   -0.506522
     48          6           0       -3.015949   -3.641043   -0.493827
     49          6           0       -4.277323   -3.576636   -1.072863
     50          6           0       -4.941010   -4.737530   -1.841786
     51          6           0       -4.902881   -2.217860   -1.178466
     52          6           0       -5.266491   -1.474386    0.154651
     53          6           0       -6.319149   -0.387713   -0.047967
     54          6           0       -7.437891   -0.435410    1.051345
     55          6           0       -6.835131   -0.161250    2.456127
     56          6           0       -8.573752    0.505979    0.494610
     57          6           0       -9.879789   -0.220410    0.256928
     58          6           0      -10.717801   -0.200419    1.565732
     59          6           0      -11.928239    0.802625    1.582252
     60          6           0      -12.326928    1.040646    3.063778
     61          6           0      -13.131447    0.334777    0.658118
     62          6           0      -13.553858    1.417222   -0.427942
     63          6           0      -14.913035    2.177935   -0.113919
     64          6           0      -15.842804    2.707215   -1.261545
     65          6           0      -16.777134    1.629290   -1.721945
     66          6           0      -15.033406    3.323675   -2.395364
     67          1           0        0.474752    1.700603    0.047366
     68          1           0        5.766488    5.575579   -0.240474
     69          1           0        9.569882    0.360064   -0.252476
     70          1           0        1.844812   -2.673750   -0.261321
     71          1           0        0.677625   -0.497148    1.579893
     72          1           0       -0.164814   -0.283159   -1.165374
     73          1           0       -1.148851   -0.501802    0.238992
     74          1           0       -0.336705   -1.965668   -0.462045
     75          1           0        1.159051   -2.343412    2.655194
     76          1           0        2.746794   -3.134434    2.440467
     77          1           0        0.451401   -4.502690    2.580911
     78          1           0        1.863423   -5.057471    1.758992
     79          1           0       -0.009567    4.563399    0.384377
     80          1           0        0.181967    3.535455   -1.095679
     81          1           0        0.499359    5.377908   -1.063377
     82          1           0        1.748145    6.895443   -1.617688
     83          1           0        2.187487    8.353058   -0.584771
     84          1           0        1.245694    7.019805    0.173916
     85          1           0        8.227251    5.098589    0.292322
     86          1           0        9.552281    2.964984   -1.146025
     87          1           0        7.344116    5.057022   -2.313562
     88          1           0        8.983636    4.596669   -2.486298
     89          1           0        8.722416    6.106299   -1.624141
     90          1           0       10.395536    4.400536    0.959317
     91          1           0       10.972625    2.887632    0.657032
     92          1           0        8.569849    2.491001    2.500722
     93          1           0        9.252103    3.961606    2.932987
     94          1           0       10.298505    2.468879    2.938360
     95          1           0        9.342003   -3.508489   -0.704020
     96          1           0       10.195790   -2.437766    0.431508
     97          1           0        9.890089   -1.846876   -1.188348
     98          1           0        4.341441   -4.316469    1.230664
     99          1           0        4.282738   -6.141400   -2.729020
    100          1           0        2.608338   -6.500114   -2.012032
    101          1           0        3.975606   -7.531159   -1.539008
    102          1           0       -2.290091   -5.650080   -0.324933
    103          1           0       -1.567041   -4.682064   -1.530402
    104          1           0       -2.760560   -2.629353   -0.176126
    105          1           0       -4.426929   -5.699031   -1.850109
    106          1           0       -5.140259   -4.590037   -2.902838
    107          1           0       -5.899031   -4.900382   -1.349477
    108          1           0       -5.876636   -2.288569   -1.661959
    109          1           0       -4.298629   -1.534257   -1.774064
    110          1           0       -4.287246   -1.075938    0.419065
    111          1           0       -5.566847   -2.182244    0.927339
    112          1           0       -6.766418   -0.399539   -1.041953
    113          1           0       -5.833703    0.577780    0.090742
    114          1           0       -7.849563   -1.444090    1.018055
    115          1           0       -5.747245   -0.094096    2.432796
    116          1           0       -7.121181   -0.924397    3.180200
    117          1           0       -7.196717    0.785054    2.857588
    118          1           0       -8.172068    0.985709   -0.397823
    119          1           0       -8.872560    1.319060    1.156044
    120          1           0       -9.723761   -1.256967   -0.040196
    121          1           0      -10.443319    0.378158   -0.458632
    122          1           0      -10.069115    0.140954    2.373174
    123          1           0      -11.143823   -1.159143    1.863993
    124          1           0      -11.556883    1.800338    1.352287
    125          1           0      -13.375964    1.336746    3.042635
    126          1           0      -11.751455    1.803024    3.588861
    127          1           0      -12.216039    0.091238    3.586383
    128          1           0      -13.991094    0.166822    1.306537
    129          1           0      -12.852386   -0.636906    0.249924
    130          1           0      -13.620366    0.952533   -1.411681
    131          1           0      -12.786798    2.186268   -0.509738
    132          1           0      -14.752745    3.065446    0.498424
    133          1           0      -15.514743    1.476199    0.462425
    134          1           0      -16.540397    3.458763   -0.890669
    135          1           0      -17.759261    1.943961   -1.368388
    136          1           0      -16.550555    0.631273   -1.346031
    137          1           0      -16.931631    1.463925   -2.787879
    138          1           0      -14.032846    3.440434   -1.979123
    139          1           0      -15.391655    4.282388   -2.768636
    140          1           0      -14.949393    2.555357   -3.164306
 ---------------------------------------------------------------------

 SCF Done:  E(RB-LYP) =  -3007.38108660     A.U. after   21 cycles

 Excitation energies and oscillator strengths:

 Excited State   1:      Singlet-A      1.7690 eV  700.88 nm  f=0.2987  <S**2>=0.000
     245 -> 248       -0.15754
     246 -> 247        0.69277
     246 <- 247       -0.15198
 This state for optimization and/or second-order correction.
 Total Energy, E(TD-HF/TD-DFT) =  -3007.31607764
 Copying the excited state density for this state as the 1-particle RhoCI density.

 Excited State   2:      Singlet-A      1.9070 eV  650.14 nm  f=0.0135  <S**2>=0.000
     244 -> 247        0.64104
     245 -> 247       -0.28120

 Excited State   3:      Singlet-A      1.9701 eV  629.33 nm  f=0.0711  <S**2>=0.000
     244 -> 247        0.29438
     245 -> 247        0.59768
     246 -> 248        0.18498

 Excited State   4:      Singlet-A      2.1725 eV  570.71 nm  f=0.0007  <S**2>=0.000
     242 -> 247       -0.13021
     243 -> 247        0.69284

 Excited State   5:      Singlet-A      2.1741 eV  570.28 nm  f=0.0000  <S**2>=0.000
     242 -> 247        0.69407
     243 -> 247        0.12755

 The electronic state is 1-A.
 Alpha  occ. eigenvalues --  -46.27681 -18.82699 -18.80163 -18.76610 -18.76349
 Alpha  occ. eigenvalues --  -18.75706 -18.75346 -14.02963 -14.02611 -14.00814
 Alpha  occ. eigenvalues --  -14.00214 -10.04329 -10.02606 -10.00403  -9.99611
 Alpha  occ. eigenvalues --   -9.98756  -9.96362  -9.96216  -9.96199  -9.96185
 Alpha  occ. eigenvalues --   -9.96070  -9.95708  -9.95653  -9.94475  -9.94057
 Alpha  occ. eigenvalues --   -9.93987  -9.93826  -9.93724  -9.93648  -9.93619
 Alpha  occ. eigenvalues --   -9.93615  -9.93592  -9.93470  -9.93177  -9.92960
 Alpha  occ. eigenvalues --   -9.92786  -9.92767  -9.92652  -9.92652  -9.92621
 Alpha  occ. eigenvalues --   -9.92609  -9.92499  -9.92448  -9.92387  -9.92327
 Alpha  occ. eigenvalues --   -9.92159  -9.92094  -9.92044  -9.92037  -9.92031
 Alpha  occ. eigenvalues --   -9.92013  -9.91992  -9.91930  -9.91860  -9.91679
 Alpha  occ. eigenvalues --   -9.91636  -9.91538  -9.91397  -9.91375  -9.91266
 Alpha  occ. eigenvalues --   -9.91134  -9.91090  -9.90767  -9.90487  -9.90466
 Alpha  occ. eigenvalues --   -9.90129  -2.92108  -1.72527  -1.72005  -1.71810
 Alpha  occ. eigenvalues --   -0.98577  -0.95861  -0.91858  -0.90725  -0.89451
 Alpha  occ. eigenvalues --   -0.87539  -0.86396  -0.85912  -0.85408  -0.83981
 Alpha  occ. eigenvalues --   -0.74981  -0.73755  -0.73053  -0.72656  -0.72054
 Alpha  occ. eigenvalues --   -0.71643  -0.71438  -0.71006  -0.70509  -0.70154
 Alpha  occ. eigenvalues --   -0.69213  -0.68956  -0.68225  -0.67449  -0.66809
 Alpha  occ. eigenvalues --   -0.66662  -0.66115  -0.65296  -0.64774  -0.64284
 Alpha  occ. eigenvalues --   -0.64256  -0.62310  -0.61936  -0.61094  -0.60749
 Alpha  occ. eigenvalues --   -0.60358  -0.59882  -0.59611  -0.59429  -0.58993
 Alpha  occ. eigenvalues --   -0.58009  -0.57460  -0.56337  -0.55892  -0.55219
 Alpha  occ. eigenvalues --   -0.54107  -0.53540  -0.53200  -0.52301  -0.51309
 Alpha  occ. eigenvalues --   -0.51167  -0.50666  -0.50636  -0.50328  -0.49994
 Alpha  occ. eigenvalues --   -0.49693  -0.48615  -0.47699  -0.46868  -0.46632
 Alpha  occ. eigenvalues --   -0.45842  -0.45581  -0.45082  -0.44625  -0.44028
 Alpha  occ. eigenvalues --   -0.43554  -0.42894  -0.42702  -0.42247  -0.42202
 Alpha  occ. eigenvalues --   -0.42117  -0.41710  -0.41512  -0.41459  -0.41364
 Alpha  occ. eigenvalues --   -0.41152  -0.41051  -0.40712  -0.40058  -0.39929
 Alpha  occ. eigenvalues --   -0.39678  -0.39462  -0.39262  -0.39131  -0.39085
 Alpha  occ. eigenvalues --   -0.38750  -0.38643  -0.38361  -0.38204  -0.37838
 Alpha  occ. eigenvalues --   -0.37779  -0.37649  -0.37308  -0.37210  -0.36987
 Alpha  occ. eigenvalues --   -0.36944  -0.36930  -0.36801  -0.36661  -0.36487
 Alpha  occ. eigenvalues --   -0.36132  -0.36002  -0.35889  -0.35765  -0.35594
 Alpha  occ. eigenvalues --   -0.35351  -0.35238  -0.34924  -0.34631  -0.34543
 Alpha  occ. eigenvalues --   -0.34452  -0.34246  -0.34130  -0.33961  -0.33841
 Alpha  occ. eigenvalues --   -0.33774  -0.33413  -0.33255  -0.33118  -0.32904
 Alpha  occ. eigenvalues --   -0.32859  -0.32454  -0.32407  -0.32184  -0.32148
 Alpha  occ. eigenvalues --   -0.32058  -0.31980  -0.31827  -0.31442  -0.31299
 Alpha  occ. eigenvalues --   -0.31208  -0.31009  -0.30848  -0.30674  -0.30556
 Alpha  occ. eigenvalues --   -0.30434  -0.30208  -0.30091  -0.29611  -0.29542
 Alpha  occ. eigenvalues --   -0.29207  -0.29124  -0.29033  -0.28693  -0.28677
 Alpha  occ. eigenvalues --   -0.28526  -0.28309  -0.28182  -0.28156  -0.27746
 Alpha  occ. eigenvalues --   -0.27483  -0.27012  -0.26911  -0.26817  -0.26449
 Alpha  occ. eigenvalues --   -0.26165  -0.25961  -0.25735  -0.25704  -0.25540
 Alpha  occ. eigenvalues --   -0.25166  -0.24682  -0.24220  -0.23630  -0.23281
 Alpha  occ. eigenvalues --   -0.22615  -0.21901  -0.21691  -0.20620  -0.20474
 Alpha  occ. eigenvalues --   -0.19749  -0.19533  -0.19423  -0.18504  -0.16996
 Alpha  occ. eigenvalues --   -0.15706
 Alpha virt. eigenvalues --   -0.11544  -0.06648  -0.06120  -0.04363  -0.03078
 Alpha virt. eigenvalues --   -0.02951  -0.02874  -0.01350  -0.00823   0.00251
 Alpha virt. eigenvalues --    0.01475   0.02099   0.02388   0.02829   0.02911

 Mulliken charges:
               1
     1  Mg   0.666571
     2  C    0.066141
     3  C   -0.069521
     4  C   -0.036243
     5  C   -0.061451
     6  N   -0.170226
     7  C   -0.131842
     8  C    0.038162
     9  C   -0.060357
    10  C    0.024908
    11  C    0.117726
    12  C    0.173767
    13  C    0.119013
    14  C    0.056411
    15  O   -0.196518
    16  O   -0.263808
    17  N   -0.289672
    18  C    0.132512
    19  C   -0.164190
    20  C    0.027423
    21  C    0.066323
    22  C    0.189193
    23  C   -0.082349
    24  O   -0.155444
    25  C    0.149249
    26  N   -0.210717
    27  C    0.007469
    28  C   -0.017568
    29  C    0.065671
    30  C    0.035975
    31  C    0.142593
    32  C    0.102307
    33  C    0.067330
    34  N   -0.269317
    35  C    0.057678
    36  C   -0.172791
    37  C    0.074742
    38  C    0.089829
    39  C    0.169113
    40  C   -0.043548
    41  O   -0.124693
    42  C   -0.025443
    43  C    0.144460
    44  O   -0.204673
    45  O   -0.277580
    46  C    0.224336
    47  C    0.349161
    48  C   -0.119453
    49  C   -0.140775
    50  C    0.120244
    51  C    0.106804
    52  C    0.068812
    53  C    0.071440
    54  C   -0.084244
    55  C    0.124388
    56  C    0.101675
    57  C    0.122139
    58  C    0.050435
    59  C   -0.108801
    60  C    0.094266
    61  C    0.145227
    62  C    0.061287
    63  C    0.062505
    64  C   -0.091441
    65  C    0.097420
    66  C    0.135509
    67  H   -0.059729
    68  H   -0.041350
    69  H   -0.053253
    70  H    0.023035
    71  H   -0.019855
    72  H   -0.007408
    73  H   -0.006988
    74  H    0.014047
    75  H   -0.025018
    76  H   -0.009607
    77  H   -0.015249
    78  H    0.001935
    79  H   -0.004381
    80  H    0.013339
    81  H   -0.027064
    82  H    0.037877
    83  H   -0.006426
    84  H    0.016146
    85  H   -0.027627
    86  H   -0.037824
    87  H   -0.001933
    88  H   -0.023041
    89  H    0.004318
    90  H   -0.030606
    91  H   -0.030145
    92  H    0.004485
    93  H   -0.007746
    94  H    0.005103
    95  H    0.009826
    96  H   -0.004895
    97  H   -0.001673
    98  H    0.006524
    99  H    0.025186
   100  H    0.029321
   101  H    0.010374
   102  H   -0.003242
   103  H    0.026945
   104  H   -0.029597
   105  H   -0.024173
   106  H    0.002591
   107  H   -0.004291
   108  H   -0.044111
   109  H   -0.008913
   110  H   -0.025649
   111  H   -0.020520
   112  H   -0.020820
   113  H   -0.032997
   114  H   -0.034974
   115  H   -0.013655
   116  H   -0.012696
   117  H   -0.019343
   118  H   -0.040454
   119  H   -0.044139
   120  H   -0.030057
   121  H   -0.031810
   122  H   -0.033589
   123  H   -0.033514
   124  H   -0.038960
   125  H   -0.019153
   126  H   -0.011544
   127  H   -0.022005
   128  H   -0.033825
   129  H   -0.030836
   130  H   -0.027958
   131  H   -0.009530
   132  H   -0.028210
   133  H   -0.034968
   134  H   -0.040455
   135  H   -0.023116
   136  H   -0.018828
   137  H   -0.029554
   138  H   -0.029869
   139  H   -0.008409
   140  H   -0.021016
 Sum of Mulliken charges =  -0.00000

 Dipole moment (field-independent basis, Debye):
    X=             -4.3782    Y=              2.2333    Z=              1.7178  Tot=              5.2065
 Quadrupole moment (field-independent basis, Debye-Ang):
   XX=           -393.8204   YY=           -421.6381   ZZ=           -403.8200
   XY=             24.4517   XZ=              7.4986   YZ=             -0.9049

 Normal termination of Gaussian 16 at Sat Apr 30 01:23:10 2022.
