 Gaussian 16, Revision A.03,
 Gaussian 16:  ES64L-G16RevA.03 25-Dec-2016

 -----------------------------------
 #p cam-b3lyp/Def2SVP td=(nstates=5)
 -----------------------------------

 ------------------------------------------------------
 step_51_chromophore_18 TDDFT with cam-b3lyp functional
 ------------------------------------------------------
 Symbolic Z-matrix:
 Charge =  0 Multiplicity = 1

                         Standard orientation:
 ---------------------------------------------------------------------
 Center     Atomic      Atomic             Coordinates (Angstroms)
 Number     Number       Type             X           Y           Z
 ---------------------------------------------------------------------
      1         12           0        5.123354    1.140570    0.300091
      2          6           0        4.531283   -2.267116    0.335760
      3          6           0        1.563359    1.618707    0.012641
      4          6           0        5.574580    4.501977   -0.185617
      5          6           0        8.540690    0.602515    0.019847
      6          7           0        3.242594   -0.178828    0.123894
      7          6           0        3.356002   -1.573420    0.417618
      8          6           0        1.912941   -2.076780    0.647700
      9          6           0        1.046204   -0.780989    0.594389
     10          6           0        2.059473    0.308380    0.200060
     11          6           0       -0.269248   -0.895844   -0.269727
     12          6           0        1.785988   -2.918674    1.974903
     13          6           0        1.126667   -4.253691    1.762784
     14          6           0        0.309989   -4.534061    0.466325
     15          8           0        0.732750   -4.993202   -0.587237
     16          8           0       -1.010291   -4.322424    0.622853
     17          7           0        3.758908    2.844733    0.066094
     18          6           0        2.361798    2.821296   -0.090961
     19          6           0        1.971045    4.177216   -0.249285
     20          6           0        3.050204    5.066068   -0.246257
     21          6           0        4.199372    4.148683   -0.126082
     22          6           0        0.526364    4.415068   -0.552133
     23          6           0        3.196620    6.581002   -0.324984
     24          8           0        4.271726    7.172500   -0.223441
     25          6           0        1.940365    7.292223   -0.620128
     26          7           0        6.809937    2.340844   -0.220283
     27          6           0        6.753473    3.682509   -0.197365
     28          6           0        8.123341    4.321941   -0.466536
     29          6           0        9.053841    3.163948   -0.197196
     30          6           0        8.096031    1.908534   -0.088991
     31          6           0        8.307507    5.115066   -1.806783
     32          6           0       10.050218    3.368017    0.983524
     33          6           0        9.514634    3.030438    2.430903
     34          7           0        6.366467   -0.490424    0.132798
     35          6           0        7.717964   -0.579775    0.040148
     36          6           0        8.100424   -1.938637   -0.033365
     37          6           0        6.874096   -2.667893    0.108082
     38          6           0        5.841114   -1.740962    0.158024
     39          6           0        9.483566   -2.472763   -0.393504
     40          6           0        6.337063   -4.020611    0.259735
     41          8           0        6.913150   -5.101845    0.214529
     42          6           0        4.732387   -3.791938    0.358293
     43          6           0        4.149792   -4.405800   -0.887648
     44          8           0        3.671198   -3.832671   -1.874673
     45          8           0        4.070569   -5.751755   -0.702258
     46          6           0        3.691784   -6.545851   -1.906515
     47          6           0       -1.937368   -4.634324   -0.506522
     48          6           0       -3.015949   -3.641043   -0.493827
     49          6           0       -4.277323   -3.576636   -1.072863
     50          6           0       -4.941010   -4.737530   -1.841786
     51          6           0       -4.902881   -2.217860   -1.178466
     52          6           0       -5.266491   -1.474386    0.154651
     53          6           0       -6.319149   -0.387713   -0.047967
     54          6           0       -7.437891   -0.435410    1.051345
     55          6           0       -6.835131   -0.161250    2.456127
     56          6           0       -8.573752    0.505979    0.494610
     57          6           0       -9.879789   -0.220410    0.256928
     58          6           0      -10.717801   -0.200419    1.565732
     59          6           0      -11.928239    0.802625    1.582252
     60          6           0      -12.326928    1.040646    3.063778
     61          6           0      -13.131447    0.334777    0.658118
     62          6           0      -13.553858    1.417222   -0.427942
     63          6           0      -14.913035    2.177935   -0.113919
     64          6           0      -15.842804    2.707215   -1.261545
     65          6           0      -16.777134    1.629290   -1.721945
     66          6           0      -15.033406    3.323675   -2.395364
     67          1           0        0.474752    1.700603    0.047366
     68          1           0        5.766488    5.575579   -0.240474
     69          1           0        9.569882    0.360064   -0.252476
     70          1           0        1.844812   -2.673750   -0.261321
     71          1           0        0.677625   -0.497148    1.579893
     72          1           0       -0.164814   -0.283159   -1.165374
     73          1           0       -1.148851   -0.501802    0.238992
     74          1           0       -0.336705   -1.965668   -0.462045
     75          1           0        1.159051   -2.343412    2.655194
     76          1           0        2.746794   -3.134434    2.440467
     77          1           0        0.451401   -4.502690    2.580911
     78          1           0        1.863423   -5.057471    1.758992
     79          1           0       -0.009567    4.563399    0.384377
     80          1           0        0.181967    3.535455   -1.095679
     81          1           0        0.499359    5.377908   -1.063377
     82          1           0        1.748145    6.895443   -1.617688
     83          1           0        2.187487    8.353058   -0.584771
     84          1           0        1.245694    7.019805    0.173916
     85          1           0        8.227251    5.098589    0.292322
     86          1           0        9.552281    2.964984   -1.146025
     87          1           0        7.344116    5.057022   -2.313562
     88          1           0        8.983636    4.596669   -2.486298
     89          1           0        8.722416    6.106299   -1.624141
     90          1           0       10.395536    4.400536    0.959317
     91          1           0       10.972625    2.887632    0.657032
     92          1           0        8.569849    2.491001    2.500722
     93          1           0        9.252103    3.961606    2.932987
     94          1           0       10.298505    2.468879    2.938360
     95          1           0        9.342003   -3.508489   -0.704020
     96          1           0       10.195790   -2.437766    0.431508
     97          1           0        9.890089   -1.846876   -1.188348
     98          1           0        4.341441   -4.316469    1.230664
     99          1           0        4.282738   -6.141400   -2.729020
    100          1           0        2.608338   -6.500114   -2.012032
    101          1           0        3.975606   -7.531159   -1.539008
    102          1           0       -2.290091   -5.650080   -0.324933
    103          1           0       -1.567041   -4.682064   -1.530402
    104          1           0       -2.760560   -2.629353   -0.176126
    105          1           0       -4.426929   -5.699031   -1.850109
    106          1           0       -5.140259   -4.590037   -2.902838
    107          1           0       -5.899031   -4.900382   -1.349477
    108          1           0       -5.876636   -2.288569   -1.661959
    109          1           0       -4.298629   -1.534257   -1.774064
    110          1           0       -4.287246   -1.075938    0.419065
    111          1           0       -5.566847   -2.182244    0.927339
    112          1           0       -6.766418   -0.399539   -1.041953
    113          1           0       -5.833703    0.577780    0.090742
    114          1           0       -7.849563   -1.444090    1.018055
    115          1           0       -5.747245   -0.094096    2.432796
    116          1           0       -7.121181   -0.924397    3.180200
    117          1           0       -7.196717    0.785054    2.857588
    118          1           0       -8.172068    0.985709   -0.397823
    119          1           0       -8.872560    1.319060    1.156044
    120          1           0       -9.723761   -1.256967   -0.040196
    121          1           0      -10.443319    0.378158   -0.458632
    122          1           0      -10.069115    0.140954    2.373174
    123          1           0      -11.143823   -1.159143    1.863993
    124          1           0      -11.556883    1.800338    1.352287
    125          1           0      -13.375964    1.336746    3.042635
    126          1           0      -11.751455    1.803024    3.588861
    127          1           0      -12.216039    0.091238    3.586383
    128          1           0      -13.991094    0.166822    1.306537
    129          1           0      -12.852386   -0.636906    0.249924
    130          1           0      -13.620366    0.952533   -1.411681
    131          1           0      -12.786798    2.186268   -0.509738
    132          1           0      -14.752745    3.065446    0.498424
    133          1           0      -15.514743    1.476199    0.462425
    134          1           0      -16.540397    3.458763   -0.890669
    135          1           0      -17.759261    1.943961   -1.368388
    136          1           0      -16.550555    0.631273   -1.346031
    137          1           0      -16.931631    1.463925   -2.787879
    138          1           0      -14.032846    3.440434   -1.979123
    139          1           0      -15.391655    4.282388   -2.768636
    140          1           0      -14.949393    2.555357   -3.164306
 ---------------------------------------------------------------------

 SCF Done:  E(RCAM-B3LYP) =  -3007.17390786     A.U. after   17 cycles

 Excitation energies and oscillator strengths:

 Excited State   1:      Singlet-A      1.7749 eV  698.56 nm  f=0.3718  <S**2>=0.000
     245 -> 248        0.15252
     246 -> 247        0.69045
 This state for optimization and/or second-order correction.
 Total Energy, E(TD-HF/TD-DFT) =  -3007.10868321
 Copying the excited state density for this state as the 1-particle RhoCI density.

 Excited State   2:      Singlet-A      2.1971 eV  564.31 nm  f=0.1460  <S**2>=0.000
     245 -> 247        0.65354
     246 -> 248       -0.23576

 Excited State   3:      Singlet-A      3.2913 eV  376.70 nm  f=0.0152  <S**2>=0.000
     240 -> 247       -0.18951
     241 -> 247       -0.42150
     242 -> 247       -0.17370
     244 -> 247        0.45472
     246 -> 248       -0.18524

 Excited State   4:      Singlet-A      3.4022 eV  364.42 nm  f=0.0119  <S**2>=0.000
     240 -> 247        0.23651
     241 -> 247        0.27181
     242 -> 247        0.10018
     244 -> 247        0.50743
     246 -> 248        0.28905

 Excited State   5:      Singlet-A      3.6401 eV  340.61 nm  f=0.3228  <S**2>=0.000
     240 -> 247        0.10681
     242 -> 247        0.42313
     242 -> 249        0.20951
     242 -> 251        0.16284
     245 -> 247       -0.19078
     246 -> 248       -0.40223

 The electronic state is 1-A.
 Alpha  occ. eigenvalues --  -46.89296 -19.25495 -19.22774 -19.20234 -19.19433
 Alpha  occ. eigenvalues --  -19.18240 -19.18104 -14.41798 -14.41468 -14.39584
 Alpha  occ. eigenvalues --  -14.38127 -10.39480 -10.37791 -10.36279 -10.34480
 Alpha  occ. eigenvalues --  -10.32789 -10.31461 -10.31116 -10.30972 -10.30964
 Alpha  occ. eigenvalues --  -10.30267 -10.30018 -10.29936 -10.29147 -10.28163
 Alpha  occ. eigenvalues --  -10.27929 -10.27846 -10.27740 -10.27695 -10.27632
 Alpha  occ. eigenvalues --  -10.27615 -10.27611 -10.27569 -10.27501 -10.27462
 Alpha  occ. eigenvalues --  -10.27124 -10.27045 -10.26832 -10.26752 -10.26405
 Alpha  occ. eigenvalues --  -10.26315 -10.26273 -10.26261 -10.26230 -10.26124
 Alpha  occ. eigenvalues --  -10.26109 -10.25985 -10.25941 -10.25859 -10.25859
 Alpha  occ. eigenvalues --  -10.25858 -10.25781 -10.25504 -10.25427 -10.25344
 Alpha  occ. eigenvalues --  -10.25286 -10.25155 -10.25042 -10.24959 -10.24934
 Alpha  occ. eigenvalues --  -10.24886 -10.24823 -10.24428 -10.24102 -10.23718
 Alpha  occ. eigenvalues --  -10.23697  -3.17615  -1.92513  -1.92076  -1.91897
 Alpha  occ. eigenvalues --   -1.16930  -1.14076  -1.10900  -1.08507  -1.07162
 Alpha  occ. eigenvalues --   -1.05117  -1.04025  -1.03650  -1.02553  -1.02044
 Alpha  occ. eigenvalues --   -0.91732  -0.90671  -0.89826  -0.89433  -0.88856
 Alpha  occ. eigenvalues --   -0.88799  -0.88237  -0.87637  -0.87495  -0.86642
 Alpha  occ. eigenvalues --   -0.85591  -0.85042  -0.84460  -0.83972  -0.82950
 Alpha  occ. eigenvalues --   -0.82600  -0.82304  -0.81244  -0.80654  -0.80106
 Alpha  occ. eigenvalues --   -0.79962  -0.78373  -0.77440  -0.76472  -0.76139
 Alpha  occ. eigenvalues --   -0.75788  -0.74991  -0.74891  -0.74735  -0.74269
 Alpha  occ. eigenvalues --   -0.73031  -0.72321  -0.71296  -0.70721  -0.69821
 Alpha  occ. eigenvalues --   -0.68767  -0.68241  -0.67729  -0.66687  -0.65613
 Alpha  occ. eigenvalues --   -0.65457  -0.64765  -0.64569  -0.64122  -0.63990
 Alpha  occ. eigenvalues --   -0.63548  -0.62548  -0.61504  -0.60448  -0.60122
 Alpha  occ. eigenvalues --   -0.59727  -0.59115  -0.58619  -0.57854  -0.57474
 Alpha  occ. eigenvalues --   -0.56838  -0.56068  -0.55848  -0.55361  -0.55293
 Alpha  occ. eigenvalues --   -0.55101  -0.54764  -0.54661  -0.54522  -0.54344
 Alpha  occ. eigenvalues --   -0.53967  -0.53873  -0.53709  -0.52966  -0.52571
 Alpha  occ. eigenvalues --   -0.52401  -0.52162  -0.51943  -0.51821  -0.51514
 Alpha  occ. eigenvalues --   -0.51436  -0.51140  -0.51017  -0.50572  -0.50468
 Alpha  occ. eigenvalues --   -0.50276  -0.50140  -0.49926  -0.49860  -0.49443
 Alpha  occ. eigenvalues --   -0.49370  -0.49120  -0.49041  -0.48975  -0.48832
 Alpha  occ. eigenvalues --   -0.48459  -0.48071  -0.47948  -0.47881  -0.47815
 Alpha  occ. eigenvalues --   -0.47561  -0.47333  -0.46965  -0.46665  -0.46376
 Alpha  occ. eigenvalues --   -0.46156  -0.46079  -0.46007  -0.45891  -0.45623
 Alpha  occ. eigenvalues --   -0.45273  -0.45147  -0.44931  -0.44810  -0.44614
 Alpha  occ. eigenvalues --   -0.44539  -0.44325  -0.44036  -0.43960  -0.43839
 Alpha  occ. eigenvalues --   -0.43528  -0.43393  -0.43208  -0.43153  -0.42938
 Alpha  occ. eigenvalues --   -0.42856  -0.42699  -0.42430  -0.42259  -0.41917
 Alpha  occ. eigenvalues --   -0.41734  -0.41625  -0.41508  -0.40842  -0.40728
 Alpha  occ. eigenvalues --   -0.40681  -0.40437  -0.40204  -0.39819  -0.39785
 Alpha  occ. eigenvalues --   -0.39627  -0.39536  -0.39203  -0.39129  -0.38671
 Alpha  occ. eigenvalues --   -0.38326  -0.37992  -0.37849  -0.37618  -0.37185
 Alpha  occ. eigenvalues --   -0.37117  -0.37055  -0.36878  -0.36396  -0.36292
 Alpha  occ. eigenvalues --   -0.35751  -0.35164  -0.35062  -0.34774  -0.33882
 Alpha  occ. eigenvalues --   -0.33386  -0.32819  -0.32564  -0.32276  -0.31348
 Alpha  occ. eigenvalues --   -0.30200  -0.29679  -0.29086  -0.28344  -0.23926
 Alpha  occ. eigenvalues --   -0.21193
 Alpha virt. eigenvalues --   -0.08668  -0.01241   0.00248   0.02146   0.02608
 Alpha virt. eigenvalues --    0.04212   0.04885   0.06287   0.06542   0.07284
 Alpha virt. eigenvalues --    0.08067   0.08169   0.08975   0.09065   0.09415

 Mulliken charges:
               1
     1  Mg   0.795484
     2  C    0.037803
     3  C   -0.088194
     4  C   -0.067604
     5  C   -0.056771
     6  N   -0.242518
     7  C   -0.084853
     8  C   -0.026952
     9  C   -0.110698
    10  C    0.059529
    11  C    0.067953
    12  C    0.119087
    13  C    0.056768
    14  C    0.128731
    15  O   -0.237551
    16  O   -0.327752
    17  N   -0.377849
    18  C    0.147912
    19  C   -0.162511
    20  C   -0.038654
    21  C    0.103006
    22  C    0.125853
    23  C    0.008315
    24  O   -0.193910
    25  C    0.058124
    26  N   -0.281413
    27  C    0.040719
    28  C   -0.072472
    29  C    0.010169
    30  C    0.042084
    31  C    0.083121
    32  C    0.045430
    33  C    0.006889
    34  N   -0.359405
    35  C    0.055348
    36  C   -0.171548
    37  C   -0.007417
    38  C    0.122267
    39  C    0.116613
    40  C    0.050935
    41  O   -0.167758
    42  C   -0.094442
    43  C    0.230331
    44  O   -0.242549
    45  O   -0.339688
    46  C    0.186520
    47  C    0.314885
    48  C   -0.131651
    49  C   -0.164830
    50  C    0.061849
    51  C    0.048571
    52  C    0.018080
    53  C    0.018110
    54  C   -0.136506
    55  C    0.062427
    56  C    0.050478
    57  C    0.062354
    58  C   -0.001426
    59  C   -0.157339
    60  C    0.039424
    61  C    0.086615
    62  C    0.004690
    63  C    0.012999
    64  C   -0.145840
    65  C    0.032595
    66  C    0.071178
    67  H   -0.023016
    68  H    0.000964
    69  H   -0.020153
    70  H    0.056664
    71  H    0.014638
    72  H    0.018317
    73  H    0.014369
    74  H    0.031382
    75  H    0.005836
    76  H    0.021614
    77  H    0.020125
    78  H    0.032378
    79  H    0.028000
    80  H    0.042198
    81  H    0.003714
    82  H    0.063314
    83  H    0.032599
    84  H    0.044342
    85  H    0.007574
    86  H   -0.000827
    87  H    0.023474
    88  H    0.004341
    89  H    0.028865
    90  H   -0.002737
    91  H   -0.000688
    92  H    0.026276
    93  H    0.013537
    94  H    0.028725
    95  H    0.034509
    96  H    0.017781
    97  H    0.018342
    98  H    0.044899
    99  H    0.048064
   100  H    0.051310
   101  H    0.034103
   102  H    0.024965
   103  H    0.057662
   104  H   -0.004214
   105  H    0.001379
   106  H    0.026907
   107  H    0.018896
   108  H   -0.013613
   109  H    0.019760
   110  H   -0.002153
   111  H    0.008673
   112  H    0.006783
   113  H   -0.004731
   114  H   -0.004732
   115  H    0.010649
   116  H    0.012258
   117  H    0.004758
   118  H   -0.009539
   119  H   -0.016691
   120  H   -0.001384
   121  H   -0.002976
   122  H   -0.006415
   123  H   -0.005161
   124  H   -0.009503
   125  H    0.004128
   126  H    0.012653
   127  H    0.001394
   128  H   -0.004750
   129  H   -0.000539
   130  H    0.000319
   131  H    0.014508
   132  H   -0.000412
   133  H   -0.008054
   134  H   -0.006148
   135  H    0.001462
   136  H    0.005335
   137  H   -0.002924
   138  H   -0.005994
   139  H    0.017046
   140  H    0.002422
 Sum of Mulliken charges =  -0.00000

 Dipole moment (field-independent basis, Debye):
    X=             -5.6931    Y=              3.9836    Z=              1.7128  Tot=              7.1564
 Quadrupole moment (field-independent basis, Debye-Ang):
   XX=           -402.4002   YY=           -414.8727   ZZ=           -403.6679
   XY=             31.1994   XZ=              7.4188   YZ=             -1.7550

 Normal termination of Gaussian 16 at Sat Apr 30 00:21:41 2022.
