 Gaussian 16, Revision A.03,
 Gaussian 16:  ES64L-G16RevA.03 25-Dec-2016

 ---------------------------------
 #p PBE1PBE/Def2SVP td=(nstates=5)
 ---------------------------------

 ----------------------------------------------------
 step_51_chromophore_18 TDDFT with PBE1PBE functional
 ----------------------------------------------------
 Symbolic Z-matrix:
 Charge =  0 Multiplicity = 1

                         Standard orientation:
 ---------------------------------------------------------------------
 Center     Atomic      Atomic             Coordinates (Angstroms)
 Number     Number       Type             X           Y           Z
 ---------------------------------------------------------------------
      1         12           0        5.123354    1.140570    0.300091
      2          6           0        4.531283   -2.267116    0.335760
      3          6           0        1.563359    1.618707    0.012641
      4          6           0        5.574580    4.501977   -0.185617
      5          6           0        8.540690    0.602515    0.019847
      6          7           0        3.242594   -0.178828    0.123894
      7          6           0        3.356002   -1.573420    0.417618
      8          6           0        1.912941   -2.076780    0.647700
      9          6           0        1.046204   -0.780989    0.594389
     10          6           0        2.059473    0.308380    0.200060
     11          6           0       -0.269248   -0.895844   -0.269727
     12          6           0        1.785988   -2.918674    1.974903
     13          6           0        1.126667   -4.253691    1.762784
     14          6           0        0.309989   -4.534061    0.466325
     15          8           0        0.732750   -4.993202   -0.587237
     16          8           0       -1.010291   -4.322424    0.622853
     17          7           0        3.758908    2.844733    0.066094
     18          6           0        2.361798    2.821296   -0.090961
     19          6           0        1.971045    4.177216   -0.249285
     20          6           0        3.050204    5.066068   -0.246257
     21          6           0        4.199372    4.148683   -0.126082
     22          6           0        0.526364    4.415068   -0.552133
     23          6           0        3.196620    6.581002   -0.324984
     24          8           0        4.271726    7.172500   -0.223441
     25          6           0        1.940365    7.292223   -0.620128
     26          7           0        6.809937    2.340844   -0.220283
     27          6           0        6.753473    3.682509   -0.197365
     28          6           0        8.123341    4.321941   -0.466536
     29          6           0        9.053841    3.163948   -0.197196
     30          6           0        8.096031    1.908534   -0.088991
     31          6           0        8.307507    5.115066   -1.806783
     32          6           0       10.050218    3.368017    0.983524
     33          6           0        9.514634    3.030438    2.430903
     34          7           0        6.366467   -0.490424    0.132798
     35          6           0        7.717964   -0.579775    0.040148
     36          6           0        8.100424   -1.938637   -0.033365
     37          6           0        6.874096   -2.667893    0.108082
     38          6           0        5.841114   -1.740962    0.158024
     39          6           0        9.483566   -2.472763   -0.393504
     40          6           0        6.337063   -4.020611    0.259735
     41          8           0        6.913150   -5.101845    0.214529
     42          6           0        4.732387   -3.791938    0.358293
     43          6           0        4.149792   -4.405800   -0.887648
     44          8           0        3.671198   -3.832671   -1.874673
     45          8           0        4.070569   -5.751755   -0.702258
     46          6           0        3.691784   -6.545851   -1.906515
     47          6           0       -1.937368   -4.634324   -0.506522
     48          6           0       -3.015949   -3.641043   -0.493827
     49          6           0       -4.277323   -3.576636   -1.072863
     50          6           0       -4.941010   -4.737530   -1.841786
     51          6           0       -4.902881   -2.217860   -1.178466
     52          6           0       -5.266491   -1.474386    0.154651
     53          6           0       -6.319149   -0.387713   -0.047967
     54          6           0       -7.437891   -0.435410    1.051345
     55          6           0       -6.835131   -0.161250    2.456127
     56          6           0       -8.573752    0.505979    0.494610
     57          6           0       -9.879789   -0.220410    0.256928
     58          6           0      -10.717801   -0.200419    1.565732
     59          6           0      -11.928239    0.802625    1.582252
     60          6           0      -12.326928    1.040646    3.063778
     61          6           0      -13.131447    0.334777    0.658118
     62          6           0      -13.553858    1.417222   -0.427942
     63          6           0      -14.913035    2.177935   -0.113919
     64          6           0      -15.842804    2.707215   -1.261545
     65          6           0      -16.777134    1.629290   -1.721945
     66          6           0      -15.033406    3.323675   -2.395364
     67          1           0        0.474752    1.700603    0.047366
     68          1           0        5.766488    5.575579   -0.240474
     69          1           0        9.569882    0.360064   -0.252476
     70          1           0        1.844812   -2.673750   -0.261321
     71          1           0        0.677625   -0.497148    1.579893
     72          1           0       -0.164814   -0.283159   -1.165374
     73          1           0       -1.148851   -0.501802    0.238992
     74          1           0       -0.336705   -1.965668   -0.462045
     75          1           0        1.159051   -2.343412    2.655194
     76          1           0        2.746794   -3.134434    2.440467
     77          1           0        0.451401   -4.502690    2.580911
     78          1           0        1.863423   -5.057471    1.758992
     79          1           0       -0.009567    4.563399    0.384377
     80          1           0        0.181967    3.535455   -1.095679
     81          1           0        0.499359    5.377908   -1.063377
     82          1           0        1.748145    6.895443   -1.617688
     83          1           0        2.187487    8.353058   -0.584771
     84          1           0        1.245694    7.019805    0.173916
     85          1           0        8.227251    5.098589    0.292322
     86          1           0        9.552281    2.964984   -1.146025
     87          1           0        7.344116    5.057022   -2.313562
     88          1           0        8.983636    4.596669   -2.486298
     89          1           0        8.722416    6.106299   -1.624141
     90          1           0       10.395536    4.400536    0.959317
     91          1           0       10.972625    2.887632    0.657032
     92          1           0        8.569849    2.491001    2.500722
     93          1           0        9.252103    3.961606    2.932987
     94          1           0       10.298505    2.468879    2.938360
     95          1           0        9.342003   -3.508489   -0.704020
     96          1           0       10.195790   -2.437766    0.431508
     97          1           0        9.890089   -1.846876   -1.188348
     98          1           0        4.341441   -4.316469    1.230664
     99          1           0        4.282738   -6.141400   -2.729020
    100          1           0        2.608338   -6.500114   -2.012032
    101          1           0        3.975606   -7.531159   -1.539008
    102          1           0       -2.290091   -5.650080   -0.324933
    103          1           0       -1.567041   -4.682064   -1.530402
    104          1           0       -2.760560   -2.629353   -0.176126
    105          1           0       -4.426929   -5.699031   -1.850109
    106          1           0       -5.140259   -4.590037   -2.902838
    107          1           0       -5.899031   -4.900382   -1.349477
    108          1           0       -5.876636   -2.288569   -1.661959
    109          1           0       -4.298629   -1.534257   -1.774064
    110          1           0       -4.287246   -1.075938    0.419065
    111          1           0       -5.566847   -2.182244    0.927339
    112          1           0       -6.766418   -0.399539   -1.041953
    113          1           0       -5.833703    0.577780    0.090742
    114          1           0       -7.849563   -1.444090    1.018055
    115          1           0       -5.747245   -0.094096    2.432796
    116          1           0       -7.121181   -0.924397    3.180200
    117          1           0       -7.196717    0.785054    2.857588
    118          1           0       -8.172068    0.985709   -0.397823
    119          1           0       -8.872560    1.319060    1.156044
    120          1           0       -9.723761   -1.256967   -0.040196
    121          1           0      -10.443319    0.378158   -0.458632
    122          1           0      -10.069115    0.140954    2.373174
    123          1           0      -11.143823   -1.159143    1.863993
    124          1           0      -11.556883    1.800338    1.352287
    125          1           0      -13.375964    1.336746    3.042635
    126          1           0      -11.751455    1.803024    3.588861
    127          1           0      -12.216039    0.091238    3.586383
    128          1           0      -13.991094    0.166822    1.306537
    129          1           0      -12.852386   -0.636906    0.249924
    130          1           0      -13.620366    0.952533   -1.411681
    131          1           0      -12.786798    2.186268   -0.509738
    132          1           0      -14.752745    3.065446    0.498424
    133          1           0      -15.514743    1.476199    0.462425
    134          1           0      -16.540397    3.458763   -0.890669
    135          1           0      -17.759261    1.943961   -1.368388
    136          1           0      -16.550555    0.631273   -1.346031
    137          1           0      -16.931631    1.463925   -2.787879
    138          1           0      -14.032846    3.440434   -1.979123
    139          1           0      -15.391655    4.282388   -2.768636
    140          1           0      -14.949393    2.555357   -3.164306
 ---------------------------------------------------------------------

 SCF Done:  E(RPBE1PBE) =  -3005.36082147     A.U. after   16 cycles

 Excitation energies and oscillator strengths:

 Excited State   1:      Singlet-A      1.8360 eV  675.28 nm  f=0.3605  <S**2>=0.000
     245 -> 248        0.15278
     246 -> 247        0.69574
     246 <- 247       -0.10657
 This state for optimization and/or second-order correction.
 Total Energy, E(TD-HF/TD-DFT) =  -3005.29334837
 Copying the excited state density for this state as the 1-particle RhoCI density.

 Excited State   2:      Singlet-A      2.1827 eV  568.03 nm  f=0.1285  <S**2>=0.000
     245 -> 247        0.66294
     246 -> 248       -0.21857

 Excited State   3:      Singlet-A      2.8898 eV  429.04 nm  f=0.0042  <S**2>=0.000
     241 -> 247       -0.10863
     243 -> 247        0.60891
     244 -> 247       -0.33176

 Excited State   4:      Singlet-A      3.0054 eV  412.54 nm  f=0.0005  <S**2>=0.000
     242 -> 247        0.68007
     242 -> 249        0.13670

 Excited State   5:      Singlet-A      3.1261 eV  396.60 nm  f=0.0009  <S**2>=0.000
     240 -> 247       -0.20934
     241 -> 247        0.61064
     246 -> 248        0.23645

 The electronic state is 1-A.
 Alpha  occ. eigenvalues --  -46.92684 -19.26205 -19.23592 -19.20048 -19.19760
 Alpha  occ. eigenvalues --  -19.18909 -19.18530 -14.41313 -14.40940 -14.39081
 Alpha  occ. eigenvalues --  -14.38100 -10.36594 -10.34975 -10.32991 -10.32034
 Alpha  occ. eigenvalues --  -10.30198 -10.28791 -10.28445 -10.28368 -10.28138
 Alpha  occ. eigenvalues --  -10.28090 -10.28064 -10.27288 -10.26143 -10.26056
 Alpha  occ. eigenvalues --  -10.26044 -10.25714 -10.25523 -10.25509 -10.25464
 Alpha  occ. eigenvalues --  -10.25460 -10.25319 -10.25147 -10.25108 -10.25075
 Alpha  occ. eigenvalues --  -10.24655 -10.24521 -10.24394 -10.24153 -10.24101
 Alpha  occ. eigenvalues --  -10.24015 -10.23994 -10.23979 -10.23821 -10.23693
 Alpha  occ. eigenvalues --  -10.23653 -10.23624 -10.23569 -10.23488 -10.23410
 Alpha  occ. eigenvalues --  -10.23357 -10.23242 -10.22985 -10.22981 -10.22968
 Alpha  occ. eigenvalues --  -10.22857 -10.22788 -10.22714 -10.22470 -10.22448
 Alpha  occ. eigenvalues --  -10.22406 -10.22382 -10.22015 -10.21815 -10.21453
 Alpha  occ. eigenvalues --  -10.21072  -3.14590  -1.87427  -1.86969  -1.86795
 Alpha  occ. eigenvalues --   -1.11787  -1.09003  -1.05221  -1.03660  -1.02067
 Alpha  occ. eigenvalues --   -1.00097  -0.98688  -0.98228  -0.97538  -0.96376
 Alpha  occ. eigenvalues --   -0.86339  -0.84776  -0.84008  -0.83595  -0.82885
 Alpha  occ. eigenvalues --   -0.82728  -0.82496  -0.81740  -0.81587  -0.80995
 Alpha  occ. eigenvalues --   -0.79810  -0.79581  -0.78735  -0.78049  -0.77156
 Alpha  occ. eigenvalues --   -0.76977  -0.76518  -0.75393  -0.74975  -0.74384
 Alpha  occ. eigenvalues --   -0.74238  -0.72472  -0.71786  -0.70789  -0.70289
 Alpha  occ. eigenvalues --   -0.69851  -0.69456  -0.69181  -0.68940  -0.68424
 Alpha  occ. eigenvalues --   -0.67387  -0.66852  -0.65647  -0.65053  -0.64188
 Alpha  occ. eigenvalues --   -0.62978  -0.62648  -0.61904  -0.61203  -0.59984
 Alpha  occ. eigenvalues --   -0.59663  -0.59298  -0.59071  -0.58596  -0.58198
 Alpha  occ. eigenvalues --   -0.58174  -0.56688  -0.55735  -0.54971  -0.54640
 Alpha  occ. eigenvalues --   -0.54091  -0.53712  -0.53145  -0.52555  -0.52132
 Alpha  occ. eigenvalues --   -0.51380  -0.50612  -0.50318  -0.49903  -0.49796
 Alpha  occ. eigenvalues --   -0.49664  -0.49248  -0.48878  -0.48849  -0.48717
 Alpha  occ. eigenvalues --   -0.48375  -0.48251  -0.48183  -0.47546  -0.47113
 Alpha  occ. eigenvalues --   -0.46996  -0.46832  -0.46711  -0.46423  -0.46090
 Alpha  occ. eigenvalues --   -0.45869  -0.45618  -0.45417  -0.45080  -0.44999
 Alpha  occ. eigenvalues --   -0.44946  -0.44617  -0.44400  -0.44123  -0.44027
 Alpha  occ. eigenvalues --   -0.43991  -0.43792  -0.43648  -0.43578  -0.43437
 Alpha  occ. eigenvalues --   -0.43097  -0.42914  -0.42596  -0.42579  -0.42400
 Alpha  occ. eigenvalues --   -0.42235  -0.42017  -0.41498  -0.41236  -0.41076
 Alpha  occ. eigenvalues --   -0.40970  -0.40685  -0.40569  -0.40525  -0.40304
 Alpha  occ. eigenvalues --   -0.40174  -0.39904  -0.39673  -0.39481  -0.39457
 Alpha  occ. eigenvalues --   -0.39296  -0.38974  -0.38896  -0.38708  -0.38614
 Alpha  occ. eigenvalues --   -0.38346  -0.38263  -0.37950  -0.37826  -0.37795
 Alpha  occ. eigenvalues --   -0.37618  -0.37482  -0.37217  -0.37105  -0.36798
 Alpha  occ. eigenvalues --   -0.36595  -0.36422  -0.36306  -0.35752  -0.35538
 Alpha  occ. eigenvalues --   -0.35448  -0.35368  -0.34974  -0.34859  -0.34570
 Alpha  occ. eigenvalues --   -0.34490  -0.34464  -0.34182  -0.33901  -0.33442
 Alpha  occ. eigenvalues --   -0.33138  -0.32898  -0.32653  -0.32428  -0.32137
 Alpha  occ. eigenvalues --   -0.32067  -0.32001  -0.31740  -0.31435  -0.31222
 Alpha  occ. eigenvalues --   -0.30617  -0.30173  -0.30096  -0.29843  -0.28777
 Alpha  occ. eigenvalues --   -0.28576  -0.28421  -0.27509  -0.26962  -0.26503
 Alpha  occ. eigenvalues --   -0.25654  -0.25032  -0.24433  -0.24420  -0.20750
 Alpha  occ. eigenvalues --   -0.18708
 Alpha virt. eigenvalues --   -0.11184  -0.04883  -0.03881  -0.01823  -0.00680
 Alpha virt. eigenvalues --   -0.00145   0.00281   0.01846   0.02044   0.03305
 Alpha virt. eigenvalues --    0.04337   0.04815   0.05469   0.05791   0.05872

 Mulliken charges:
               1
     1  Mg   0.934466
     2  C    0.011823
     3  C   -0.075739
     4  C   -0.055926
     5  C   -0.042767
     6  N   -0.351815
     7  C   -0.008580
     8  C   -0.110387
     9  C   -0.177400
    10  C    0.103164
    11  C   -0.001640
    12  C    0.064610
    13  C   -0.011404
    14  C    0.190090
    15  O   -0.270335
    16  O   -0.357432
    17  N   -0.480736
    18  C    0.173983
    19  C   -0.200070
    20  C   -0.082285
    21  C    0.133381
    22  C    0.061760
    23  C    0.059140
    24  O   -0.237264
    25  C   -0.020750
    26  N   -0.384169
    27  C    0.066078
    28  C   -0.136914
    29  C   -0.065692
    30  C    0.074306
    31  C    0.023600
    32  C   -0.018875
    33  C   -0.065742
    34  N   -0.489205
    35  C    0.084735
    36  C   -0.182142
    37  C   -0.059448
    38  C    0.185762
    39  C    0.058478
    40  C    0.143766
    41  O   -0.209464
    42  C   -0.192601
    43  C    0.318618
    44  O   -0.274202
    45  O   -0.370933
    46  C    0.130965
    47  C    0.271278
    48  C   -0.146381
    49  C   -0.206974
    50  C    0.001475
    51  C   -0.019977
    52  C   -0.044419
    53  C   -0.041597
    54  C   -0.215256
    55  C    0.002540
    56  C   -0.005972
    57  C   -0.006028
    58  C   -0.059195
    59  C   -0.235825
    60  C   -0.022473
    61  C    0.032471
    62  C   -0.060262
    63  C   -0.044742
    64  C   -0.235350
    65  C   -0.025314
    66  C    0.006067
    67  H    0.007615
    68  H    0.032679
    69  H    0.011042
    70  H    0.097592
    71  H    0.052054
    72  H    0.046552
    73  H    0.041028
    74  H    0.066386
    75  H    0.038905
    76  H    0.053340
    77  H    0.052566
    78  H    0.064030
    79  H    0.055386
    80  H    0.066561
    81  H    0.032666
    82  H    0.089470
    83  H    0.058901
    84  H    0.072083
    85  H    0.045897
    86  H    0.037777
    87  H    0.052198
    88  H    0.030672
    89  H    0.054564
    90  H    0.031573
    91  H    0.030503
    92  H    0.055346
    93  H    0.041712
    94  H    0.055682
    95  H    0.064234
    96  H    0.048608
    97  H    0.047562
    98  H    0.081973
    99  H    0.069327
   100  H    0.075000
   101  H    0.056169
   102  H    0.051825
   103  H    0.082678
   104  H    0.031490
   105  H    0.028120
   106  H    0.053591
   107  H    0.047333
   108  H    0.020607
   109  H    0.053195
   110  H    0.031675
   111  H    0.041025
   112  H    0.037786
   113  H    0.030498
   114  H    0.033245
   115  H    0.037969
   116  H    0.039391
   117  H    0.032095
   118  H    0.022808
   119  H    0.017087
   120  H    0.030577
   121  H    0.033189
   122  H    0.028897
   123  H    0.027231
   124  H    0.028507
   125  H    0.032839
   126  H    0.040026
   127  H    0.029446
   128  H    0.027047
   129  H    0.031452
   130  H    0.033300
   131  H    0.044707
   132  H    0.033011
   133  H    0.024709
   134  H    0.031864
   135  H    0.028860
   136  H    0.032367
   137  H    0.024185
   138  H    0.024505
   139  H    0.044525
   140  H    0.029812
 Sum of Mulliken charges =  -0.00000

 Dipole moment (field-independent basis, Debye):
    X=             -5.0090    Y=              3.0604    Z=              1.7517  Tot=              6.1257
 Quadrupole moment (field-independent basis, Debye-Ang):
   XX=           -390.0675   YY=           -414.1634   ZZ=           -401.2864
   XY=             27.9384   XZ=              7.2891   YZ=             -1.3554

 Normal termination of Gaussian 16 at Sat Apr 30 00:43:43 2022.
