 Gaussian 16, Revision A.03,
 Gaussian 16:  ES64L-G16RevA.03 25-Dec-2016

 --------------------------------
 #p wB97XD/Def2SVP td=(nstates=5)
 --------------------------------

 ---------------------------------------------------
 step_51_chromophore_18 TDDFT with wB97XD functional
 ---------------------------------------------------
 Symbolic Z-matrix:
 Charge =  0 Multiplicity = 1

                         Standard orientation:
 ---------------------------------------------------------------------
 Center     Atomic      Atomic             Coordinates (Angstroms)
 Number     Number       Type             X           Y           Z
 ---------------------------------------------------------------------
      1         12           0        5.123354    1.140570    0.300091
      2          6           0        4.531283   -2.267116    0.335760
      3          6           0        1.563359    1.618707    0.012641
      4          6           0        5.574580    4.501977   -0.185617
      5          6           0        8.540690    0.602515    0.019847
      6          7           0        3.242594   -0.178828    0.123894
      7          6           0        3.356002   -1.573420    0.417618
      8          6           0        1.912941   -2.076780    0.647700
      9          6           0        1.046204   -0.780989    0.594389
     10          6           0        2.059473    0.308380    0.200060
     11          6           0       -0.269248   -0.895844   -0.269727
     12          6           0        1.785988   -2.918674    1.974903
     13          6           0        1.126667   -4.253691    1.762784
     14          6           0        0.309989   -4.534061    0.466325
     15          8           0        0.732750   -4.993202   -0.587237
     16          8           0       -1.010291   -4.322424    0.622853
     17          7           0        3.758908    2.844733    0.066094
     18          6           0        2.361798    2.821296   -0.090961
     19          6           0        1.971045    4.177216   -0.249285
     20          6           0        3.050204    5.066068   -0.246257
     21          6           0        4.199372    4.148683   -0.126082
     22          6           0        0.526364    4.415068   -0.552133
     23          6           0        3.196620    6.581002   -0.324984
     24          8           0        4.271726    7.172500   -0.223441
     25          6           0        1.940365    7.292223   -0.620128
     26          7           0        6.809937    2.340844   -0.220283
     27          6           0        6.753473    3.682509   -0.197365
     28          6           0        8.123341    4.321941   -0.466536
     29          6           0        9.053841    3.163948   -0.197196
     30          6           0        8.096031    1.908534   -0.088991
     31          6           0        8.307507    5.115066   -1.806783
     32          6           0       10.050218    3.368017    0.983524
     33          6           0        9.514634    3.030438    2.430903
     34          7           0        6.366467   -0.490424    0.132798
     35          6           0        7.717964   -0.579775    0.040148
     36          6           0        8.100424   -1.938637   -0.033365
     37          6           0        6.874096   -2.667893    0.108082
     38          6           0        5.841114   -1.740962    0.158024
     39          6           0        9.483566   -2.472763   -0.393504
     40          6           0        6.337063   -4.020611    0.259735
     41          8           0        6.913150   -5.101845    0.214529
     42          6           0        4.732387   -3.791938    0.358293
     43          6           0        4.149792   -4.405800   -0.887648
     44          8           0        3.671198   -3.832671   -1.874673
     45          8           0        4.070569   -5.751755   -0.702258
     46          6           0        3.691784   -6.545851   -1.906515
     47          6           0       -1.937368   -4.634324   -0.506522
     48          6           0       -3.015949   -3.641043   -0.493827
     49          6           0       -4.277323   -3.576636   -1.072863
     50          6           0       -4.941010   -4.737530   -1.841786
     51          6           0       -4.902881   -2.217860   -1.178466
     52          6           0       -5.266491   -1.474386    0.154651
     53          6           0       -6.319149   -0.387713   -0.047967
     54          6           0       -7.437891   -0.435410    1.051345
     55          6           0       -6.835131   -0.161250    2.456127
     56          6           0       -8.573752    0.505979    0.494610
     57          6           0       -9.879789   -0.220410    0.256928
     58          6           0      -10.717801   -0.200419    1.565732
     59          6           0      -11.928239    0.802625    1.582252
     60          6           0      -12.326928    1.040646    3.063778
     61          6           0      -13.131447    0.334777    0.658118
     62          6           0      -13.553858    1.417222   -0.427942
     63          6           0      -14.913035    2.177935   -0.113919
     64          6           0      -15.842804    2.707215   -1.261545
     65          6           0      -16.777134    1.629290   -1.721945
     66          6           0      -15.033406    3.323675   -2.395364
     67          1           0        0.474752    1.700603    0.047366
     68          1           0        5.766488    5.575579   -0.240474
     69          1           0        9.569882    0.360064   -0.252476
     70          1           0        1.844812   -2.673750   -0.261321
     71          1           0        0.677625   -0.497148    1.579893
     72          1           0       -0.164814   -0.283159   -1.165374
     73          1           0       -1.148851   -0.501802    0.238992
     74          1           0       -0.336705   -1.965668   -0.462045
     75          1           0        1.159051   -2.343412    2.655194
     76          1           0        2.746794   -3.134434    2.440467
     77          1           0        0.451401   -4.502690    2.580911
     78          1           0        1.863423   -5.057471    1.758992
     79          1           0       -0.009567    4.563399    0.384377
     80          1           0        0.181967    3.535455   -1.095679
     81          1           0        0.499359    5.377908   -1.063377
     82          1           0        1.748145    6.895443   -1.617688
     83          1           0        2.187487    8.353058   -0.584771
     84          1           0        1.245694    7.019805    0.173916
     85          1           0        8.227251    5.098589    0.292322
     86          1           0        9.552281    2.964984   -1.146025
     87          1           0        7.344116    5.057022   -2.313562
     88          1           0        8.983636    4.596669   -2.486298
     89          1           0        8.722416    6.106299   -1.624141
     90          1           0       10.395536    4.400536    0.959317
     91          1           0       10.972625    2.887632    0.657032
     92          1           0        8.569849    2.491001    2.500722
     93          1           0        9.252103    3.961606    2.932987
     94          1           0       10.298505    2.468879    2.938360
     95          1           0        9.342003   -3.508489   -0.704020
     96          1           0       10.195790   -2.437766    0.431508
     97          1           0        9.890089   -1.846876   -1.188348
     98          1           0        4.341441   -4.316469    1.230664
     99          1           0        4.282738   -6.141400   -2.729020
    100          1           0        2.608338   -6.500114   -2.012032
    101          1           0        3.975606   -7.531159   -1.539008
    102          1           0       -2.290091   -5.650080   -0.324933
    103          1           0       -1.567041   -4.682064   -1.530402
    104          1           0       -2.760560   -2.629353   -0.176126
    105          1           0       -4.426929   -5.699031   -1.850109
    106          1           0       -5.140259   -4.590037   -2.902838
    107          1           0       -5.899031   -4.900382   -1.349477
    108          1           0       -5.876636   -2.288569   -1.661959
    109          1           0       -4.298629   -1.534257   -1.774064
    110          1           0       -4.287246   -1.075938    0.419065
    111          1           0       -5.566847   -2.182244    0.927339
    112          1           0       -6.766418   -0.399539   -1.041953
    113          1           0       -5.833703    0.577780    0.090742
    114          1           0       -7.849563   -1.444090    1.018055
    115          1           0       -5.747245   -0.094096    2.432796
    116          1           0       -7.121181   -0.924397    3.180200
    117          1           0       -7.196717    0.785054    2.857588
    118          1           0       -8.172068    0.985709   -0.397823
    119          1           0       -8.872560    1.319060    1.156044
    120          1           0       -9.723761   -1.256967   -0.040196
    121          1           0      -10.443319    0.378158   -0.458632
    122          1           0      -10.069115    0.140954    2.373174
    123          1           0      -11.143823   -1.159143    1.863993
    124          1           0      -11.556883    1.800338    1.352287
    125          1           0      -13.375964    1.336746    3.042635
    126          1           0      -11.751455    1.803024    3.588861
    127          1           0      -12.216039    0.091238    3.586383
    128          1           0      -13.991094    0.166822    1.306537
    129          1           0      -12.852386   -0.636906    0.249924
    130          1           0      -13.620366    0.952533   -1.411681
    131          1           0      -12.786798    2.186268   -0.509738
    132          1           0      -14.752745    3.065446    0.498424
    133          1           0      -15.514743    1.476199    0.462425
    134          1           0      -16.540397    3.458763   -0.890669
    135          1           0      -17.759261    1.943961   -1.368388
    136          1           0      -16.550555    0.631273   -1.346031
    137          1           0      -16.931631    1.463925   -2.787879
    138          1           0      -14.032846    3.440434   -1.979123
    139          1           0      -15.391655    4.282388   -2.768636
    140          1           0      -14.949393    2.555357   -3.164306
 ---------------------------------------------------------------------

 SCF Done:  E(RwB97XD) =  -3007.87466419     A.U. after   18 cycles

 Excitation energies and oscillator strengths:

 Excited State   1:      Singlet-A      1.7675 eV  701.46 nm  f=0.3728  <S**2>=0.000
     245 -> 248        0.15331
     246 -> 247        0.68851
 This state for optimization and/or second-order correction.
 Total Energy, E(TD-HF/TD-DFT) =  -3007.80970874
 Copying the excited state density for this state as the 1-particle RhoCI density.

 Excited State   2:      Singlet-A      2.1502 eV  576.62 nm  f=0.1437  <S**2>=0.000
     245 -> 247        0.65050
     246 -> 248       -0.23524

 Excited State   3:      Singlet-A      3.2985 eV  375.88 nm  f=0.0180  <S**2>=0.000
     240 -> 247        0.26961
     241 -> 247        0.50104
     242 -> 247        0.13003
     244 -> 247       -0.27273
     246 -> 248        0.25041

 Excited State   4:      Singlet-A      3.4675 eV  357.56 nm  f=0.0119  <S**2>=0.000
     240 -> 247        0.18959
     244 -> 247        0.60003
     246 -> 248        0.25520

 Excited State   5:      Singlet-A      3.6737 eV  337.49 nm  f=0.2215  <S**2>=0.000
     239 -> 247        0.40768
     239 -> 248       -0.14012
     239 -> 249       -0.22631
     239 -> 250        0.13037
     240 -> 247       -0.28102
     245 -> 247        0.14834
     246 -> 248        0.31222

 The electronic state is 1-A.
 Alpha  occ. eigenvalues --  -46.95628 -19.30706 -19.27929 -19.25352 -19.24326
 Alpha  occ. eigenvalues --  -19.23183 -19.22979 -14.46382 -14.46046 -14.44264
 Alpha  occ. eigenvalues --  -14.42632 -10.43273 -10.41572 -10.40320 -10.38414
 Alpha  occ. eigenvalues --  -10.36680 -10.35598 -10.35193 -10.35181 -10.35166
 Alpha  occ. eigenvalues --  -10.34253 -10.33971 -10.33626 -10.33414 -10.32149
 Alpha  occ. eigenvalues --  -10.32147 -10.31897 -10.31808 -10.31745 -10.31632
 Alpha  occ. eigenvalues --  -10.31583 -10.31557 -10.31521 -10.31489 -10.31366
 Alpha  occ. eigenvalues --  -10.31159 -10.30982 -10.30886 -10.30772 -10.30384
 Alpha  occ. eigenvalues --  -10.30330 -10.30290 -10.30155 -10.30141 -10.30097
 Alpha  occ. eigenvalues --  -10.30080 -10.29946 -10.29891 -10.29860 -10.29821
 Alpha  occ. eigenvalues --  -10.29748 -10.29744 -10.29396 -10.29309 -10.29275
 Alpha  occ. eigenvalues --  -10.29258 -10.29096 -10.28885 -10.28878 -10.28836
 Alpha  occ. eigenvalues --  -10.28770 -10.28709 -10.28268 -10.27912 -10.27618
 Alpha  occ. eigenvalues --  -10.27518  -3.21420  -1.95000  -1.94544  -1.94363
 Alpha  occ. eigenvalues --   -1.19085  -1.16176  -1.13195  -1.10645  -1.09322
 Alpha  occ. eigenvalues --   -1.07237  -1.06025  -1.05659  -1.04565  -1.04127
 Alpha  occ. eigenvalues --   -0.93620  -0.92475  -0.91633  -0.91244  -0.90887
 Alpha  occ. eigenvalues --   -0.90573  -0.90100  -0.89510  -0.89431  -0.88561
 Alpha  occ. eigenvalues --   -0.87479  -0.86940  -0.86304  -0.85919  -0.84842
 Alpha  occ. eigenvalues --   -0.84462  -0.84215  -0.83082  -0.82584  -0.81953
 Alpha  occ. eigenvalues --   -0.81891  -0.80401  -0.79315  -0.78351  -0.77987
 Alpha  occ. eigenvalues --   -0.77568  -0.76879  -0.76803  -0.76638  -0.76117
 Alpha  occ. eigenvalues --   -0.74960  -0.74260  -0.73262  -0.72656  -0.71724
 Alpha  occ. eigenvalues --   -0.70660  -0.70239  -0.69588  -0.68693  -0.67570
 Alpha  occ. eigenvalues --   -0.67346  -0.66777  -0.66506  -0.66018  -0.65888
 Alpha  occ. eigenvalues --   -0.65532  -0.64380  -0.63359  -0.62377  -0.62068
 Alpha  occ. eigenvalues --   -0.61774  -0.61133  -0.60570  -0.59837  -0.59447
 Alpha  occ. eigenvalues --   -0.58706  -0.57972  -0.57782  -0.57336  -0.57209
 Alpha  occ. eigenvalues --   -0.56982  -0.56761  -0.56636  -0.56384  -0.56239
 Alpha  occ. eigenvalues --   -0.55880  -0.55725  -0.55621  -0.54923  -0.54478
 Alpha  occ. eigenvalues --   -0.54316  -0.54050  -0.53872  -0.53711  -0.53454
 Alpha  occ. eigenvalues --   -0.53409  -0.53095  -0.52880  -0.52490  -0.52373
 Alpha  occ. eigenvalues --   -0.52187  -0.52098  -0.51906  -0.51814  -0.51335
 Alpha  occ. eigenvalues --   -0.51265  -0.50994  -0.50917  -0.50852  -0.50769
 Alpha  occ. eigenvalues --   -0.50394  -0.49954  -0.49832  -0.49771  -0.49695
 Alpha  occ. eigenvalues --   -0.49452  -0.49224  -0.48932  -0.48595  -0.48248
 Alpha  occ. eigenvalues --   -0.48042  -0.48001  -0.47861  -0.47799  -0.47507
 Alpha  occ. eigenvalues --   -0.47180  -0.47018  -0.46845  -0.46732  -0.46545
 Alpha  occ. eigenvalues --   -0.46448  -0.46236  -0.45946  -0.45828  -0.45721
 Alpha  occ. eigenvalues --   -0.45422  -0.45329  -0.45148  -0.45083  -0.44967
 Alpha  occ. eigenvalues --   -0.44813  -0.44620  -0.44345  -0.44180  -0.43776
 Alpha  occ. eigenvalues --   -0.43587  -0.43529  -0.43387  -0.42763  -0.42578
 Alpha  occ. eigenvalues --   -0.42551  -0.42317  -0.42074  -0.41723  -0.41636
 Alpha  occ. eigenvalues --   -0.41530  -0.41436  -0.41104  -0.40977  -0.40523
 Alpha  occ. eigenvalues --   -0.40178  -0.39907  -0.39706  -0.39465  -0.39101
 Alpha  occ. eigenvalues --   -0.39050  -0.39032  -0.38744  -0.38401  -0.38248
 Alpha  occ. eigenvalues --   -0.37594  -0.37020  -0.36992  -0.36730  -0.35760
 Alpha  occ. eigenvalues --   -0.35384  -0.35046  -0.34425  -0.34310  -0.33557
 Alpha  occ. eigenvalues --   -0.32411  -0.31595  -0.31143  -0.30405  -0.25893
 Alpha  occ. eigenvalues --   -0.23038
 Alpha virt. eigenvalues --   -0.06985   0.00705   0.02347   0.04719   0.05215
 Alpha virt. eigenvalues --    0.06492   0.07207   0.08778   0.08843   0.09996
 Alpha virt. eigenvalues --    0.10915   0.11177   0.12261   0.12553   0.12641

 Mulliken charges:
               1
     1  Mg   0.927722
     2  C    0.019699
     3  C   -0.101291
     4  C   -0.079944
     5  C   -0.059572
     6  N   -0.314309
     7  C   -0.040552
     8  C   -0.074184
     9  C   -0.157129
    10  C    0.091990
    11  C    0.022451
    12  C    0.074459
    13  C    0.003427
    14  C    0.176068
    15  O   -0.265890
    16  O   -0.355133
    17  N   -0.456291
    18  C    0.172517
    19  C   -0.183210
    20  C   -0.077456
    21  C    0.131301
    22  C    0.075683
    23  C    0.057615
    24  O   -0.227087
    25  C   -0.006987
    26  N   -0.352079
    27  C    0.064575
    28  C   -0.119997
    29  C   -0.037713
    30  C    0.059400
    31  C    0.035404
    32  C   -0.004303
    33  C   -0.047644
    34  N   -0.449929
    35  C    0.068925
    36  C   -0.184098
    37  C   -0.054794
    38  C    0.158076
    39  C    0.070532
    40  C    0.123581
    41  O   -0.203762
    42  C   -0.158712
    43  C    0.293395
    44  O   -0.268940
    45  O   -0.369553
    46  C    0.145859
    47  C    0.283726
    48  C   -0.142878
    49  C   -0.196948
    50  C    0.013538
    51  C    0.004953
    52  C   -0.028807
    53  C   -0.019778
    54  C   -0.190339
    55  C    0.012760
    56  C    0.014189
    57  C    0.011086
    58  C   -0.038603
    59  C   -0.209995
    60  C   -0.007434
    61  C    0.046024
    62  C   -0.043806
    63  C   -0.024696
    64  C   -0.209669
    65  C   -0.016777
    66  C    0.021035
    67  H    0.001870
    68  H    0.028092
    69  H    0.005634
    70  H    0.078762
    71  H    0.040719
    72  H    0.040067
    73  H    0.035659
    74  H    0.049038
    75  H    0.031484
    76  H    0.045768
    77  H    0.047821
    78  H    0.058496
    79  H    0.053888
    80  H    0.063865
    81  H    0.027524
    82  H    0.083365
    83  H    0.059795
    84  H    0.066248
    85  H    0.034510
    86  H    0.026075
    87  H    0.044643
    88  H    0.026347
    89  H    0.051016
    90  H    0.022008
    91  H    0.024340
    92  H    0.046015
    93  H    0.034882
    94  H    0.051204
    95  H    0.058559
    96  H    0.040771
    97  H    0.038834
    98  H    0.072771
    99  H    0.065276
   100  H    0.070805
   101  H    0.052811
   102  H    0.047509
   103  H    0.079185
   104  H    0.014090
   105  H    0.023682
   106  H    0.048773
   107  H    0.040833
   108  H    0.009905
   109  H    0.045304
   110  H    0.020950
   111  H    0.031598
   112  H    0.027316
   113  H    0.019844
   114  H    0.018787
   115  H    0.031352
   116  H    0.034841
   117  H    0.026153
   118  H    0.014270
   119  H    0.004708
   120  H    0.022940
   121  H    0.022634
   122  H    0.014091
   123  H    0.018525
   124  H    0.014488
   125  H    0.024927
   126  H    0.035247
   127  H    0.022156
   128  H    0.016762
   129  H    0.024560
   130  H    0.024887
   131  H    0.034082
   132  H    0.024864
   133  H    0.012868
   134  H    0.022913
   135  H    0.023542
   136  H    0.025769
   137  H    0.018867
   138  H    0.014793
   139  H    0.040834
   140  H    0.022486
 Sum of Mulliken charges =  -0.00000

 Dipole moment (field-independent basis, Debye):
    X=             -5.9162    Y=              4.2875    Z=              1.7124  Tot=              7.5044
 Quadrupole moment (field-independent basis, Debye-Ang):
   XX=           -398.9697   YY=           -409.9766   ZZ=           -400.8192
   XY=             32.4178   XZ=              7.4219   YZ=             -1.7691

 Normal termination of Gaussian 16 at Sat Apr 30 01:10:25 2022.
