 Gaussian 16, Revision A.03,
 Gaussian 16:  ES64L-G16RevA.03 25-Dec-2016

 --------------------
 #p ZINDO=(nstates=5)
 --------------------

 ----------------------------
 step_51_chromophore_18 ZINDO
 ----------------------------
 Symbolic Z-matrix:
 Charge =  0 Multiplicity = 1

                         Standard orientation:
 ---------------------------------------------------------------------
 Center     Atomic      Atomic             Coordinates (Angstroms)
 Number     Number       Type             X           Y           Z
 ---------------------------------------------------------------------
      1         12           0        5.123354    1.140570    0.300091
      2          6           0        4.531283   -2.267116    0.335760
      3          6           0        1.563359    1.618707    0.012641
      4          6           0        5.574580    4.501977   -0.185617
      5          6           0        8.540690    0.602515    0.019847
      6          7           0        3.242594   -0.178828    0.123894
      7          6           0        3.356002   -1.573420    0.417618
      8          6           0        1.912941   -2.076780    0.647700
      9          6           0        1.046204   -0.780989    0.594389
     10          6           0        2.059473    0.308380    0.200060
     11          6           0       -0.269248   -0.895844   -0.269727
     12          6           0        1.785988   -2.918674    1.974903
     13          6           0        1.126667   -4.253691    1.762784
     14          6           0        0.309989   -4.534061    0.466325
     15          8           0        0.732750   -4.993202   -0.587237
     16          8           0       -1.010291   -4.322424    0.622853
     17          7           0        3.758908    2.844733    0.066094
     18          6           0        2.361798    2.821296   -0.090961
     19          6           0        1.971045    4.177216   -0.249285
     20          6           0        3.050204    5.066068   -0.246257
     21          6           0        4.199372    4.148683   -0.126082
     22          6           0        0.526364    4.415068   -0.552133
     23          6           0        3.196620    6.581002   -0.324984
     24          8           0        4.271726    7.172500   -0.223441
     25          6           0        1.940365    7.292223   -0.620128
     26          7           0        6.809937    2.340844   -0.220283
     27          6           0        6.753473    3.682509   -0.197365
     28          6           0        8.123341    4.321941   -0.466536
     29          6           0        9.053841    3.163948   -0.197196
     30          6           0        8.096031    1.908534   -0.088991
     31          6           0        8.307507    5.115066   -1.806783
     32          6           0       10.050218    3.368017    0.983524
     33          6           0        9.514634    3.030438    2.430903
     34          7           0        6.366467   -0.490424    0.132798
     35          6           0        7.717964   -0.579775    0.040148
     36          6           0        8.100424   -1.938637   -0.033365
     37          6           0        6.874096   -2.667893    0.108082
     38          6           0        5.841114   -1.740962    0.158024
     39          6           0        9.483566   -2.472763   -0.393504
     40          6           0        6.337063   -4.020611    0.259735
     41          8           0        6.913150   -5.101845    0.214529
     42          6           0        4.732387   -3.791938    0.358293
     43          6           0        4.149792   -4.405800   -0.887648
     44          8           0        3.671198   -3.832671   -1.874673
     45          8           0        4.070569   -5.751755   -0.702258
     46          6           0        3.691784   -6.545851   -1.906515
     47          6           0       -1.937368   -4.634324   -0.506522
     48          6           0       -3.015949   -3.641043   -0.493827
     49          6           0       -4.277323   -3.576636   -1.072863
     50          6           0       -4.941010   -4.737530   -1.841786
     51          6           0       -4.902881   -2.217860   -1.178466
     52          6           0       -5.266491   -1.474386    0.154651
     53          6           0       -6.319149   -0.387713   -0.047967
     54          6           0       -7.437891   -0.435410    1.051345
     55          6           0       -6.835131   -0.161250    2.456127
     56          6           0       -8.573752    0.505979    0.494610
     57          6           0       -9.879789   -0.220410    0.256928
     58          6           0      -10.717801   -0.200419    1.565732
     59          6           0      -11.928239    0.802625    1.582252
     60          6           0      -12.326928    1.040646    3.063778
     61          6           0      -13.131447    0.334777    0.658118
     62          6           0      -13.553858    1.417222   -0.427942
     63          6           0      -14.913035    2.177935   -0.113919
     64          6           0      -15.842804    2.707215   -1.261545
     65          6           0      -16.777134    1.629290   -1.721945
     66          6           0      -15.033406    3.323675   -2.395364
     67          1           0        0.474752    1.700603    0.047366
     68          1           0        5.766488    5.575579   -0.240474
     69          1           0        9.569882    0.360064   -0.252476
     70          1           0        1.844812   -2.673750   -0.261321
     71          1           0        0.677625   -0.497148    1.579893
     72          1           0       -0.164814   -0.283159   -1.165374
     73          1           0       -1.148851   -0.501802    0.238992
     74          1           0       -0.336705   -1.965668   -0.462045
     75          1           0        1.159051   -2.343412    2.655194
     76          1           0        2.746794   -3.134434    2.440467
     77          1           0        0.451401   -4.502690    2.580911
     78          1           0        1.863423   -5.057471    1.758992
     79          1           0       -0.009567    4.563399    0.384377
     80          1           0        0.181967    3.535455   -1.095679
     81          1           0        0.499359    5.377908   -1.063377
     82          1           0        1.748145    6.895443   -1.617688
     83          1           0        2.187487    8.353058   -0.584771
     84          1           0        1.245694    7.019805    0.173916
     85          1           0        8.227251    5.098589    0.292322
     86          1           0        9.552281    2.964984   -1.146025
     87          1           0        7.344116    5.057022   -2.313562
     88          1           0        8.983636    4.596669   -2.486298
     89          1           0        8.722416    6.106299   -1.624141
     90          1           0       10.395536    4.400536    0.959317
     91          1           0       10.972625    2.887632    0.657032
     92          1           0        8.569849    2.491001    2.500722
     93          1           0        9.252103    3.961606    2.932987
     94          1           0       10.298505    2.468879    2.938360
     95          1           0        9.342003   -3.508489   -0.704020
     96          1           0       10.195790   -2.437766    0.431508
     97          1           0        9.890089   -1.846876   -1.188348
     98          1           0        4.341441   -4.316469    1.230664
     99          1           0        4.282738   -6.141400   -2.729020
    100          1           0        2.608338   -6.500114   -2.012032
    101          1           0        3.975606   -7.531159   -1.539008
    102          1           0       -2.290091   -5.650080   -0.324933
    103          1           0       -1.567041   -4.682064   -1.530402
    104          1           0       -2.760560   -2.629353   -0.176126
    105          1           0       -4.426929   -5.699031   -1.850109
    106          1           0       -5.140259   -4.590037   -2.902838
    107          1           0       -5.899031   -4.900382   -1.349477
    108          1           0       -5.876636   -2.288569   -1.661959
    109          1           0       -4.298629   -1.534257   -1.774064
    110          1           0       -4.287246   -1.075938    0.419065
    111          1           0       -5.566847   -2.182244    0.927339
    112          1           0       -6.766418   -0.399539   -1.041953
    113          1           0       -5.833703    0.577780    0.090742
    114          1           0       -7.849563   -1.444090    1.018055
    115          1           0       -5.747245   -0.094096    2.432796
    116          1           0       -7.121181   -0.924397    3.180200
    117          1           0       -7.196717    0.785054    2.857588
    118          1           0       -8.172068    0.985709   -0.397823
    119          1           0       -8.872560    1.319060    1.156044
    120          1           0       -9.723761   -1.256967   -0.040196
    121          1           0      -10.443319    0.378158   -0.458632
    122          1           0      -10.069115    0.140954    2.373174
    123          1           0      -11.143823   -1.159143    1.863993
    124          1           0      -11.556883    1.800338    1.352287
    125          1           0      -13.375964    1.336746    3.042635
    126          1           0      -11.751455    1.803024    3.588861
    127          1           0      -12.216039    0.091238    3.586383
    128          1           0      -13.991094    0.166822    1.306537
    129          1           0      -12.852386   -0.636906    0.249924
    130          1           0      -13.620366    0.952533   -1.411681
    131          1           0      -12.786798    2.186268   -0.509738
    132          1           0      -14.752745    3.065446    0.498424
    133          1           0      -15.514743    1.476199    0.462425
    134          1           0      -16.540397    3.458763   -0.890669
    135          1           0      -17.759261    1.943961   -1.368388
    136          1           0      -16.550555    0.631273   -1.346031
    137          1           0      -16.931631    1.463925   -2.787879
    138          1           0      -14.032846    3.440434   -1.979123
    139          1           0      -15.391655    4.282388   -2.768636
    140          1           0      -14.949393    2.555357   -3.164306
 ---------------------------------------------------------------------

 SCF Done:  E(RZINDO/S) =  -474.140286593     A.U. after   18 cycles

 Excitation energies and oscillator strengths:

 Excited State   1:      Singlet-A      1.4083 eV  880.36 nm  f=0.4860  <S**2>=0.000
     175 ->178         0.12513
     176 ->177         0.67941
 This state for optimization and/or second-order correction.
 Total Energy, E(CIS/TDA) =  -474.088531287
 Copying the excited state density for this state as the 1-particle RhoCI density.

 Excited State   2:      Singlet-A      1.9597 eV  632.66 nm  f=0.0920  <S**2>=0.000
     175 ->177         0.57235
     176 ->178        -0.34684
     176 ->179         0.11770

 Excited State   3:      Singlet-A      2.9547 eV  419.61 nm  f=0.5998  <S**2>=0.000
     167 ->177        -0.13883
     167 ->178         0.10786
     167 ->179         0.16728
     167 ->180        -0.10995
     169 ->177         0.18899
     175 ->177         0.28481
     176 ->178         0.45367
     176 ->179        -0.19430

 Excited State   4:      Singlet-A      2.9868 eV  415.11 nm  f=0.1702  <S**2>=0.000
     167 ->177        -0.30359
     167 ->178         0.21617
     167 ->179         0.33002
     167 ->180        -0.21965
     167 ->185        -0.14736
     167 ->186         0.12316
     175 ->177        -0.14078
     176 ->178        -0.19748
     176 ->179         0.17471

 Excited State   5:      Singlet-A      3.0792 eV  402.66 nm  f=0.2250  <S**2>=0.000
     175 ->178        -0.10533
     176 ->178         0.25313
     176 ->179         0.49382
     176 ->180         0.30955

 The electronic state is 1-A.
 Alpha  occ. eigenvalues --   -1.83055  -1.80275  -1.79758  -1.73320  -1.70909
 Alpha  occ. eigenvalues --   -1.70305  -1.65520  -1.60570  -1.60525  -1.56396
 Alpha  occ. eigenvalues --   -1.55356  -1.51005  -1.48479  -1.47214  -1.45066
 Alpha  occ. eigenvalues --   -1.43325  -1.41956  -1.40171  -1.38630  -1.38400
 Alpha  occ. eigenvalues --   -1.36152  -1.32570  -1.31017  -1.30812  -1.28070
 Alpha  occ. eigenvalues --   -1.27553  -1.25540  -1.23809  -1.21327  -1.17694
 Alpha  occ. eigenvalues --   -1.16997  -1.16689  -1.15861  -1.14156  -1.12775
 Alpha  occ. eigenvalues --   -1.12131  -1.10957  -1.09840  -1.04166  -1.02313
 Alpha  occ. eigenvalues --   -1.01705  -1.00630  -0.99158  -0.97975  -0.97450
 Alpha  occ. eigenvalues --   -0.96720  -0.95654  -0.93755  -0.93279  -0.92042
 Alpha  occ. eigenvalues --   -0.90066  -0.89935  -0.88505  -0.87856  -0.85425
 Alpha  occ. eigenvalues --   -0.84709  -0.84159  -0.82417  -0.81248  -0.80314
 Alpha  occ. eigenvalues --   -0.79591  -0.78275  -0.76737  -0.75975  -0.75884
 Alpha  occ. eigenvalues --   -0.75161  -0.74929  -0.74797  -0.74138  -0.73526
 Alpha  occ. eigenvalues --   -0.72970  -0.72093  -0.71806  -0.71408  -0.70661
 Alpha  occ. eigenvalues --   -0.69835  -0.69227  -0.68720  -0.68330  -0.68086
 Alpha  occ. eigenvalues --   -0.67587  -0.67215  -0.66426  -0.65997  -0.65472
 Alpha  occ. eigenvalues --   -0.65164  -0.64502  -0.64072  -0.63663  -0.63537
 Alpha  occ. eigenvalues --   -0.63158  -0.62881  -0.62356  -0.61781  -0.61465
 Alpha  occ. eigenvalues --   -0.60938  -0.60900  -0.60388  -0.60232  -0.59798
 Alpha  occ. eigenvalues --   -0.59684  -0.59622  -0.59355  -0.59080  -0.58931
 Alpha  occ. eigenvalues --   -0.58569  -0.58348  -0.57127  -0.56791  -0.56428
 Alpha  occ. eigenvalues --   -0.55858  -0.55597  -0.55369  -0.55012  -0.54856
 Alpha  occ. eigenvalues --   -0.54259  -0.53749  -0.53383  -0.53061  -0.52387
 Alpha  occ. eigenvalues --   -0.52021  -0.51848  -0.51485  -0.51296  -0.50763
 Alpha  occ. eigenvalues --   -0.50430  -0.50355  -0.50089  -0.49843  -0.49738
 Alpha  occ. eigenvalues --   -0.49482  -0.49189  -0.49004  -0.48742  -0.48527
 Alpha  occ. eigenvalues --   -0.48438  -0.48193  -0.47833  -0.47706  -0.47337
 Alpha  occ. eigenvalues --   -0.47169  -0.46952  -0.46828  -0.46548  -0.46397
 Alpha  occ. eigenvalues --   -0.46365  -0.46161  -0.46012  -0.45549  -0.45494
 Alpha  occ. eigenvalues --   -0.45296  -0.44826  -0.44737  -0.44477  -0.44440
 Alpha  occ. eigenvalues --   -0.44076  -0.43874  -0.42828  -0.42722  -0.42054
 Alpha  occ. eigenvalues --   -0.41641  -0.40564  -0.39904  -0.38292  -0.37991
 Alpha  occ. eigenvalues --   -0.37106  -0.36735  -0.35908  -0.34478  -0.34190
 Alpha  occ. eigenvalues --   -0.33491  -0.32080  -0.31428  -0.30354  -0.26595
 Alpha  occ. eigenvalues --   -0.21955
 Alpha virt. eigenvalues --   -0.08128  -0.01569  -0.00494   0.01605   0.01902
 Alpha virt. eigenvalues --    0.02478   0.03490   0.03752   0.03879   0.05041
 Alpha virt. eigenvalues --    0.06173   0.06982   0.07493   0.07907   0.08150

 Mulliken charges:
               1
     1  Mg   0.427990
     2  C   -0.007188
     3  C   -0.105113
     4  C   -0.093406
     5  C   -0.076592
     6  N   -0.268508
     7  C    0.063797
     8  C   -0.003532
     9  C   -0.004314
    10  C    0.205387
    11  C   -0.057747
    12  C   -0.014580
    13  C    0.008355
    14  C    0.466547
    15  O   -0.522839
    16  O   -0.272619
    17  N   -0.366359
    18  C    0.136838
    19  C    0.049669
    20  C   -0.037536
    21  C    0.161289
    22  C   -0.055086
    23  C    0.341066
    24  O   -0.516158
    25  C   -0.032198
    26  N   -0.262736
    27  C    0.193605
    28  C    0.005494
    29  C   -0.000080
    30  C    0.088851
    31  C   -0.049620
    32  C   -0.028930
    33  C   -0.052944
    34  N   -0.315441
    35  C    0.064923
    36  C   -0.021237
    37  C   -0.068063
    38  C    0.084671
    39  C   -0.041787
    40  C    0.321655
    41  O   -0.526596
    42  C    0.051547
    43  C    0.488194
    44  O   -0.531271
    45  O   -0.272703
    46  C    0.071969
    47  C    0.122770
    48  C   -0.086105
    49  C   -0.021102
    50  C   -0.045566
    51  C   -0.020614
    52  C   -0.036085
    53  C   -0.033555
    54  C   -0.016025
    55  C   -0.052392
    56  C   -0.035515
    57  C   -0.033068
    58  C   -0.039511
    59  C   -0.023193
    60  C   -0.062323
    61  C   -0.034195
    62  C   -0.033166
    63  C   -0.035337
    64  C   -0.005082
    65  C   -0.056405
    66  C   -0.059216
    67  H    0.031881
    68  H    0.047379
    69  H    0.028128
    70  H    0.064695
    71  H    0.026626
    72  H    0.024763
    73  H    0.019410
    74  H    0.037786
    75  H    0.021954
    76  H    0.032249
    77  H    0.027781
    78  H    0.038509
    79  H    0.034769
    80  H    0.042228
    81  H    0.027917
    82  H    0.055610
    83  H    0.041810
    84  H    0.044565
    85  H    0.023316
    86  H    0.025053
    87  H    0.028661
    88  H    0.019326
    89  H    0.032104
    90  H    0.011998
    91  H    0.020938
    92  H    0.028918
    93  H    0.017964
    94  H    0.025368
    95  H    0.032495
    96  H    0.025317
    97  H    0.022979
    98  H    0.058610
    99  H    0.058075
   100  H    0.053243
   101  H    0.032245
   102  H    0.041638
   103  H    0.069599
   104  H    0.024964
   105  H    0.019311
   106  H    0.029929
   107  H    0.021849
   108  H    0.008796
   109  H    0.027420
   110  H    0.015431
   111  H    0.025150
   112  H    0.023820
   113  H    0.013514
   114  H    0.020876
   115  H    0.020885
   116  H    0.019060
   117  H    0.016568
   118  H    0.014397
   119  H    0.017636
   120  H    0.024845
   121  H    0.018999
   122  H    0.014243
   123  H    0.018684
   124  H    0.019624
   125  H    0.014228
   126  H    0.020947
   127  H    0.016498
   128  H    0.021827
   129  H    0.024535
   130  H    0.021117
   131  H    0.020855
   132  H    0.015211
   133  H    0.012972
   134  H    0.018719
   135  H    0.009414
   136  H    0.016885
   137  H    0.014120
   138  H    0.013737
   139  H    0.025535
   140  H    0.020509
 Sum of Mulliken charges =  -0.00000

 Dipole moment (field-independent basis, Debye):
    X=             -9.9399    Y=              7.9700    Z=              3.3783  Tot=             13.1809
 N-N= 4.327722988320D+03 E-N= 0.000000000000D+00  KE=-9.330353528906D+03
 Leave Link  601 at Sat Apr 30 01:23:17 2022, MaxMem=  6710886400 cpu:               0.8 elap:               0.0
 (Enter /sw/apps/gaussian-16.0/g16/l9999.exe)
 1\1\GINC-BP1-COMPUTE103\SP\RZINDO CIS\STO-3G\C55H74Mg1N4O6\OF15641\30-
 Apr-2022\0\\#p ZINDO=(nstates=5)\\step_51_chromophore_18 ZINDO\\0,1\Mg
 ,0,35.034,49.199,25.986\C,0,35.198,47.432,28.955\C,0,33.409,51.848,27.
 81\C,0,34.407,50.878,23.066\C,0,36.088,46.414,24.203\N,0,34.314,49.582
 ,28.141\C,0,34.77,48.711,29.179\C,0,34.503,49.457,30.506\C,0,34.002,50
 .864,30.056\C,0,33.899,50.732,28.526\C,0,32.731,51.395,30.826\C,0,35.7
 69,49.461,31.446\C,0,35.467,48.984,32.84\C,0,33.997,48.918,33.351\O,0,

 Normal termination of Gaussian 16 at Sat Apr 30 01:23:17 2022.
