 Gaussian 16, Revision A.03,
 Gaussian 16:  ES64L-G16RevA.03 25-Dec-2016

 ------------------------------
 #p blyp/Def2SVP td=(nstates=5)
 ------------------------------

 --------------------------------------------------
 step_1751_chromophore_9 TDDFT with blyp functional
 --------------------------------------------------
 Symbolic Z-matrix:
 Charge =  0 Multiplicity = 1

                         Standard orientation:
 ---------------------------------------------------------------------
 Center     Atomic      Atomic             Coordinates (Angstroms)
 Number     Number       Type             X           Y           Z
 ---------------------------------------------------------------------
      1         12           0       -5.327490    0.737510   -0.045794
      2          6           0       -3.774636   -2.495065    0.149324
      3          6           0       -2.160979    2.128984   -0.442622
      4          6           0       -6.794692    3.709200    0.104308
      5          6           0       -8.226031   -0.874682    0.907815
      6          7           0       -3.250513   -0.088304   -0.106410
      7          6           0       -2.880486   -1.369108   -0.058641
      8          6           0       -1.433041   -1.550867   -0.430873
      9          6           0       -0.908059   -0.111900   -0.204686
     10          6           0       -2.135656    0.712481   -0.267541
     11          6           0       -0.171853    0.177909    1.145755
     12          6           0       -1.231322   -2.082084   -1.888502
     13          6           0       -0.221506   -3.264647   -1.979781
     14          6           0        1.040819   -3.055222   -1.217768
     15          8           0        1.137999   -3.102405    0.017659
     16          8           0        2.048282   -2.737755   -2.065876
     17          7           0       -4.597456    2.636372   -0.222929
     18          6           0       -3.241509    3.011077   -0.520854
     19          6           0       -3.181446    4.400044   -0.620483
     20          6           0       -4.453213    4.900066   -0.282835
     21          6           0       -5.404818    3.751697   -0.124496
     22          6           0       -1.868701    5.141146   -0.840633
     23          6           0       -4.866964    6.302359   -0.008749
     24          8           0       -6.043328    6.548005    0.245790
     25          6           0       -3.888437    7.488313   -0.032565
     26          7           0       -7.216076    1.326514    0.587981
     27          6           0       -7.610097    2.655671    0.507041
     28          6           0       -9.137472    2.767653    0.522364
     29          6           0       -9.617421    1.296915    0.690745
     30          6           0       -8.281550    0.507121    0.670983
     31          6           0       -9.708319    3.618498    1.661179
     32          6           0      -10.573884    0.851715   -0.455663
     33          6           0      -10.026027    0.339645   -1.826627
     34          7           0       -5.987193   -1.316998    0.454470
     35          6           0       -7.174300   -1.779247    0.897065
     36          6           0       -7.049247   -3.257481    1.086747
     37          6           0       -5.745835   -3.552298    0.612837
     38          6           0       -5.127386   -2.318096    0.386298
     39          6           0       -8.108321   -4.270294    1.435764
     40          6           0       -4.775596   -4.604921    0.412475
     41          8           0       -4.948456   -5.761607    0.716490
     42          6           0       -3.544394   -3.927768   -0.006601
     43          6           0       -2.484565   -4.348239    0.946248
     44          8           0       -2.293350   -3.826032    2.092874
     45          8           0       -1.872838   -5.536194    0.542223
     46          6           0       -0.754559   -5.954195    1.419676
     47          6           0        3.353380   -2.646993   -1.387489
     48          6           0        4.367032   -2.018533   -2.316996
     49          6           0        5.686560   -2.118770   -2.345830
     50          6           0        6.504837   -2.890386   -1.276290
     51          6           0        6.501764   -1.516513   -3.467537
     52          6           0        6.747690    0.040191   -3.552151
     53          6           0        8.157564    0.417542   -3.871568
     54          6           0        8.829950    1.159881   -2.716557
     55          6           0        8.460379    2.699678   -2.666769
     56          6           0       10.391448    0.916976   -2.781538
     57          6           0       10.918379   -0.034076   -1.673195
     58          6           0       12.022309    0.558752   -0.871089
     59          6           0       11.447186    1.606832    0.179289
     60          6           0       11.764832    3.040667   -0.147335
     61          6           0       11.836431    1.089917    1.558172
     62          6           0       10.855823    1.517313    2.675481
     63          6           0       11.729429    1.829489    3.914195
     64          6           0       11.607924    0.821347    5.060601
     65          6           0       12.063896   -0.576089    4.607138
     66          6           0       10.212847    0.875617    5.780241
     67          1           0       -1.165576    2.503072   -0.694368
     68          1           0       -7.433384    4.585107   -0.027320
     69          1           0       -9.191577   -1.284568    1.214388
     70          1           0       -1.057656   -2.307221    0.258201
     71          1           0       -0.318782    0.232208   -1.054879
     72          1           0        0.880703    0.003666    0.922873
     73          1           0       -0.500012   -0.503285    1.931432
     74          1           0       -0.239963    1.230041    1.423089
     75          1           0       -0.881058   -1.248308   -2.496967
     76          1           0       -2.203082   -2.438933   -2.229064
     77          1           0        0.041775   -3.233928   -3.037156
     78          1           0       -0.730748   -4.178077   -1.670431
     79          1           0       -2.022664    5.948914   -1.556949
     80          1           0       -1.039861    4.583822   -1.276691
     81          1           0       -1.526259    5.436277    0.151306
     82          1           0       -3.038082    7.255561    0.608712
     83          1           0       -4.422525    8.389488    0.267896
     84          1           0       -3.690422    7.515461   -1.104552
     85          1           0       -9.499109    3.213148   -0.403863
     86          1           0      -10.215193    1.142738    1.589066
     87          1           0       -9.737239    3.119365    2.629828
     88          1           0      -10.717659    3.954189    1.424495
     89          1           0       -9.065081    4.483301    1.819814
     90          1           0      -11.273713    1.643589   -0.723532
     91          1           0      -11.407786    0.231001   -0.126650
     92          1           0      -10.469703   -0.640319   -2.000290
     93          1           0       -8.945643    0.223801   -1.746656
     94          1           0      -10.335841    1.077506   -2.567204
     95          1           0       -7.582296   -5.223872    1.487914
     96          1           0       -8.767104   -4.260832    0.567482
     97          1           0       -8.769189   -4.076973    2.281129
     98          1           0       -3.281755   -4.193284   -1.031007
     99          1           0       -0.608048   -5.419772    2.359144
    100          1           0        0.218508   -6.104834    0.951357
    101          1           0       -1.175580   -6.873210    1.827371
    102          1           0        3.792173   -3.629419   -1.211644
    103          1           0        3.447278   -2.153543   -0.419948
    104          1           0        3.855429   -1.394092   -3.050446
    105          1           0        6.755187   -2.174581   -0.493737
    106          1           0        7.454285   -3.317647   -1.597516
    107          1           0        5.893526   -3.623088   -0.748871
    108          1           0        5.815708   -1.757009   -4.279801
    109          1           0        7.409702   -2.118349   -3.497796
    110          1           0        6.431254    0.559996   -2.648593
    111          1           0        6.105431    0.321120   -4.386408
    112          1           0        8.176961    0.995621   -4.795488
    113          1           0        8.645264   -0.477932   -4.258590
    114          1           0        8.506971    0.825942   -1.729880
    115          1           0        7.905290    3.077612   -1.808064
    116          1           0        7.745112    2.994192   -3.435290
    117          1           0        9.333279    3.346628   -2.760009
    118          1           0       10.865265    1.867873   -2.536385
    119          1           0       10.757905    0.732067   -3.791482
    120          1           0       11.280725   -0.951162   -2.136618
    121          1           0       10.137823   -0.339386   -0.976465
    122          1           0       12.895376    1.008802   -1.343803
    123          1           0       12.523142   -0.306935   -0.437370
    124          1           0       10.357611    1.580662    0.174256
    125          1           0       12.195246    3.010459   -1.148428
    126          1           0       12.354093    3.484379    0.655475
    127          1           0       10.830875    3.597122   -0.224097
    128          1           0       12.833354    1.432034    1.833737
    129          1           0       11.934039    0.009955    1.448108
    130          1           0       10.224219    0.667121    2.934895
    131          1           0       10.281677    2.397605    2.385535
    132          1           0       11.286961    2.749203    4.295694
    133          1           0       12.793963    2.000509    3.756699
    134          1           0       12.301945    1.115637    5.848294
    135          1           0       12.622123   -0.387802    3.690008
    136          1           0       11.312134   -1.354560    4.475308
    137          1           0       12.831461   -0.863083    5.325277
    138          1           0        9.709499    1.816477    5.559209
    139          1           0       10.315927    0.739172    6.856870
    140          1           0        9.686574    0.004930    5.389059
 ---------------------------------------------------------------------

 SCF Done:  E(RB-LYP) =  -3007.34023089     A.U. after   21 cycles

 Excitation energies and oscillator strengths:

 Excited State   1:      Singlet-A      1.7013 eV  728.77 nm  f=0.0182  <S**2>=0.000
     244 -> 247        0.50213
     245 -> 247        0.44986
     246 -> 247        0.19872
 This state for optimization and/or second-order correction.
 Total Energy, E(TD-HF/TD-DFT) =  -3007.27770969
 Copying the excited state density for this state as the 1-particle RhoCI density.

 Excited State   2:      Singlet-A      1.7634 eV  703.09 nm  f=0.2696  <S**2>=0.000
     244 -> 247       -0.16300
     245 -> 247       -0.11918
     245 -> 248        0.17729
     246 -> 247        0.65663
     246 <- 247       -0.13772

 Excited State   3:      Singlet-A      1.9809 eV  625.90 nm  f=0.0413  <S**2>=0.000
     243 -> 247        0.12101
     244 -> 247       -0.44247
     245 -> 247        0.46188
     246 -> 248       -0.24312

 Excited State   4:      Singlet-A      2.2352 eV  554.69 nm  f=0.0041  <S**2>=0.000
     241 -> 247       -0.10135
     243 -> 247        0.68405
     246 -> 248        0.10735

 Excited State   5:      Singlet-A      2.5129 eV  493.40 nm  f=0.0001  <S**2>=0.000
     240 -> 247        0.68429
     241 -> 247       -0.17048

 The electronic state is 1-A.
 Alpha  occ. eigenvalues --  -46.26789 -18.84405 -18.82673 -18.77823 -18.76862
 Alpha  occ. eigenvalues --  -18.75959 -18.74085 -14.03110 -14.02663 -14.00617
 Alpha  occ. eigenvalues --  -14.00020 -10.05090 -10.04448  -9.99551  -9.98703
 Alpha  occ. eigenvalues --   -9.98481  -9.96796  -9.96394  -9.96276  -9.95830
 Alpha  occ. eigenvalues --   -9.95711  -9.95698  -9.95310  -9.94815  -9.94502
 Alpha  occ. eigenvalues --   -9.94383  -9.94151  -9.94088  -9.93568  -9.93461
 Alpha  occ. eigenvalues --   -9.93446  -9.93180  -9.93125  -9.93076  -9.93027
 Alpha  occ. eigenvalues --   -9.92968  -9.92939  -9.92917  -9.92837  -9.92781
 Alpha  occ. eigenvalues --   -9.92127  -9.92078  -9.92069  -9.92052  -9.91991
 Alpha  occ. eigenvalues --   -9.91832  -9.91752  -9.91743  -9.91733  -9.91665
 Alpha  occ. eigenvalues --   -9.91512  -9.91468  -9.91425  -9.91309  -9.91273
 Alpha  occ. eigenvalues --   -9.91256  -9.91220  -9.91164  -9.91147  -9.90777
 Alpha  occ. eigenvalues --   -9.90770  -9.90760  -9.90669  -9.90539  -9.90458
 Alpha  occ. eigenvalues --   -9.90338  -2.91382  -1.71808  -1.71257  -1.71099
 Alpha  occ. eigenvalues --   -0.99586  -0.96358  -0.92640  -0.90614  -0.90156
 Alpha  occ. eigenvalues --   -0.87961  -0.86958  -0.86145  -0.85224  -0.83308
 Alpha  occ. eigenvalues --   -0.77713  -0.74162  -0.73669  -0.73169  -0.72292
 Alpha  occ. eigenvalues --   -0.71900  -0.71690  -0.71305  -0.70757  -0.70025
 Alpha  occ. eigenvalues --   -0.69440  -0.69061  -0.68375  -0.67785  -0.67101
 Alpha  occ. eigenvalues --   -0.66358  -0.65592  -0.65072  -0.64867  -0.64459
 Alpha  occ. eigenvalues --   -0.63878  -0.62381  -0.61855  -0.61649  -0.61250
 Alpha  occ. eigenvalues --   -0.60776  -0.60392  -0.60106  -0.59846  -0.58989
 Alpha  occ. eigenvalues --   -0.58440  -0.57499  -0.56845  -0.56052  -0.55010
 Alpha  occ. eigenvalues --   -0.54432  -0.54212  -0.52941  -0.52433  -0.51414
 Alpha  occ. eigenvalues --   -0.51326  -0.51138  -0.50703  -0.50568  -0.50118
 Alpha  occ. eigenvalues --   -0.50053  -0.49396  -0.48523  -0.46985  -0.46875
 Alpha  occ. eigenvalues --   -0.46379  -0.45872  -0.45656  -0.45443  -0.45181
 Alpha  occ. eigenvalues --   -0.43712  -0.43465  -0.43114  -0.42855  -0.42635
 Alpha  occ. eigenvalues --   -0.42390  -0.42351  -0.41946  -0.41517  -0.41329
 Alpha  occ. eigenvalues --   -0.41078  -0.40761  -0.40516  -0.40434  -0.40140
 Alpha  occ. eigenvalues --   -0.39981  -0.39896  -0.39732  -0.39165  -0.39067
 Alpha  occ. eigenvalues --   -0.38754  -0.38602  -0.38445  -0.38144  -0.38075
 Alpha  occ. eigenvalues --   -0.37767  -0.37698  -0.37601  -0.37509  -0.37068
 Alpha  occ. eigenvalues --   -0.36918  -0.36818  -0.36769  -0.36445  -0.36256
 Alpha  occ. eigenvalues --   -0.36128  -0.35929  -0.35875  -0.35813  -0.35442
 Alpha  occ. eigenvalues --   -0.35369  -0.34929  -0.34861  -0.34626  -0.34518
 Alpha  occ. eigenvalues --   -0.34485  -0.34092  -0.33962  -0.33848  -0.33751
 Alpha  occ. eigenvalues --   -0.33644  -0.33565  -0.33394  -0.33378  -0.33157
 Alpha  occ. eigenvalues --   -0.33082  -0.33001  -0.32787  -0.32618  -0.32509
 Alpha  occ. eigenvalues --   -0.32325  -0.32279  -0.31986  -0.31547  -0.31248
 Alpha  occ. eigenvalues --   -0.31101  -0.31005  -0.30949  -0.30747  -0.30694
 Alpha  occ. eigenvalues --   -0.30646  -0.30445  -0.30238  -0.30060  -0.29699
 Alpha  occ. eigenvalues --   -0.29611  -0.29499  -0.29376  -0.29146  -0.29076
 Alpha  occ. eigenvalues --   -0.28658  -0.28594  -0.28448  -0.28272  -0.28102
 Alpha  occ. eigenvalues --   -0.27369  -0.27003  -0.26609  -0.26466  -0.26335
 Alpha  occ. eigenvalues --   -0.26148  -0.26079  -0.25805  -0.25582  -0.25256
 Alpha  occ. eigenvalues --   -0.25179  -0.24713  -0.24505  -0.23829  -0.22954
 Alpha  occ. eigenvalues --   -0.22780  -0.22680  -0.21835  -0.21511  -0.20290
 Alpha  occ. eigenvalues --   -0.20251  -0.19854  -0.19028  -0.17451  -0.16699
 Alpha  occ. eigenvalues --   -0.15288
 Alpha virt. eigenvalues --   -0.11055  -0.06965  -0.06245  -0.04580  -0.04312
 Alpha virt. eigenvalues --   -0.03406  -0.02518  -0.01729  -0.01126   0.00650
 Alpha virt. eigenvalues --    0.01570   0.01770   0.02149   0.02707   0.02835

 Mulliken charges:
               1
     1  Mg   0.676121
     2  C   -0.080270
     3  C   -0.066943
     4  C   -0.041457
     5  C   -0.079294
     6  N   -0.180160
     7  C   -0.079865
     8  C   -0.040102
     9  C    0.023306
    10  C   -0.019584
    11  C    0.157141
    12  C    0.111162
    13  C    0.150311
    14  C    0.089246
    15  O   -0.214342
    16  O   -0.248554
    17  N   -0.358751
    18  C    0.180124
    19  C   -0.148996
    20  C    0.043777
    21  C    0.167592
    22  C    0.178386
    23  C   -0.134389
    24  O   -0.180686
    25  C    0.152903
    26  N   -0.247290
    27  C    0.023705
    28  C    0.021979
    29  C    0.097490
    30  C    0.011057
    31  C    0.114363
    32  C    0.012779
    33  C    0.078357
    34  N   -0.190284
    35  C    0.133918
    36  C   -0.169473
    37  C    0.042418
    38  C    0.099812
    39  C    0.159906
    40  C   -0.093053
    41  O   -0.109791
    42  C    0.222865
    43  C    0.105460
    44  O   -0.219562
    45  O   -0.273727
    46  C    0.211113
    47  C    0.323842
    48  C   -0.148084
    49  C   -0.147158
    50  C    0.127607
    51  C    0.127793
    52  C    0.115315
    53  C    0.122544
    54  C   -0.061547
    55  C    0.080492
    56  C    0.136703
    57  C    0.094190
    58  C    0.085524
    59  C   -0.107899
    60  C    0.154779
    61  C    0.071401
    62  C    0.103929
    63  C    0.080479
    64  C   -0.120370
    65  C    0.117575
    66  C    0.109085
    67  H   -0.065745
    68  H   -0.036754
    69  H   -0.067989
    70  H    0.013430
    71  H   -0.043965
    72  H   -0.014716
    73  H    0.019281
    74  H   -0.015407
    75  H   -0.015638
    76  H   -0.014925
    77  H   -0.010612
    78  H    0.016906
    79  H   -0.001876
    80  H   -0.017915
    81  H    0.011701
    82  H    0.007785
    83  H   -0.009054
    84  H    0.005216
    85  H   -0.015755
    86  H   -0.025589
    87  H   -0.016013
    88  H   -0.011136
    89  H   -0.005189
    90  H   -0.045337
    91  H   -0.044860
    92  H   -0.004081
    93  H    0.010988
    94  H   -0.001414
    95  H    0.015897
    96  H   -0.002041
    97  H   -0.002646
    98  H   -0.004646
    99  H    0.023688
   100  H    0.028662
   101  H    0.006157
   102  H   -0.002336
   103  H    0.019727
   104  H   -0.043148
   105  H   -0.001203
   106  H   -0.002109
   107  H   -0.020758
   108  H   -0.019565
   109  H   -0.029757
   110  H   -0.022770
   111  H   -0.040930
   112  H   -0.042250
   113  H   -0.043454
   114  H   -0.030174
   115  H   -0.020467
   116  H   -0.029127
   117  H   -0.009152
   118  H   -0.066560
   119  H   -0.030894
   120  H   -0.043428
   121  H   -0.030150
   122  H   -0.044201
   123  H   -0.049383
   124  H   -0.037180
   125  H   -0.005521
   126  H   -0.019187
   127  H   -0.023591
   128  H   -0.037417
   129  H   -0.024022
   130  H   -0.025298
   131  H   -0.025790
   132  H   -0.050272
   133  H   -0.024052
   134  H   -0.042624
   135  H   -0.027668
   136  H   -0.005580
   137  H   -0.022964
   138  H   -0.014345
   139  H   -0.013514
   140  H   -0.020215
 Sum of Mulliken charges =  -0.00000

 Dipole moment (field-independent basis, Debye):
    X=              4.0093    Y=              0.5932    Z=             -4.0892  Tot=              5.7574
 Quadrupole moment (field-independent basis, Debye-Ang):
   XX=           -370.0761   YY=           -436.4836   ZZ=           -405.3164
   XY=             -0.9768   XZ=              8.8480   YZ=              4.4409

 Normal termination of Gaussian 16 at Wed May  4 14:21:00 2022.
