 Gaussian 16, Revision A.03,
 Gaussian 16:  ES64L-G16RevA.03 25-Dec-2016

 -----------------------------------
 #p cam-b3lyp/Def2SVP td=(nstates=5)
 -----------------------------------

 -------------------------------------------------------
 step_1751_chromophore_9 TDDFT with cam-b3lyp functional
 -------------------------------------------------------
 Symbolic Z-matrix:
 Charge =  0 Multiplicity = 1

                         Standard orientation:
 ---------------------------------------------------------------------
 Center     Atomic      Atomic             Coordinates (Angstroms)
 Number     Number       Type             X           Y           Z
 ---------------------------------------------------------------------
      1         12           0       -5.327490    0.737510   -0.045794
      2          6           0       -3.774636   -2.495065    0.149324
      3          6           0       -2.160979    2.128984   -0.442622
      4          6           0       -6.794692    3.709200    0.104308
      5          6           0       -8.226031   -0.874682    0.907815
      6          7           0       -3.250513   -0.088304   -0.106410
      7          6           0       -2.880486   -1.369108   -0.058641
      8          6           0       -1.433041   -1.550867   -0.430873
      9          6           0       -0.908059   -0.111900   -0.204686
     10          6           0       -2.135656    0.712481   -0.267541
     11          6           0       -0.171853    0.177909    1.145755
     12          6           0       -1.231322   -2.082084   -1.888502
     13          6           0       -0.221506   -3.264647   -1.979781
     14          6           0        1.040819   -3.055222   -1.217768
     15          8           0        1.137999   -3.102405    0.017659
     16          8           0        2.048282   -2.737755   -2.065876
     17          7           0       -4.597456    2.636372   -0.222929
     18          6           0       -3.241509    3.011077   -0.520854
     19          6           0       -3.181446    4.400044   -0.620483
     20          6           0       -4.453213    4.900066   -0.282835
     21          6           0       -5.404818    3.751697   -0.124496
     22          6           0       -1.868701    5.141146   -0.840633
     23          6           0       -4.866964    6.302359   -0.008749
     24          8           0       -6.043328    6.548005    0.245790
     25          6           0       -3.888437    7.488313   -0.032565
     26          7           0       -7.216076    1.326514    0.587981
     27          6           0       -7.610097    2.655671    0.507041
     28          6           0       -9.137472    2.767653    0.522364
     29          6           0       -9.617421    1.296915    0.690745
     30          6           0       -8.281550    0.507121    0.670983
     31          6           0       -9.708319    3.618498    1.661179
     32          6           0      -10.573884    0.851715   -0.455663
     33          6           0      -10.026027    0.339645   -1.826627
     34          7           0       -5.987193   -1.316998    0.454470
     35          6           0       -7.174300   -1.779247    0.897065
     36          6           0       -7.049247   -3.257481    1.086747
     37          6           0       -5.745835   -3.552298    0.612837
     38          6           0       -5.127386   -2.318096    0.386298
     39          6           0       -8.108321   -4.270294    1.435764
     40          6           0       -4.775596   -4.604921    0.412475
     41          8           0       -4.948456   -5.761607    0.716490
     42          6           0       -3.544394   -3.927768   -0.006601
     43          6           0       -2.484565   -4.348239    0.946248
     44          8           0       -2.293350   -3.826032    2.092874
     45          8           0       -1.872838   -5.536194    0.542223
     46          6           0       -0.754559   -5.954195    1.419676
     47          6           0        3.353380   -2.646993   -1.387489
     48          6           0        4.367032   -2.018533   -2.316996
     49          6           0        5.686560   -2.118770   -2.345830
     50          6           0        6.504837   -2.890386   -1.276290
     51          6           0        6.501764   -1.516513   -3.467537
     52          6           0        6.747690    0.040191   -3.552151
     53          6           0        8.157564    0.417542   -3.871568
     54          6           0        8.829950    1.159881   -2.716557
     55          6           0        8.460379    2.699678   -2.666769
     56          6           0       10.391448    0.916976   -2.781538
     57          6           0       10.918379   -0.034076   -1.673195
     58          6           0       12.022309    0.558752   -0.871089
     59          6           0       11.447186    1.606832    0.179289
     60          6           0       11.764832    3.040667   -0.147335
     61          6           0       11.836431    1.089917    1.558172
     62          6           0       10.855823    1.517313    2.675481
     63          6           0       11.729429    1.829489    3.914195
     64          6           0       11.607924    0.821347    5.060601
     65          6           0       12.063896   -0.576089    4.607138
     66          6           0       10.212847    0.875617    5.780241
     67          1           0       -1.165576    2.503072   -0.694368
     68          1           0       -7.433384    4.585107   -0.027320
     69          1           0       -9.191577   -1.284568    1.214388
     70          1           0       -1.057656   -2.307221    0.258201
     71          1           0       -0.318782    0.232208   -1.054879
     72          1           0        0.880703    0.003666    0.922873
     73          1           0       -0.500012   -0.503285    1.931432
     74          1           0       -0.239963    1.230041    1.423089
     75          1           0       -0.881058   -1.248308   -2.496967
     76          1           0       -2.203082   -2.438933   -2.229064
     77          1           0        0.041775   -3.233928   -3.037156
     78          1           0       -0.730748   -4.178077   -1.670431
     79          1           0       -2.022664    5.948914   -1.556949
     80          1           0       -1.039861    4.583822   -1.276691
     81          1           0       -1.526259    5.436277    0.151306
     82          1           0       -3.038082    7.255561    0.608712
     83          1           0       -4.422525    8.389488    0.267896
     84          1           0       -3.690422    7.515461   -1.104552
     85          1           0       -9.499109    3.213148   -0.403863
     86          1           0      -10.215193    1.142738    1.589066
     87          1           0       -9.737239    3.119365    2.629828
     88          1           0      -10.717659    3.954189    1.424495
     89          1           0       -9.065081    4.483301    1.819814
     90          1           0      -11.273713    1.643589   -0.723532
     91          1           0      -11.407786    0.231001   -0.126650
     92          1           0      -10.469703   -0.640319   -2.000290
     93          1           0       -8.945643    0.223801   -1.746656
     94          1           0      -10.335841    1.077506   -2.567204
     95          1           0       -7.582296   -5.223872    1.487914
     96          1           0       -8.767104   -4.260832    0.567482
     97          1           0       -8.769189   -4.076973    2.281129
     98          1           0       -3.281755   -4.193284   -1.031007
     99          1           0       -0.608048   -5.419772    2.359144
    100          1           0        0.218508   -6.104834    0.951357
    101          1           0       -1.175580   -6.873210    1.827371
    102          1           0        3.792173   -3.629419   -1.211644
    103          1           0        3.447278   -2.153543   -0.419948
    104          1           0        3.855429   -1.394092   -3.050446
    105          1           0        6.755187   -2.174581   -0.493737
    106          1           0        7.454285   -3.317647   -1.597516
    107          1           0        5.893526   -3.623088   -0.748871
    108          1           0        5.815708   -1.757009   -4.279801
    109          1           0        7.409702   -2.118349   -3.497796
    110          1           0        6.431254    0.559996   -2.648593
    111          1           0        6.105431    0.321120   -4.386408
    112          1           0        8.176961    0.995621   -4.795488
    113          1           0        8.645264   -0.477932   -4.258590
    114          1           0        8.506971    0.825942   -1.729880
    115          1           0        7.905290    3.077612   -1.808064
    116          1           0        7.745112    2.994192   -3.435290
    117          1           0        9.333279    3.346628   -2.760009
    118          1           0       10.865265    1.867873   -2.536385
    119          1           0       10.757905    0.732067   -3.791482
    120          1           0       11.280725   -0.951162   -2.136618
    121          1           0       10.137823   -0.339386   -0.976465
    122          1           0       12.895376    1.008802   -1.343803
    123          1           0       12.523142   -0.306935   -0.437370
    124          1           0       10.357611    1.580662    0.174256
    125          1           0       12.195246    3.010459   -1.148428
    126          1           0       12.354093    3.484379    0.655475
    127          1           0       10.830875    3.597122   -0.224097
    128          1           0       12.833354    1.432034    1.833737
    129          1           0       11.934039    0.009955    1.448108
    130          1           0       10.224219    0.667121    2.934895
    131          1           0       10.281677    2.397605    2.385535
    132          1           0       11.286961    2.749203    4.295694
    133          1           0       12.793963    2.000509    3.756699
    134          1           0       12.301945    1.115637    5.848294
    135          1           0       12.622123   -0.387802    3.690008
    136          1           0       11.312134   -1.354560    4.475308
    137          1           0       12.831461   -0.863083    5.325277
    138          1           0        9.709499    1.816477    5.559209
    139          1           0       10.315927    0.739172    6.856870
    140          1           0        9.686574    0.004930    5.389059
 ---------------------------------------------------------------------

 SCF Done:  E(RCAM-B3LYP) =  -3007.14137723     A.U. after   17 cycles

 Excitation energies and oscillator strengths:

 Excited State   1:      Singlet-A      1.7089 eV  725.53 nm  f=0.3529  <S**2>=0.000
     245 -> 248        0.18645
     246 -> 247        0.68304
     245 <- 248        0.10595
 This state for optimization and/or second-order correction.
 Total Energy, E(TD-HF/TD-DFT) =  -3007.07857750
 Copying the excited state density for this state as the 1-particle RhoCI density.

 Excited State   2:      Singlet-A      2.2212 eV  558.18 nm  f=0.0723  <S**2>=0.000
     245 -> 247        0.62089
     246 -> 248       -0.32272

 Excited State   3:      Singlet-A      3.3134 eV  374.19 nm  f=0.3033  <S**2>=0.000
     239 -> 247        0.11386
     242 -> 247        0.42342
     244 -> 247       -0.10965
     245 -> 247        0.20851
     246 -> 248        0.47531

 Excited State   4:      Singlet-A      3.4265 eV  361.84 nm  f=0.1925  <S**2>=0.000
     239 -> 247       -0.10072
     242 -> 247       -0.26523
     243 -> 247        0.15224
     244 -> 247        0.47518
     245 -> 247        0.18006
     246 -> 248        0.32335

 Excited State   5:      Singlet-A      3.5480 eV  349.45 nm  f=0.0313  <S**2>=0.000
     239 -> 247       -0.13305
     243 -> 247        0.45624
     243 -> 248        0.13055
     243 -> 249        0.13936
     243 -> 250       -0.17847
     243 -> 251        0.16749
     244 -> 247       -0.33506

 The electronic state is 1-A.
 Alpha  occ. eigenvalues --  -46.88339 -19.27365 -19.25753 -19.20818 -19.20145
 Alpha  occ. eigenvalues --  -19.19711 -19.16830 -14.42067 -14.41437 -14.38884
 Alpha  occ. eigenvalues --  -14.38555 -10.40428 -10.40271 -10.35216 -10.33256
 Alpha  occ. eigenvalues --  -10.32777 -10.31171 -10.31049 -10.30837 -10.30106
 Alpha  occ. eigenvalues --  -10.29928 -10.29868 -10.29754 -10.29150 -10.29072
 Alpha  occ. eigenvalues --  -10.28489 -10.28402 -10.28144 -10.28081 -10.27595
 Alpha  occ. eigenvalues --  -10.27566 -10.27243 -10.27233 -10.27007 -10.26996
 Alpha  occ. eigenvalues --  -10.26995 -10.26969 -10.26652 -10.26541 -10.26540
 Alpha  occ. eigenvalues --  -10.26115 -10.26095 -10.25894 -10.25852 -10.25741
 Alpha  occ. eigenvalues --  -10.25723 -10.25549 -10.25399 -10.25332 -10.25326
 Alpha  occ. eigenvalues --  -10.25297 -10.25217 -10.24991 -10.24951 -10.24930
 Alpha  occ. eigenvalues --  -10.24916 -10.24890 -10.24856 -10.24838 -10.24826
 Alpha  occ. eigenvalues --  -10.24403 -10.24379 -10.24339 -10.24263 -10.24193
 Alpha  occ. eigenvalues --  -10.24125  -3.16834  -1.91737  -1.91285  -1.91133
 Alpha  occ. eigenvalues --   -1.18059  -1.14979  -1.11545  -1.08510  -1.08130
 Alpha  occ. eigenvalues --   -1.06019  -1.04950  -1.03898  -1.02864  -1.00428
 Alpha  occ. eigenvalues --   -0.95305  -0.91063  -0.90522  -0.89982  -0.89014
 Alpha  occ. eigenvalues --   -0.88506  -0.88298  -0.87904  -0.87344  -0.86456
 Alpha  occ. eigenvalues --   -0.86104  -0.85463  -0.84639  -0.84122  -0.83157
 Alpha  occ. eigenvalues --   -0.82394  -0.81587  -0.80980  -0.80705  -0.80255
 Alpha  occ. eigenvalues --   -0.79727  -0.78155  -0.77341  -0.77129  -0.76658
 Alpha  occ. eigenvalues --   -0.76232  -0.75781  -0.75442  -0.75082  -0.74206
 Alpha  occ. eigenvalues --   -0.73494  -0.72643  -0.71714  -0.70887  -0.69774
 Alpha  occ. eigenvalues --   -0.69092  -0.68930  -0.67353  -0.66732  -0.65467
 Alpha  occ. eigenvalues --   -0.65419  -0.65223  -0.64727  -0.64585  -0.64182
 Alpha  occ. eigenvalues --   -0.64037  -0.63360  -0.62487  -0.60704  -0.60519
 Alpha  occ. eigenvalues --   -0.60157  -0.59669  -0.59306  -0.58786  -0.58595
 Alpha  occ. eigenvalues --   -0.57050  -0.56801  -0.56543  -0.56104  -0.55773
 Alpha  occ. eigenvalues --   -0.55406  -0.55193  -0.54942  -0.54343  -0.54235
 Alpha  occ. eigenvalues --   -0.54088  -0.53835  -0.53552  -0.53214  -0.52897
 Alpha  occ. eigenvalues --   -0.52568  -0.52451  -0.52288  -0.51877  -0.51452
 Alpha  occ. eigenvalues --   -0.51414  -0.51172  -0.50997  -0.50683  -0.50561
 Alpha  occ. eigenvalues --   -0.50489  -0.50170  -0.49838  -0.49705  -0.49539
 Alpha  occ. eigenvalues --   -0.49190  -0.49093  -0.48961  -0.48805  -0.48514
 Alpha  occ. eigenvalues --   -0.48277  -0.48170  -0.48091  -0.47912  -0.47576
 Alpha  occ. eigenvalues --   -0.47331  -0.46851  -0.46802  -0.46760  -0.46586
 Alpha  occ. eigenvalues --   -0.46200  -0.46081  -0.45789  -0.45723  -0.45587
 Alpha  occ. eigenvalues --   -0.45429  -0.45403  -0.45343  -0.44977  -0.44920
 Alpha  occ. eigenvalues --   -0.44749  -0.44708  -0.44649  -0.44278  -0.44185
 Alpha  occ. eigenvalues --   -0.44131  -0.43957  -0.43787  -0.43217  -0.42889
 Alpha  occ. eigenvalues --   -0.42514  -0.42405  -0.42279  -0.42124  -0.42070
 Alpha  occ. eigenvalues --   -0.41905  -0.41803  -0.41732  -0.41508  -0.41264
 Alpha  occ. eigenvalues --   -0.40687  -0.40646  -0.40610  -0.40553  -0.40144
 Alpha  occ. eigenvalues --   -0.39729  -0.39622  -0.39520  -0.39222  -0.39034
 Alpha  occ. eigenvalues --   -0.38350  -0.38185  -0.37782  -0.37199  -0.37107
 Alpha  occ. eigenvalues --   -0.36948  -0.36779  -0.36482  -0.36395  -0.36282
 Alpha  occ. eigenvalues --   -0.36143  -0.35991  -0.35195  -0.34877  -0.34439
 Alpha  occ. eigenvalues --   -0.34037  -0.33127  -0.33074  -0.31821  -0.30675
 Alpha  occ. eigenvalues --   -0.30034  -0.29601  -0.29137  -0.28799  -0.23650
 Alpha  occ. eigenvalues --   -0.20547
 Alpha virt. eigenvalues --   -0.08002  -0.01850   0.00125   0.02333   0.02601
 Alpha virt. eigenvalues --    0.03412   0.04038   0.05666   0.06038   0.07395
 Alpha virt. eigenvalues --    0.07834   0.08102   0.08736   0.08970   0.09286

 Mulliken charges:
               1
     1  Mg   0.808263
     2  C   -0.102836
     3  C   -0.073208
     4  C   -0.055932
     5  C   -0.090821
     6  N   -0.246859
     7  C   -0.018292
     8  C   -0.102617
     9  C   -0.035172
    10  C   -0.008482
    11  C    0.103572
    12  C    0.065490
    13  C    0.076623
    14  C    0.168412
    15  O   -0.255532
    16  O   -0.312738
    17  N   -0.443104
    18  C    0.181999
    19  C   -0.156390
    20  C   -0.029569
    21  C    0.186301
    22  C    0.119692
    23  C   -0.057820
    24  O   -0.226577
    25  C    0.076412
    26  N   -0.321686
    27  C    0.046684
    28  C   -0.042020
    29  C    0.040973
    30  C    0.030555
    31  C    0.059860
    32  C   -0.040033
    33  C    0.020381
    34  N   -0.280001
    35  C    0.141782
    36  C   -0.157736
    37  C   -0.028830
    38  C    0.133543
    39  C    0.107628
    40  C    0.008667
    41  O   -0.143028
    42  C    0.127436
    43  C    0.195680
    44  O   -0.255898
    45  O   -0.336332
    46  C    0.170462
    47  C    0.289136
    48  C   -0.163640
    49  C   -0.173281
    50  C    0.069042
    51  C    0.072778
    52  C    0.056601
    53  C    0.067009
    54  C   -0.119595
    55  C    0.024920
    56  C    0.081452
    57  C    0.040738
    58  C    0.026455
    59  C   -0.158823
    60  C    0.092956
    61  C    0.025417
    62  C    0.043452
    63  C    0.021662
    64  C   -0.173304
    65  C    0.053072
    66  C    0.050893
    67  H   -0.031667
    68  H    0.001534
    69  H   -0.033025
    70  H    0.048523
    71  H   -0.009123
    72  H    0.008363
    73  H    0.042012
    74  H    0.010246
    75  H    0.015965
    76  H    0.015097
    77  H    0.027252
    78  H    0.044865
    79  H    0.022537
    80  H    0.009289
    81  H    0.036673
    82  H    0.033320
    83  H    0.025365
    84  H    0.029745
    85  H    0.018790
    86  H    0.011386
    87  H    0.008443
    88  H    0.013014
    89  H    0.020876
    90  H   -0.014273
    91  H   -0.014086
    92  H    0.019349
    93  H    0.030289
    94  H    0.022125
    95  H    0.044103
    96  H    0.025220
    97  H    0.024900
    98  H    0.039235
    99  H    0.052138
   100  H    0.048803
   101  H    0.029950
   102  H    0.022918
   103  H    0.049219
   104  H   -0.007596
   105  H    0.022714
   106  H    0.022325
   107  H    0.003250
   108  H    0.010829
   109  H   -0.002061
   110  H    0.004824
   111  H   -0.009373
   112  H   -0.011378
   113  H   -0.013133
   114  H   -0.000454
   115  H    0.003535
   116  H   -0.004024
   117  H    0.013715
   118  H   -0.038864
   119  H   -0.001149
   120  H   -0.012938
   121  H   -0.003268
   122  H   -0.013439
   123  H   -0.017807
   124  H   -0.008095
   125  H    0.016384
   126  H    0.006375
   127  H    0.000242
   128  H   -0.010308
   129  H    0.003034
   130  H    0.002877
   131  H    0.003509
   132  H   -0.019319
   133  H    0.004412
   134  H   -0.008859
   135  H   -0.003806
   136  H    0.017722
   137  H    0.003301
   138  H    0.009405
   139  H    0.011316
   140  H    0.000892
 Sum of Mulliken charges =  -0.00000

 Dipole moment (field-independent basis, Debye):
    X=              3.9012    Y=              0.0099    Z=             -4.2098  Tot=              5.7396
 Quadrupole moment (field-independent basis, Debye-Ang):
   XX=           -364.3659   YY=           -434.0966   ZZ=           -405.2977
   XY=              2.8085   XZ=              8.7980   YZ=              4.2033

 Normal termination of Gaussian 16 at Wed May  4 13:17:43 2022.
