 Gaussian 16, Revision A.03,
 Gaussian 16:  ES64L-G16RevA.03 25-Dec-2016

 ---------------------------------
 #p PBE1PBE/Def2SVP td=(nstates=5)
 ---------------------------------

 -----------------------------------------------------
 step_1751_chromophore_9 TDDFT with PBE1PBE functional
 -----------------------------------------------------
 Symbolic Z-matrix:
 Charge =  0 Multiplicity = 1

                         Standard orientation:
 ---------------------------------------------------------------------
 Center     Atomic      Atomic             Coordinates (Angstroms)
 Number     Number       Type             X           Y           Z
 ---------------------------------------------------------------------
      1         12           0       -5.327490    0.737510   -0.045794
      2          6           0       -3.774636   -2.495065    0.149324
      3          6           0       -2.160979    2.128984   -0.442622
      4          6           0       -6.794692    3.709200    0.104308
      5          6           0       -8.226031   -0.874682    0.907815
      6          7           0       -3.250513   -0.088304   -0.106410
      7          6           0       -2.880486   -1.369108   -0.058641
      8          6           0       -1.433041   -1.550867   -0.430873
      9          6           0       -0.908059   -0.111900   -0.204686
     10          6           0       -2.135656    0.712481   -0.267541
     11          6           0       -0.171853    0.177909    1.145755
     12          6           0       -1.231322   -2.082084   -1.888502
     13          6           0       -0.221506   -3.264647   -1.979781
     14          6           0        1.040819   -3.055222   -1.217768
     15          8           0        1.137999   -3.102405    0.017659
     16          8           0        2.048282   -2.737755   -2.065876
     17          7           0       -4.597456    2.636372   -0.222929
     18          6           0       -3.241509    3.011077   -0.520854
     19          6           0       -3.181446    4.400044   -0.620483
     20          6           0       -4.453213    4.900066   -0.282835
     21          6           0       -5.404818    3.751697   -0.124496
     22          6           0       -1.868701    5.141146   -0.840633
     23          6           0       -4.866964    6.302359   -0.008749
     24          8           0       -6.043328    6.548005    0.245790
     25          6           0       -3.888437    7.488313   -0.032565
     26          7           0       -7.216076    1.326514    0.587981
     27          6           0       -7.610097    2.655671    0.507041
     28          6           0       -9.137472    2.767653    0.522364
     29          6           0       -9.617421    1.296915    0.690745
     30          6           0       -8.281550    0.507121    0.670983
     31          6           0       -9.708319    3.618498    1.661179
     32          6           0      -10.573884    0.851715   -0.455663
     33          6           0      -10.026027    0.339645   -1.826627
     34          7           0       -5.987193   -1.316998    0.454470
     35          6           0       -7.174300   -1.779247    0.897065
     36          6           0       -7.049247   -3.257481    1.086747
     37          6           0       -5.745835   -3.552298    0.612837
     38          6           0       -5.127386   -2.318096    0.386298
     39          6           0       -8.108321   -4.270294    1.435764
     40          6           0       -4.775596   -4.604921    0.412475
     41          8           0       -4.948456   -5.761607    0.716490
     42          6           0       -3.544394   -3.927768   -0.006601
     43          6           0       -2.484565   -4.348239    0.946248
     44          8           0       -2.293350   -3.826032    2.092874
     45          8           0       -1.872838   -5.536194    0.542223
     46          6           0       -0.754559   -5.954195    1.419676
     47          6           0        3.353380   -2.646993   -1.387489
     48          6           0        4.367032   -2.018533   -2.316996
     49          6           0        5.686560   -2.118770   -2.345830
     50          6           0        6.504837   -2.890386   -1.276290
     51          6           0        6.501764   -1.516513   -3.467537
     52          6           0        6.747690    0.040191   -3.552151
     53          6           0        8.157564    0.417542   -3.871568
     54          6           0        8.829950    1.159881   -2.716557
     55          6           0        8.460379    2.699678   -2.666769
     56          6           0       10.391448    0.916976   -2.781538
     57          6           0       10.918379   -0.034076   -1.673195
     58          6           0       12.022309    0.558752   -0.871089
     59          6           0       11.447186    1.606832    0.179289
     60          6           0       11.764832    3.040667   -0.147335
     61          6           0       11.836431    1.089917    1.558172
     62          6           0       10.855823    1.517313    2.675481
     63          6           0       11.729429    1.829489    3.914195
     64          6           0       11.607924    0.821347    5.060601
     65          6           0       12.063896   -0.576089    4.607138
     66          6           0       10.212847    0.875617    5.780241
     67          1           0       -1.165576    2.503072   -0.694368
     68          1           0       -7.433384    4.585107   -0.027320
     69          1           0       -9.191577   -1.284568    1.214388
     70          1           0       -1.057656   -2.307221    0.258201
     71          1           0       -0.318782    0.232208   -1.054879
     72          1           0        0.880703    0.003666    0.922873
     73          1           0       -0.500012   -0.503285    1.931432
     74          1           0       -0.239963    1.230041    1.423089
     75          1           0       -0.881058   -1.248308   -2.496967
     76          1           0       -2.203082   -2.438933   -2.229064
     77          1           0        0.041775   -3.233928   -3.037156
     78          1           0       -0.730748   -4.178077   -1.670431
     79          1           0       -2.022664    5.948914   -1.556949
     80          1           0       -1.039861    4.583822   -1.276691
     81          1           0       -1.526259    5.436277    0.151306
     82          1           0       -3.038082    7.255561    0.608712
     83          1           0       -4.422525    8.389488    0.267896
     84          1           0       -3.690422    7.515461   -1.104552
     85          1           0       -9.499109    3.213148   -0.403863
     86          1           0      -10.215193    1.142738    1.589066
     87          1           0       -9.737239    3.119365    2.629828
     88          1           0      -10.717659    3.954189    1.424495
     89          1           0       -9.065081    4.483301    1.819814
     90          1           0      -11.273713    1.643589   -0.723532
     91          1           0      -11.407786    0.231001   -0.126650
     92          1           0      -10.469703   -0.640319   -2.000290
     93          1           0       -8.945643    0.223801   -1.746656
     94          1           0      -10.335841    1.077506   -2.567204
     95          1           0       -7.582296   -5.223872    1.487914
     96          1           0       -8.767104   -4.260832    0.567482
     97          1           0       -8.769189   -4.076973    2.281129
     98          1           0       -3.281755   -4.193284   -1.031007
     99          1           0       -0.608048   -5.419772    2.359144
    100          1           0        0.218508   -6.104834    0.951357
    101          1           0       -1.175580   -6.873210    1.827371
    102          1           0        3.792173   -3.629419   -1.211644
    103          1           0        3.447278   -2.153543   -0.419948
    104          1           0        3.855429   -1.394092   -3.050446
    105          1           0        6.755187   -2.174581   -0.493737
    106          1           0        7.454285   -3.317647   -1.597516
    107          1           0        5.893526   -3.623088   -0.748871
    108          1           0        5.815708   -1.757009   -4.279801
    109          1           0        7.409702   -2.118349   -3.497796
    110          1           0        6.431254    0.559996   -2.648593
    111          1           0        6.105431    0.321120   -4.386408
    112          1           0        8.176961    0.995621   -4.795488
    113          1           0        8.645264   -0.477932   -4.258590
    114          1           0        8.506971    0.825942   -1.729880
    115          1           0        7.905290    3.077612   -1.808064
    116          1           0        7.745112    2.994192   -3.435290
    117          1           0        9.333279    3.346628   -2.760009
    118          1           0       10.865265    1.867873   -2.536385
    119          1           0       10.757905    0.732067   -3.791482
    120          1           0       11.280725   -0.951162   -2.136618
    121          1           0       10.137823   -0.339386   -0.976465
    122          1           0       12.895376    1.008802   -1.343803
    123          1           0       12.523142   -0.306935   -0.437370
    124          1           0       10.357611    1.580662    0.174256
    125          1           0       12.195246    3.010459   -1.148428
    126          1           0       12.354093    3.484379    0.655475
    127          1           0       10.830875    3.597122   -0.224097
    128          1           0       12.833354    1.432034    1.833737
    129          1           0       11.934039    0.009955    1.448108
    130          1           0       10.224219    0.667121    2.934895
    131          1           0       10.281677    2.397605    2.385535
    132          1           0       11.286961    2.749203    4.295694
    133          1           0       12.793963    2.000509    3.756699
    134          1           0       12.301945    1.115637    5.848294
    135          1           0       12.622123   -0.387802    3.690008
    136          1           0       11.312134   -1.354560    4.475308
    137          1           0       12.831461   -0.863083    5.325277
    138          1           0        9.709499    1.816477    5.559209
    139          1           0       10.315927    0.739172    6.856870
    140          1           0        9.686574    0.004930    5.389059
 ---------------------------------------------------------------------

 SCF Done:  E(RPBE1PBE) =  -3005.33090270     A.U. after   15 cycles

 Excitation energies and oscillator strengths:

 Excited State   1:      Singlet-A      1.8280 eV  678.27 nm  f=0.3408  <S**2>=0.000
     245 -> 248        0.17967
     246 -> 247        0.69000
     246 <- 247       -0.10058
 This state for optimization and/or second-order correction.
 Total Energy, E(TD-HF/TD-DFT) =  -3005.26372657
 Copying the excited state density for this state as the 1-particle RhoCI density.

 Excited State   2:      Singlet-A      2.2020 eV  563.06 nm  f=0.0737  <S**2>=0.000
     245 -> 247        0.63833
     246 -> 248       -0.28454

 Excited State   3:      Singlet-A      2.8966 eV  428.04 nm  f=0.0061  <S**2>=0.000
     244 -> 247        0.66859
     244 -> 250        0.12778
     246 -> 248        0.10830

 Excited State   4:      Singlet-A      3.0241 eV  409.99 nm  f=0.0173  <S**2>=0.000
     239 -> 247       -0.11794
     240 -> 247       -0.14332
     242 -> 247       -0.39218
     243 -> 247        0.50685
     246 -> 248       -0.17865

 Excited State   5:      Singlet-A      3.1143 eV  398.11 nm  f=0.0422  <S**2>=0.000
     240 -> 247        0.13890
     242 -> 247        0.33527
     243 -> 247        0.46811
     246 -> 248        0.33487

 The electronic state is 1-A.
 Alpha  occ. eigenvalues --  -46.91720 -19.28015 -19.26307 -19.21079 -19.20310
 Alpha  occ. eigenvalues --  -19.19590 -19.17324 -14.41514 -14.40995 -14.38723
 Alpha  occ. eigenvalues --  -14.38052 -10.37411 -10.37211 -10.32045 -10.30632
 Alpha  occ. eigenvalues --  -10.30185 -10.28676 -10.28603 -10.28010 -10.27875
 Alpha  occ. eigenvalues --  -10.27814 -10.27709 -10.27436 -10.26576 -10.26510
 Alpha  occ. eigenvalues --  -10.26456 -10.26008 -10.25607 -10.25448 -10.25373
 Alpha  occ. eigenvalues --  -10.25243 -10.25120 -10.24953 -10.24892 -10.24842
 Alpha  occ. eigenvalues --  -10.24795 -10.24682 -10.24272 -10.24271 -10.23935
 Alpha  occ. eigenvalues --  -10.23835 -10.23712 -10.23499 -10.23421 -10.23341
 Alpha  occ. eigenvalues --  -10.23304 -10.23246 -10.22939 -10.22897 -10.22889
 Alpha  occ. eigenvalues --  -10.22737 -10.22691 -10.22565 -10.22521 -10.22455
 Alpha  occ. eigenvalues --  -10.22426 -10.22420 -10.22376 -10.22355 -10.22325
 Alpha  occ. eigenvalues --  -10.22006 -10.21779 -10.21777 -10.21720 -10.21701
 Alpha  occ. eigenvalues --  -10.21653  -3.13798  -1.86642  -1.86168  -1.86020
 Alpha  occ. eigenvalues --   -1.12847  -1.09601  -1.06004  -1.03316  -1.03106
 Alpha  occ. eigenvalues --   -1.00675  -0.99446  -0.98482  -0.97455  -0.95307
 Alpha  occ. eigenvalues --   -0.89510  -0.85198  -0.84626  -0.84153  -0.83129
 Alpha  occ. eigenvalues --   -0.82898  -0.82593  -0.82037  -0.81654  -0.80821
 Alpha  occ. eigenvalues --   -0.80254  -0.79769  -0.78855  -0.78364  -0.77427
 Alpha  occ. eigenvalues --   -0.76637  -0.75813  -0.75195  -0.75042  -0.74423
 Alpha  occ. eigenvalues --   -0.74032  -0.72351  -0.71736  -0.71442  -0.70811
 Alpha  occ. eigenvalues --   -0.70492  -0.69862  -0.69561  -0.69453  -0.68393
 Alpha  occ. eigenvalues --   -0.67820  -0.66987  -0.66178  -0.65197  -0.64070
 Alpha  occ. eigenvalues --   -0.63424  -0.63215  -0.61606  -0.61246  -0.59939
 Alpha  occ. eigenvalues --   -0.59809  -0.59532  -0.59137  -0.58720  -0.58696
 Alpha  occ. eigenvalues --   -0.58666  -0.57518  -0.56934  -0.54973  -0.54912
 Alpha  occ. eigenvalues --   -0.54607  -0.53912  -0.53748  -0.53485  -0.53167
 Alpha  occ. eigenvalues --   -0.51628  -0.51300  -0.51040  -0.50594  -0.50292
 Alpha  occ. eigenvalues --   -0.49987  -0.49511  -0.49408  -0.49028  -0.48699
 Alpha  occ. eigenvalues --   -0.48610  -0.48287  -0.47983  -0.47723  -0.47435
 Alpha  occ. eigenvalues --   -0.47170  -0.46997  -0.46746  -0.46400  -0.46005
 Alpha  occ. eigenvalues --   -0.45947  -0.45688  -0.45545  -0.45296  -0.45062
 Alpha  occ. eigenvalues --   -0.44898  -0.44711  -0.44439  -0.44336  -0.44169
 Alpha  occ. eigenvalues --   -0.43808  -0.43675  -0.43525  -0.43349  -0.43168
 Alpha  occ. eigenvalues --   -0.42958  -0.42813  -0.42738  -0.42507  -0.42243
 Alpha  occ. eigenvalues --   -0.41956  -0.41528  -0.41508  -0.41400  -0.41198
 Alpha  occ. eigenvalues --   -0.40827  -0.40662  -0.40479  -0.40382  -0.40284
 Alpha  occ. eigenvalues --   -0.40254  -0.40099  -0.40033  -0.39698  -0.39615
 Alpha  occ. eigenvalues --   -0.39484  -0.39386  -0.39357  -0.38961  -0.38937
 Alpha  occ. eigenvalues --   -0.38907  -0.38579  -0.38501  -0.38014  -0.37678
 Alpha  occ. eigenvalues --   -0.37370  -0.37156  -0.37072  -0.36993  -0.36953
 Alpha  occ. eigenvalues --   -0.36770  -0.36476  -0.36449  -0.36416  -0.36040
 Alpha  occ. eigenvalues --   -0.35603  -0.35483  -0.35447  -0.35409  -0.35145
 Alpha  occ. eigenvalues --   -0.34628  -0.34427  -0.34371  -0.34008  -0.33854
 Alpha  occ. eigenvalues --   -0.33282  -0.33019  -0.32686  -0.32037  -0.31988
 Alpha  occ. eigenvalues --   -0.31963  -0.31634  -0.31424  -0.31316  -0.31119
 Alpha  occ. eigenvalues --   -0.31074  -0.30879  -0.30115  -0.29684  -0.29335
 Alpha  occ. eigenvalues --   -0.28985  -0.28588  -0.28082  -0.26556  -0.26285
 Alpha  occ. eigenvalues --   -0.25289  -0.24978  -0.24635  -0.24143  -0.20528
 Alpha  occ. eigenvalues --   -0.18179
 Alpha virt. eigenvalues --   -0.10563  -0.05334  -0.04008  -0.01964  -0.01157
 Alpha virt. eigenvalues --   -0.00565  -0.00201   0.01253   0.01682   0.03670
 Alpha virt. eigenvalues --    0.04498   0.04689   0.04872   0.05719   0.05836

 Mulliken charges:
               1
     1  Mg   0.953214
     2  C   -0.092927
     3  C   -0.072733
     4  C   -0.054816
     5  C   -0.078662
     6  N   -0.355238
     7  C    0.072594
     8  C   -0.174027
     9  C   -0.121194
    10  C    0.035665
    11  C    0.047450
    12  C    0.021438
    13  C   -0.009605
    14  C    0.238658
    15  O   -0.288201
    16  O   -0.345247
    17  N   -0.554969
    18  C    0.210960
    19  C   -0.183976
    20  C   -0.085954
    21  C    0.224576
    22  C    0.060958
    23  C   -0.002770
    24  O   -0.259603
    25  C    0.000688
    26  N   -0.427240
    27  C    0.088756
    28  C   -0.129162
    29  C   -0.030371
    30  C    0.056615
    31  C    0.005154
    32  C   -0.091339
    33  C   -0.055344
    34  N   -0.405852
    35  C    0.158655
    36  C   -0.176509
    37  C   -0.067332
    38  C    0.169059
    39  C    0.052568
    40  C    0.109691
    41  O   -0.193145
    42  C   -0.006728
    43  C    0.280874
    44  O   -0.286642
    45  O   -0.366875
    46  C    0.116333
    47  C    0.243662
    48  C   -0.169281
    49  C   -0.219300
    50  C    0.008354
    51  C    0.011270
    52  C   -0.008157
    53  C    0.016891
    54  C   -0.210829
    55  C   -0.029272
    56  C    0.026399
    57  C   -0.026441
    58  C   -0.033392
    59  C   -0.237636
    60  C    0.032220
    61  C   -0.026152
    62  C   -0.019507
    63  C   -0.043962
    64  C   -0.260742
    65  C   -0.010379
    66  C   -0.009541
    67  H   -0.000068
    68  H    0.033304
    69  H    0.000284
    70  H    0.093555
    71  H    0.027636
    72  H    0.038286
    73  H    0.069428
    74  H    0.038733
    75  H    0.046679
    76  H    0.049547
    77  H    0.060744
    78  H    0.079958
    79  H    0.051039
    80  H    0.037309
    81  H    0.065492
    82  H    0.060279
    83  H    0.053816
    84  H    0.057899
    85  H    0.054854
    86  H    0.046120
    87  H    0.036402
    88  H    0.041668
    89  H    0.048406
    90  H    0.018253
    91  H    0.017555
    92  H    0.046995
    93  H    0.062596
    94  H    0.048397
    95  H    0.071112
    96  H    0.053062
    97  H    0.050742
    98  H    0.074789
    99  H    0.072633
   100  H    0.069454
   101  H    0.052531
   102  H    0.051049
   103  H    0.075047
   104  H    0.023014
   105  H    0.051351
   106  H    0.047754
   107  H    0.030126
   108  H    0.043858
   109  H    0.028632
   110  H    0.036942
   111  H    0.023800
   112  H    0.021220
   113  H    0.019137
   114  H    0.036965
   115  H    0.029655
   116  H    0.023065
   117  H    0.039686
   118  H    0.000218
   119  H    0.029940
   120  H    0.020829
   121  H    0.029219
   122  H    0.019392
   123  H    0.014345
   124  H    0.032096
   125  H    0.041012
   126  H    0.034424
   127  H    0.028287
   128  H    0.022088
   129  H    0.034683
   130  H    0.036971
   131  H    0.035497
   132  H    0.015664
   133  H    0.036271
   134  H    0.030151
   135  H    0.028007
   136  H    0.043204
   137  H    0.032054
   138  H    0.036165
   139  H    0.039211
   140  H    0.027833
 Sum of Mulliken charges =  -0.00000

 Dipole moment (field-independent basis, Debye):
    X=              3.9923    Y=              0.6281    Z=             -4.2578  Tot=              5.8704
 Quadrupole moment (field-independent basis, Debye-Ang):
   XX=           -359.8659   YY=           -431.0842   ZZ=           -402.7591
   XY=             -0.1624   XZ=              8.9502   YZ=              4.1503

 Normal termination of Gaussian 16 at Wed May  4 13:37:00 2022.
