 Gaussian 16, Revision A.03,
 Gaussian 16:  ES64L-G16RevA.03 25-Dec-2016

 --------------------------------
 #p wB97XD/Def2SVP td=(nstates=5)
 --------------------------------

 ----------------------------------------------------
 step_1751_chromophore_9 TDDFT with wB97XD functional
 ----------------------------------------------------
 Symbolic Z-matrix:
 Charge =  0 Multiplicity = 1

                         Standard orientation:
 ---------------------------------------------------------------------
 Center     Atomic      Atomic             Coordinates (Angstroms)
 Number     Number       Type             X           Y           Z
 ---------------------------------------------------------------------
      1         12           0       -5.327490    0.737510   -0.045794
      2          6           0       -3.774636   -2.495065    0.149324
      3          6           0       -2.160979    2.128984   -0.442622
      4          6           0       -6.794692    3.709200    0.104308
      5          6           0       -8.226031   -0.874682    0.907815
      6          7           0       -3.250513   -0.088304   -0.106410
      7          6           0       -2.880486   -1.369108   -0.058641
      8          6           0       -1.433041   -1.550867   -0.430873
      9          6           0       -0.908059   -0.111900   -0.204686
     10          6           0       -2.135656    0.712481   -0.267541
     11          6           0       -0.171853    0.177909    1.145755
     12          6           0       -1.231322   -2.082084   -1.888502
     13          6           0       -0.221506   -3.264647   -1.979781
     14          6           0        1.040819   -3.055222   -1.217768
     15          8           0        1.137999   -3.102405    0.017659
     16          8           0        2.048282   -2.737755   -2.065876
     17          7           0       -4.597456    2.636372   -0.222929
     18          6           0       -3.241509    3.011077   -0.520854
     19          6           0       -3.181446    4.400044   -0.620483
     20          6           0       -4.453213    4.900066   -0.282835
     21          6           0       -5.404818    3.751697   -0.124496
     22          6           0       -1.868701    5.141146   -0.840633
     23          6           0       -4.866964    6.302359   -0.008749
     24          8           0       -6.043328    6.548005    0.245790
     25          6           0       -3.888437    7.488313   -0.032565
     26          7           0       -7.216076    1.326514    0.587981
     27          6           0       -7.610097    2.655671    0.507041
     28          6           0       -9.137472    2.767653    0.522364
     29          6           0       -9.617421    1.296915    0.690745
     30          6           0       -8.281550    0.507121    0.670983
     31          6           0       -9.708319    3.618498    1.661179
     32          6           0      -10.573884    0.851715   -0.455663
     33          6           0      -10.026027    0.339645   -1.826627
     34          7           0       -5.987193   -1.316998    0.454470
     35          6           0       -7.174300   -1.779247    0.897065
     36          6           0       -7.049247   -3.257481    1.086747
     37          6           0       -5.745835   -3.552298    0.612837
     38          6           0       -5.127386   -2.318096    0.386298
     39          6           0       -8.108321   -4.270294    1.435764
     40          6           0       -4.775596   -4.604921    0.412475
     41          8           0       -4.948456   -5.761607    0.716490
     42          6           0       -3.544394   -3.927768   -0.006601
     43          6           0       -2.484565   -4.348239    0.946248
     44          8           0       -2.293350   -3.826032    2.092874
     45          8           0       -1.872838   -5.536194    0.542223
     46          6           0       -0.754559   -5.954195    1.419676
     47          6           0        3.353380   -2.646993   -1.387489
     48          6           0        4.367032   -2.018533   -2.316996
     49          6           0        5.686560   -2.118770   -2.345830
     50          6           0        6.504837   -2.890386   -1.276290
     51          6           0        6.501764   -1.516513   -3.467537
     52          6           0        6.747690    0.040191   -3.552151
     53          6           0        8.157564    0.417542   -3.871568
     54          6           0        8.829950    1.159881   -2.716557
     55          6           0        8.460379    2.699678   -2.666769
     56          6           0       10.391448    0.916976   -2.781538
     57          6           0       10.918379   -0.034076   -1.673195
     58          6           0       12.022309    0.558752   -0.871089
     59          6           0       11.447186    1.606832    0.179289
     60          6           0       11.764832    3.040667   -0.147335
     61          6           0       11.836431    1.089917    1.558172
     62          6           0       10.855823    1.517313    2.675481
     63          6           0       11.729429    1.829489    3.914195
     64          6           0       11.607924    0.821347    5.060601
     65          6           0       12.063896   -0.576089    4.607138
     66          6           0       10.212847    0.875617    5.780241
     67          1           0       -1.165576    2.503072   -0.694368
     68          1           0       -7.433384    4.585107   -0.027320
     69          1           0       -9.191577   -1.284568    1.214388
     70          1           0       -1.057656   -2.307221    0.258201
     71          1           0       -0.318782    0.232208   -1.054879
     72          1           0        0.880703    0.003666    0.922873
     73          1           0       -0.500012   -0.503285    1.931432
     74          1           0       -0.239963    1.230041    1.423089
     75          1           0       -0.881058   -1.248308   -2.496967
     76          1           0       -2.203082   -2.438933   -2.229064
     77          1           0        0.041775   -3.233928   -3.037156
     78          1           0       -0.730748   -4.178077   -1.670431
     79          1           0       -2.022664    5.948914   -1.556949
     80          1           0       -1.039861    4.583822   -1.276691
     81          1           0       -1.526259    5.436277    0.151306
     82          1           0       -3.038082    7.255561    0.608712
     83          1           0       -4.422525    8.389488    0.267896
     84          1           0       -3.690422    7.515461   -1.104552
     85          1           0       -9.499109    3.213148   -0.403863
     86          1           0      -10.215193    1.142738    1.589066
     87          1           0       -9.737239    3.119365    2.629828
     88          1           0      -10.717659    3.954189    1.424495
     89          1           0       -9.065081    4.483301    1.819814
     90          1           0      -11.273713    1.643589   -0.723532
     91          1           0      -11.407786    0.231001   -0.126650
     92          1           0      -10.469703   -0.640319   -2.000290
     93          1           0       -8.945643    0.223801   -1.746656
     94          1           0      -10.335841    1.077506   -2.567204
     95          1           0       -7.582296   -5.223872    1.487914
     96          1           0       -8.767104   -4.260832    0.567482
     97          1           0       -8.769189   -4.076973    2.281129
     98          1           0       -3.281755   -4.193284   -1.031007
     99          1           0       -0.608048   -5.419772    2.359144
    100          1           0        0.218508   -6.104834    0.951357
    101          1           0       -1.175580   -6.873210    1.827371
    102          1           0        3.792173   -3.629419   -1.211644
    103          1           0        3.447278   -2.153543   -0.419948
    104          1           0        3.855429   -1.394092   -3.050446
    105          1           0        6.755187   -2.174581   -0.493737
    106          1           0        7.454285   -3.317647   -1.597516
    107          1           0        5.893526   -3.623088   -0.748871
    108          1           0        5.815708   -1.757009   -4.279801
    109          1           0        7.409702   -2.118349   -3.497796
    110          1           0        6.431254    0.559996   -2.648593
    111          1           0        6.105431    0.321120   -4.386408
    112          1           0        8.176961    0.995621   -4.795488
    113          1           0        8.645264   -0.477932   -4.258590
    114          1           0        8.506971    0.825942   -1.729880
    115          1           0        7.905290    3.077612   -1.808064
    116          1           0        7.745112    2.994192   -3.435290
    117          1           0        9.333279    3.346628   -2.760009
    118          1           0       10.865265    1.867873   -2.536385
    119          1           0       10.757905    0.732067   -3.791482
    120          1           0       11.280725   -0.951162   -2.136618
    121          1           0       10.137823   -0.339386   -0.976465
    122          1           0       12.895376    1.008802   -1.343803
    123          1           0       12.523142   -0.306935   -0.437370
    124          1           0       10.357611    1.580662    0.174256
    125          1           0       12.195246    3.010459   -1.148428
    126          1           0       12.354093    3.484379    0.655475
    127          1           0       10.830875    3.597122   -0.224097
    128          1           0       12.833354    1.432034    1.833737
    129          1           0       11.934039    0.009955    1.448108
    130          1           0       10.224219    0.667121    2.934895
    131          1           0       10.281677    2.397605    2.385535
    132          1           0       11.286961    2.749203    4.295694
    133          1           0       12.793963    2.000509    3.756699
    134          1           0       12.301945    1.115637    5.848294
    135          1           0       12.622123   -0.387802    3.690008
    136          1           0       11.312134   -1.354560    4.475308
    137          1           0       12.831461   -0.863083    5.325277
    138          1           0        9.709499    1.816477    5.559209
    139          1           0       10.315927    0.739172    6.856870
    140          1           0        9.686574    0.004930    5.389059
 ---------------------------------------------------------------------

 SCF Done:  E(RwB97XD) =  -3007.84255260     A.U. after   18 cycles

 Excitation energies and oscillator strengths:

 Excited State   1:      Singlet-A      1.6681 eV  743.25 nm  f=0.3510  <S**2>=0.000
     245 -> 248       -0.19075
     246 -> 247        0.68066
     245 <- 248       -0.11429
 This state for optimization and/or second-order correction.
 Total Energy, E(TD-HF/TD-DFT) =  -3007.78125014
 Copying the excited state density for this state as the 1-particle RhoCI density.

 Excited State   2:      Singlet-A      2.1704 eV  571.26 nm  f=0.0723  <S**2>=0.000
     245 -> 247        0.61953
     246 -> 248        0.32304

 Excited State   3:      Singlet-A      3.3111 eV  374.45 nm  f=0.2617  <S**2>=0.000
     239 -> 247        0.11709
     239 -> 249       -0.10323
     242 -> 247        0.45149
     244 -> 247       -0.10542
     245 -> 247        0.18792
     246 -> 248       -0.44850

 Excited State   4:      Singlet-A      3.4545 eV  358.90 nm  f=0.2855  <S**2>=0.000
     239 -> 247       -0.13138
     239 -> 249        0.11354
     242 -> 247       -0.27327
     243 -> 247        0.17620
     244 -> 247        0.38859
     245 -> 247        0.21332
     246 -> 248       -0.37241

 Excited State   5:      Singlet-A      3.5899 eV  345.37 nm  f=0.0608  <S**2>=0.000
     239 -> 247        0.29227
     239 -> 249       -0.18325
     243 -> 247       -0.23939
     243 -> 248        0.10113
     243 -> 250       -0.19318
     244 -> 247        0.44980

 The electronic state is 1-A.
 Alpha  occ. eigenvalues --  -46.94666 -19.32593 -19.31012 -19.25748 -19.25154
 Alpha  occ. eigenvalues --  -19.24827 -19.21752 -14.46649 -14.46014 -14.43464
 Alpha  occ. eigenvalues --  -14.43177 -10.44219 -10.44195 -10.39276 -10.37117
 Alpha  occ. eigenvalues --  -10.36675 -10.35253 -10.35126 -10.34601 -10.34237
 Alpha  occ. eigenvalues --  -10.33907 -10.33812 -10.33706 -10.33419 -10.33149
 Alpha  occ. eigenvalues --  -10.32405 -10.32395 -10.32156 -10.32067 -10.31734
 Alpha  occ. eigenvalues --  -10.31663 -10.31241 -10.31240 -10.31092 -10.31011
 Alpha  occ. eigenvalues --  -10.30991 -10.30984 -10.30547 -10.30519 -10.30377
 Alpha  occ. eigenvalues --  -10.30142 -10.30052 -10.29853 -10.29797 -10.29706
 Alpha  occ. eigenvalues --  -10.29645 -10.29544 -10.29319 -10.29164 -10.29149
 Alpha  occ. eigenvalues --  -10.29148 -10.29104 -10.29087 -10.28834 -10.28831
 Alpha  occ. eigenvalues --  -10.28820 -10.28791 -10.28779 -10.28766 -10.28752
 Alpha  occ. eigenvalues --  -10.28329 -10.28193 -10.28158 -10.28108 -10.28077
 Alpha  occ. eigenvalues --  -10.28066  -3.20609  -1.94200  -1.93727  -1.93576
 Alpha  occ. eigenvalues --   -1.20240  -1.17180  -1.13851  -1.10685  -1.10236
 Alpha  occ. eigenvalues --   -1.08236  -1.07040  -1.05916  -1.04864  -1.02380
 Alpha  occ. eigenvalues --   -0.97386  -0.92873  -0.92288  -0.91819  -0.90789
 Alpha  occ. eigenvalues --   -0.90388  -0.90161  -0.89684  -0.89269  -0.88383
 Alpha  occ. eigenvalues --   -0.88060  -0.87344  -0.86476  -0.86066  -0.85018
 Alpha  occ. eigenvalues --   -0.84262  -0.83487  -0.82856  -0.82637  -0.82074
 Alpha  occ. eigenvalues --   -0.81622  -0.80099  -0.79264  -0.79027  -0.78493
 Alpha  occ. eigenvalues --   -0.78156  -0.77560  -0.77241  -0.76998  -0.76040
 Alpha  occ. eigenvalues --   -0.75417  -0.74651  -0.73672  -0.72808  -0.71737
 Alpha  occ. eigenvalues --   -0.70989  -0.70853  -0.69227  -0.68674  -0.67395
 Alpha  occ. eigenvalues --   -0.67357  -0.67133  -0.66666  -0.66390  -0.66177
 Alpha  occ. eigenvalues --   -0.66020  -0.65170  -0.64524  -0.62561  -0.62442
 Alpha  occ. eigenvalues --   -0.62160  -0.61661  -0.61301  -0.60730  -0.60575
 Alpha  occ. eigenvalues --   -0.59007  -0.58726  -0.58493  -0.58029  -0.57711
 Alpha  occ. eigenvalues --   -0.57382  -0.57023  -0.56881  -0.56303  -0.56124
 Alpha  occ. eigenvalues --   -0.56100  -0.55704  -0.55478  -0.55106  -0.54821
 Alpha  occ. eigenvalues --   -0.54482  -0.54307  -0.54146  -0.53815  -0.53404
 Alpha  occ. eigenvalues --   -0.53295  -0.53080  -0.52870  -0.52617  -0.52490
 Alpha  occ. eigenvalues --   -0.52417  -0.52109  -0.51705  -0.51574  -0.51433
 Alpha  occ. eigenvalues --   -0.51090  -0.51060  -0.50847  -0.50653  -0.50404
 Alpha  occ. eigenvalues --   -0.50159  -0.50058  -0.49980  -0.49804  -0.49457
 Alpha  occ. eigenvalues --   -0.49231  -0.48787  -0.48723  -0.48637  -0.48534
 Alpha  occ. eigenvalues --   -0.48086  -0.48031  -0.47721  -0.47642  -0.47467
 Alpha  occ. eigenvalues --   -0.47313  -0.47268  -0.47228  -0.46860  -0.46809
 Alpha  occ. eigenvalues --   -0.46731  -0.46575  -0.46554  -0.46134  -0.46113
 Alpha  occ. eigenvalues --   -0.46048  -0.45933  -0.45651  -0.45166  -0.44856
 Alpha  occ. eigenvalues --   -0.44409  -0.44280  -0.44128  -0.44018  -0.43945
 Alpha  occ. eigenvalues --   -0.43798  -0.43734  -0.43592  -0.43458  -0.43123
 Alpha  occ. eigenvalues --   -0.42577  -0.42534  -0.42482  -0.42448  -0.42030
 Alpha  occ. eigenvalues --   -0.41621  -0.41464  -0.41425  -0.41061  -0.40895
 Alpha  occ. eigenvalues --   -0.40342  -0.40035  -0.39679  -0.39018  -0.38997
 Alpha  occ. eigenvalues --   -0.38976  -0.38623  -0.38430  -0.38326  -0.38130
 Alpha  occ. eigenvalues --   -0.38107  -0.37951  -0.37045  -0.36793  -0.36381
 Alpha  occ. eigenvalues --   -0.36062  -0.35268  -0.34953  -0.33868  -0.32882
 Alpha  occ. eigenvalues --   -0.32053  -0.31834  -0.30979  -0.30900  -0.25580
 Alpha  occ. eigenvalues --   -0.22358
 Alpha virt. eigenvalues --   -0.06327   0.00092   0.02141   0.04617   0.05464
 Alpha virt. eigenvalues --    0.05729   0.06192   0.07954   0.08395   0.10237
 Alpha virt. eigenvalues --    0.10806   0.11341   0.11707   0.12506   0.12680

 Mulliken charges:
               1
     1  Mg   0.943558
     2  C   -0.100484
     3  C   -0.083105
     4  C   -0.067708
     5  C   -0.101573
     6  N   -0.317828
     7  C    0.033409
     8  C   -0.141571
     9  C   -0.089832
    10  C    0.015963
    11  C    0.056677
    12  C    0.026941
    13  C    0.014810
    14  C    0.224336
    15  O   -0.284171
    16  O   -0.343784
    17  N   -0.523815
    18  C    0.195559
    19  C   -0.172551
    20  C   -0.078770
    21  C    0.209868
    22  C    0.072366
    23  C   -0.009875
    24  O   -0.257926
    25  C    0.014498
    26  N   -0.395413
    27  C    0.071435
    28  C   -0.100014
    29  C   -0.010707
    30  C    0.055127
    31  C    0.014208
    32  C   -0.081181
    33  C   -0.034902
    34  N   -0.366345
    35  C    0.153561
    36  C   -0.170114
    37  C   -0.064943
    38  C    0.158233
    39  C    0.064511
    40  C    0.088263
    41  O   -0.178891
    42  C    0.038058
    43  C    0.260917
    44  O   -0.282216
    45  O   -0.365574
    46  C    0.130731
    47  C    0.259996
    48  C   -0.180277
    49  C   -0.206451
    50  C    0.022778
    51  C    0.031847
    52  C    0.006765
    53  C    0.028660
    54  C   -0.177181
    55  C   -0.019118
    56  C    0.045712
    57  C   -0.007242
    58  C   -0.013260
    59  C   -0.208482
    60  C    0.041957
    61  C   -0.007781
    62  C   -0.006209
    63  C   -0.020345
    64  C   -0.234802
    65  C    0.002834
    66  C    0.002155
    67  H   -0.007729
    68  H    0.028583
    69  H   -0.004702
    70  H    0.069732
    71  H    0.016545
    72  H    0.031816
    73  H    0.063993
    74  H    0.032210
    75  H    0.040791
    76  H    0.039707
    77  H    0.056102
    78  H    0.069669
    79  H    0.044057
    80  H    0.032112
    81  H    0.058974
    82  H    0.054296
    83  H    0.051797
    84  H    0.050523
    85  H    0.045453
    86  H    0.038291
    87  H    0.029958
    88  H    0.035635
    89  H    0.043025
    90  H    0.009814
    91  H    0.010655
    92  H    0.041575
    93  H    0.050275
    94  H    0.044287
    95  H    0.067506
    96  H    0.048344
    97  H    0.048209
    98  H    0.068587
    99  H    0.069363
   100  H    0.067310
   101  H    0.048392
   102  H    0.042372
   103  H    0.070982
   104  H    0.019905
   105  H    0.044756
   106  H    0.043514
   107  H    0.023857
   108  H    0.035521
   109  H    0.019145
   110  H    0.027050
   111  H    0.017564
   112  H    0.013646
   113  H    0.009320
   114  H    0.021272
   115  H    0.024769
   116  H    0.016952
   117  H    0.033651
   118  H   -0.021348
   119  H    0.024209
   120  H    0.014093
   121  H    0.018023
   122  H    0.010801
   123  H    0.006060
   124  H    0.013570
   125  H    0.034776
   126  H    0.029221
   127  H    0.022839
   128  H    0.009987
   129  H    0.023015
   130  H    0.026651
   131  H    0.028363
   132  H    0.005760
   133  H    0.026804
   134  H    0.019992
   135  H    0.016420
   136  H    0.038391
   137  H    0.027137
   138  H    0.030232
   139  H    0.034460
   140  H    0.019820
 Sum of Mulliken charges =  -0.00000

 Dipole moment (field-independent basis, Debye):
    X=              3.8421    Y=             -0.1602    Z=             -4.2244  Tot=              5.7125
 Quadrupole moment (field-independent basis, Debye-Ang):
   XX=           -358.2679   YY=           -430.3177   ZZ=           -402.3091
   XY=              4.0088   XZ=              8.7405   YZ=              3.9836

 Normal termination of Gaussian 16 at Wed May  4 14:08:01 2022.
