 Gaussian 16, Revision A.03,
 Gaussian 16:  ES64L-G16RevA.03 25-Dec-2016

 --------------------
 #p ZINDO=(nstates=5)
 --------------------

 -----------------------------
 step_1751_chromophore_9 ZINDO
 -----------------------------
 Symbolic Z-matrix:
 Charge =  0 Multiplicity = 1

                         Standard orientation:
 ---------------------------------------------------------------------
 Center     Atomic      Atomic             Coordinates (Angstroms)
 Number     Number       Type             X           Y           Z
 ---------------------------------------------------------------------
      1         12           0       -5.327490    0.737510   -0.045794
      2          6           0       -3.774636   -2.495065    0.149324
      3          6           0       -2.160979    2.128984   -0.442622
      4          6           0       -6.794692    3.709200    0.104308
      5          6           0       -8.226031   -0.874682    0.907815
      6          7           0       -3.250513   -0.088304   -0.106410
      7          6           0       -2.880486   -1.369108   -0.058641
      8          6           0       -1.433041   -1.550867   -0.430873
      9          6           0       -0.908059   -0.111900   -0.204686
     10          6           0       -2.135656    0.712481   -0.267541
     11          6           0       -0.171853    0.177909    1.145755
     12          6           0       -1.231322   -2.082084   -1.888502
     13          6           0       -0.221506   -3.264647   -1.979781
     14          6           0        1.040819   -3.055222   -1.217768
     15          8           0        1.137999   -3.102405    0.017659
     16          8           0        2.048282   -2.737755   -2.065876
     17          7           0       -4.597456    2.636372   -0.222929
     18          6           0       -3.241509    3.011077   -0.520854
     19          6           0       -3.181446    4.400044   -0.620483
     20          6           0       -4.453213    4.900066   -0.282835
     21          6           0       -5.404818    3.751697   -0.124496
     22          6           0       -1.868701    5.141146   -0.840633
     23          6           0       -4.866964    6.302359   -0.008749
     24          8           0       -6.043328    6.548005    0.245790
     25          6           0       -3.888437    7.488313   -0.032565
     26          7           0       -7.216076    1.326514    0.587981
     27          6           0       -7.610097    2.655671    0.507041
     28          6           0       -9.137472    2.767653    0.522364
     29          6           0       -9.617421    1.296915    0.690745
     30          6           0       -8.281550    0.507121    0.670983
     31          6           0       -9.708319    3.618498    1.661179
     32          6           0      -10.573884    0.851715   -0.455663
     33          6           0      -10.026027    0.339645   -1.826627
     34          7           0       -5.987193   -1.316998    0.454470
     35          6           0       -7.174300   -1.779247    0.897065
     36          6           0       -7.049247   -3.257481    1.086747
     37          6           0       -5.745835   -3.552298    0.612837
     38          6           0       -5.127386   -2.318096    0.386298
     39          6           0       -8.108321   -4.270294    1.435764
     40          6           0       -4.775596   -4.604921    0.412475
     41          8           0       -4.948456   -5.761607    0.716490
     42          6           0       -3.544394   -3.927768   -0.006601
     43          6           0       -2.484565   -4.348239    0.946248
     44          8           0       -2.293350   -3.826032    2.092874
     45          8           0       -1.872838   -5.536194    0.542223
     46          6           0       -0.754559   -5.954195    1.419676
     47          6           0        3.353380   -2.646993   -1.387489
     48          6           0        4.367032   -2.018533   -2.316996
     49          6           0        5.686560   -2.118770   -2.345830
     50          6           0        6.504837   -2.890386   -1.276290
     51          6           0        6.501764   -1.516513   -3.467537
     52          6           0        6.747690    0.040191   -3.552151
     53          6           0        8.157564    0.417542   -3.871568
     54          6           0        8.829950    1.159881   -2.716557
     55          6           0        8.460379    2.699678   -2.666769
     56          6           0       10.391448    0.916976   -2.781538
     57          6           0       10.918379   -0.034076   -1.673195
     58          6           0       12.022309    0.558752   -0.871089
     59          6           0       11.447186    1.606832    0.179289
     60          6           0       11.764832    3.040667   -0.147335
     61          6           0       11.836431    1.089917    1.558172
     62          6           0       10.855823    1.517313    2.675481
     63          6           0       11.729429    1.829489    3.914195
     64          6           0       11.607924    0.821347    5.060601
     65          6           0       12.063896   -0.576089    4.607138
     66          6           0       10.212847    0.875617    5.780241
     67          1           0       -1.165576    2.503072   -0.694368
     68          1           0       -7.433384    4.585107   -0.027320
     69          1           0       -9.191577   -1.284568    1.214388
     70          1           0       -1.057656   -2.307221    0.258201
     71          1           0       -0.318782    0.232208   -1.054879
     72          1           0        0.880703    0.003666    0.922873
     73          1           0       -0.500012   -0.503285    1.931432
     74          1           0       -0.239963    1.230041    1.423089
     75          1           0       -0.881058   -1.248308   -2.496967
     76          1           0       -2.203082   -2.438933   -2.229064
     77          1           0        0.041775   -3.233928   -3.037156
     78          1           0       -0.730748   -4.178077   -1.670431
     79          1           0       -2.022664    5.948914   -1.556949
     80          1           0       -1.039861    4.583822   -1.276691
     81          1           0       -1.526259    5.436277    0.151306
     82          1           0       -3.038082    7.255561    0.608712
     83          1           0       -4.422525    8.389488    0.267896
     84          1           0       -3.690422    7.515461   -1.104552
     85          1           0       -9.499109    3.213148   -0.403863
     86          1           0      -10.215193    1.142738    1.589066
     87          1           0       -9.737239    3.119365    2.629828
     88          1           0      -10.717659    3.954189    1.424495
     89          1           0       -9.065081    4.483301    1.819814
     90          1           0      -11.273713    1.643589   -0.723532
     91          1           0      -11.407786    0.231001   -0.126650
     92          1           0      -10.469703   -0.640319   -2.000290
     93          1           0       -8.945643    0.223801   -1.746656
     94          1           0      -10.335841    1.077506   -2.567204
     95          1           0       -7.582296   -5.223872    1.487914
     96          1           0       -8.767104   -4.260832    0.567482
     97          1           0       -8.769189   -4.076973    2.281129
     98          1           0       -3.281755   -4.193284   -1.031007
     99          1           0       -0.608048   -5.419772    2.359144
    100          1           0        0.218508   -6.104834    0.951357
    101          1           0       -1.175580   -6.873210    1.827371
    102          1           0        3.792173   -3.629419   -1.211644
    103          1           0        3.447278   -2.153543   -0.419948
    104          1           0        3.855429   -1.394092   -3.050446
    105          1           0        6.755187   -2.174581   -0.493737
    106          1           0        7.454285   -3.317647   -1.597516
    107          1           0        5.893526   -3.623088   -0.748871
    108          1           0        5.815708   -1.757009   -4.279801
    109          1           0        7.409702   -2.118349   -3.497796
    110          1           0        6.431254    0.559996   -2.648593
    111          1           0        6.105431    0.321120   -4.386408
    112          1           0        8.176961    0.995621   -4.795488
    113          1           0        8.645264   -0.477932   -4.258590
    114          1           0        8.506971    0.825942   -1.729880
    115          1           0        7.905290    3.077612   -1.808064
    116          1           0        7.745112    2.994192   -3.435290
    117          1           0        9.333279    3.346628   -2.760009
    118          1           0       10.865265    1.867873   -2.536385
    119          1           0       10.757905    0.732067   -3.791482
    120          1           0       11.280725   -0.951162   -2.136618
    121          1           0       10.137823   -0.339386   -0.976465
    122          1           0       12.895376    1.008802   -1.343803
    123          1           0       12.523142   -0.306935   -0.437370
    124          1           0       10.357611    1.580662    0.174256
    125          1           0       12.195246    3.010459   -1.148428
    126          1           0       12.354093    3.484379    0.655475
    127          1           0       10.830875    3.597122   -0.224097
    128          1           0       12.833354    1.432034    1.833737
    129          1           0       11.934039    0.009955    1.448108
    130          1           0       10.224219    0.667121    2.934895
    131          1           0       10.281677    2.397605    2.385535
    132          1           0       11.286961    2.749203    4.295694
    133          1           0       12.793963    2.000509    3.756699
    134          1           0       12.301945    1.115637    5.848294
    135          1           0       12.622123   -0.387802    3.690008
    136          1           0       11.312134   -1.354560    4.475308
    137          1           0       12.831461   -0.863083    5.325277
    138          1           0        9.709499    1.816477    5.559209
    139          1           0       10.315927    0.739172    6.856870
    140          1           0        9.686574    0.004930    5.389059
 ---------------------------------------------------------------------

 SCF Done:  E(RZINDO/S) =  -474.522707597     A.U. after   20 cycles

 Excitation energies and oscillator strengths:

 Excited State   1:      Singlet-A      1.3043 eV  950.57 nm  f=0.5199  <S**2>=0.000
     175 ->178        -0.18003
     176 ->177         0.66690
 This state for optimization and/or second-order correction.
 Total Energy, E(CIS/TDA) =  -474.474774983
 Copying the excited state density for this state as the 1-particle RhoCI density.

 Excited State   2:      Singlet-A      1.8867 eV  657.14 nm  f=0.0159  <S**2>=0.000
     175 ->177         0.51601
     176 ->178         0.45326

 Excited State   3:      Singlet-A      2.7919 eV  444.09 nm  f=0.0577  <S**2>=0.000
     167 ->177        -0.15251
     167 ->179         0.21718
     168 ->177        -0.28062
     168 ->179         0.31491
     168 ->182        -0.10354
     168 ->186         0.13490
     169 ->177        -0.12646
     169 ->179         0.13375
     171 ->177        -0.17977
     175 ->177        -0.10228
     176 ->178         0.14986

 Excited State   4:      Singlet-A      2.8917 eV  428.76 nm  f=0.3333  <S**2>=0.000
     168 ->177         0.10092
     168 ->179        -0.11506
     175 ->177        -0.22406
     176 ->178         0.30987
     176 ->179         0.49375
     176 ->181         0.16770

 Excited State   5:      Singlet-A      2.9433 eV  421.24 nm  f=0.7579  <S**2>=0.000
     171 ->177         0.10488
     175 ->177         0.33615
     176 ->178        -0.35449
     176 ->179         0.37403
     176 ->181         0.18403
     176 ->182         0.14297

 The electronic state is 1-A.
 Alpha  occ. eigenvalues --   -1.87489  -1.81684  -1.79256  -1.74383  -1.72906
 Alpha  occ. eigenvalues --   -1.70558  -1.67815  -1.61703  -1.61407  -1.57053
 Alpha  occ. eigenvalues --   -1.56895  -1.52275  -1.51227  -1.48287  -1.45902
 Alpha  occ. eigenvalues --   -1.42637  -1.41927  -1.40297  -1.39773  -1.38380
 Alpha  occ. eigenvalues --   -1.36655  -1.33380  -1.32179  -1.30446  -1.28979
 Alpha  occ. eigenvalues --   -1.27180  -1.24941  -1.22276  -1.20167  -1.18294
 Alpha  occ. eigenvalues --   -1.17603  -1.17417  -1.16153  -1.15290  -1.14787
 Alpha  occ. eigenvalues --   -1.12524  -1.10340  -1.08943  -1.05434  -1.04518
 Alpha  occ. eigenvalues --   -1.02128  -1.01756  -1.00222  -0.98042  -0.97635
 Alpha  occ. eigenvalues --   -0.96074  -0.94867  -0.94334  -0.92473  -0.91818
 Alpha  occ. eigenvalues --   -0.91595  -0.90105  -0.89888  -0.87525  -0.86314
 Alpha  occ. eigenvalues --   -0.84564  -0.82869  -0.82205  -0.81733  -0.80607
 Alpha  occ. eigenvalues --   -0.79754  -0.79150  -0.78467  -0.77719  -0.77031
 Alpha  occ. eigenvalues --   -0.76234  -0.75431  -0.75285  -0.75037  -0.73571
 Alpha  occ. eigenvalues --   -0.73321  -0.72225  -0.71995  -0.71346  -0.70459
 Alpha  occ. eigenvalues --   -0.69473  -0.69213  -0.68471  -0.68064  -0.67425
 Alpha  occ. eigenvalues --   -0.67351  -0.67212  -0.66664  -0.66314  -0.65397
 Alpha  occ. eigenvalues --   -0.65323  -0.64448  -0.64049  -0.63433  -0.63289
 Alpha  occ. eigenvalues --   -0.62913  -0.62657  -0.62377  -0.62170  -0.61579
 Alpha  occ. eigenvalues --   -0.61083  -0.61011  -0.60621  -0.60358  -0.60188
 Alpha  occ. eigenvalues --   -0.59863  -0.59464  -0.58310  -0.57997  -0.57808
 Alpha  occ. eigenvalues --   -0.57472  -0.57162  -0.56850  -0.56770  -0.55967
 Alpha  occ. eigenvalues --   -0.55661  -0.55319  -0.55068  -0.55032  -0.54374
 Alpha  occ. eigenvalues --   -0.54168  -0.54009  -0.53874  -0.53693  -0.53593
 Alpha  occ. eigenvalues --   -0.53165  -0.52969  -0.52358  -0.51469  -0.51209
 Alpha  occ. eigenvalues --   -0.51005  -0.50633  -0.50361  -0.50124  -0.49912
 Alpha  occ. eigenvalues --   -0.49829  -0.49765  -0.49504  -0.49262  -0.48814
 Alpha  occ. eigenvalues --   -0.48548  -0.48395  -0.48265  -0.47896  -0.47743
 Alpha  occ. eigenvalues --   -0.47291  -0.47100  -0.46826  -0.46499  -0.46173
 Alpha  occ. eigenvalues --   -0.45811  -0.45597  -0.45433  -0.45270  -0.44893
 Alpha  occ. eigenvalues --   -0.44663  -0.44407  -0.43936  -0.43876  -0.43626
 Alpha  occ. eigenvalues --   -0.43354  -0.43034  -0.42759  -0.42448  -0.42057
 Alpha  occ. eigenvalues --   -0.41484  -0.40919  -0.39784  -0.39091  -0.38671
 Alpha  occ. eigenvalues --   -0.38354  -0.36948  -0.35725  -0.34827  -0.33187
 Alpha  occ. eigenvalues --   -0.32975  -0.32464  -0.31507  -0.31317  -0.26192
 Alpha  occ. eigenvalues --   -0.21231
 Alpha virt. eigenvalues --   -0.07674  -0.01959  -0.01263   0.00962   0.01165
 Alpha virt. eigenvalues --    0.02327   0.02441   0.03371   0.05062   0.05250
 Alpha virt. eigenvalues --    0.06866   0.07136   0.07763   0.08130   0.08624

 Mulliken charges:
               1
     1  Mg   0.419827
     2  C   -0.067933
     3  C   -0.067970
     4  C   -0.040948
     5  C   -0.078460
     6  N   -0.269388
     7  C    0.161882
     8  C    0.000690
     9  C    0.013312
    10  C    0.084995
    11  C   -0.045062
    12  C   -0.019126
    13  C    0.004113
    14  C    0.475956
    15  O   -0.531354
    16  O   -0.250406
    17  N   -0.333975
    18  C    0.060537
    19  C    0.002158
    20  C   -0.061432
    21  C    0.127824
    22  C   -0.046724
    23  C    0.311185
    24  O   -0.554423
    25  C   -0.035029
    26  N   -0.267642
    27  C    0.091967
    28  C    0.009141
    29  C    0.009292
    30  C    0.175965
    31  C   -0.050765
    32  C   -0.048955
    33  C   -0.055810
    34  N   -0.338177
    35  C    0.139196
    36  C    0.051154
    37  C   -0.051120
    38  C    0.132144
    39  C   -0.036236
    40  C    0.354816
    41  O   -0.504175
    42  C    0.085172
    43  C    0.483650
    44  O   -0.533603
    45  O   -0.263410
    46  C    0.066182
    47  C    0.098697
    48  C   -0.086705
    49  C   -0.011045
    50  C   -0.050843
    51  C   -0.032642
    52  C   -0.027373
    53  C   -0.024168
    54  C   -0.004610
    55  C   -0.065666
    56  C   -0.045282
    57  C   -0.022762
    58  C   -0.036263
    59  C   -0.017794
    60  C   -0.056464
    61  C   -0.037803
    62  C   -0.035560
    63  C   -0.033599
    64  C   -0.015061
    65  C   -0.061035
    66  C   -0.061648
    67  H    0.021397
    68  H    0.045469
    69  H    0.011644
    70  H    0.050746
    71  H    0.022287
    72  H    0.014218
    73  H    0.038967
    74  H    0.026506
    75  H    0.032340
    76  H    0.022893
    77  H    0.028951
    78  H    0.050279
    79  H    0.022831
    80  H    0.018981
    81  H    0.032587
    82  H    0.039061
    83  H    0.039259
    84  H    0.040299
    85  H    0.036264
    86  H    0.038297
    87  H    0.018997
    88  H    0.017464
    89  H    0.023373
    90  H    0.008174
    91  H    0.014501
    92  H    0.021122
    93  H    0.028463
    94  H    0.027457
    95  H    0.041596
    96  H    0.030220
    97  H    0.038441
    98  H    0.057317
    99  H    0.057053
   100  H    0.047257
   101  H    0.029919
   102  H    0.042144
   103  H    0.064503
   104  H    0.022375
   105  H    0.023946
   106  H    0.028548
   107  H    0.022517
   108  H    0.022899
   109  H    0.027067
   110  H    0.026490
   111  H    0.015513
   112  H    0.014177
   113  H    0.016708
   114  H    0.025455
   115  H    0.018039
   116  H    0.012403
   117  H    0.020627
   118  H    0.011073
   119  H    0.026769
   120  H    0.006824
   121  H    0.023393
   122  H    0.020424
   123  H    0.005806
   124  H    0.014774
   125  H    0.025743
   126  H    0.025773
   127  H    0.013688
   128  H    0.017999
   129  H    0.018122
   130  H    0.025601
   131  H    0.026933
   132  H    0.000897
   133  H    0.025134
   134  H    0.008612
   135  H    0.016847
   136  H    0.030545
   137  H    0.013447
   138  H    0.024609
   139  H    0.019177
   140  H    0.018362
 Sum of Mulliken charges =  -0.00000

 Dipole moment (field-independent basis, Debye):
    X=              3.0734    Y=             -2.2441    Z=             -6.8991  Tot=              7.8790
 N-N= 4.356799538752D+03 E-N= 0.000000000000D+00  KE=-9.388491854682D+03
 Leave Link  601 at Wed May  4 14:21:07 2022, MaxMem=  6710886400 cpu:               0.9 elap:               0.1
 (Enter /sw/apps/gaussian-16.0/g16/l9999.exe)
 1\1\GINC-BP1-COMPUTE092\SP\RZINDO CIS\STO-3G\C55H74Mg1N4O6\OF15641\04-
 May-2022\0\\#p ZINDO=(nstates=5)\\step_1751_chromophore_9 ZINDO\\0,1\M
 g,0,36.345,0.963,29.649\C,0,34.206,2.011,32.337\C,0,39.014,1.004,31.88
 4\C,0,38.311,0.309,27.058\C,0,33.634,1.551,27.596\N,0,36.566,1.472,31.
 815\C,0,35.604,1.808,32.676\C,0,36.089,1.779,34.101\C,0,37.618,1.866,3
 3.873\C,0,37.78,1.414,32.473\C,0,38.287,3.272,34.032\C,0,35.632,0.504,
 34.884\C,0,35.044,0.822,36.291\C,0,35.852,1.783,37.092\O,0,35.922,3.00

 Normal termination of Gaussian 16 at Wed May  4 14:21:07 2022.
