 Gaussian 16, Revision A.03,
 Gaussian 16:  ES64L-G16RevA.03 25-Dec-2016

 ------------------------------
 #p blyp/Def2SVP td=(nstates=5)
 ------------------------------

 -------------------------------------------------
 step_701_chromophore_9 TDDFT with blyp functional
 -------------------------------------------------
 Symbolic Z-matrix:
 Charge =  0 Multiplicity = 1

                         Standard orientation:
 ---------------------------------------------------------------------
 Center     Atomic      Atomic             Coordinates (Angstroms)
 Number     Number       Type             X           Y           Z
 ---------------------------------------------------------------------
      1         12           0       -5.343302    0.816017   -0.251732
      2          6           0       -4.027418   -2.481592    0.097347
      3          6           0       -2.065832    1.901953   -0.361263
      4          6           0       -6.563003    3.866390   -0.052058
      5          6           0       -8.497901   -0.586124    0.556265
      6          7           0       -3.235487   -0.190030   -0.124091
      7          6           0       -2.957553   -1.509911   -0.155533
      8          6           0       -1.480466   -1.834350   -0.387167
      9          6           0       -0.806556   -0.390741   -0.392575
     10          6           0       -2.097514    0.494201   -0.261415
     11          6           0        0.030435   -0.176451    0.881844
     12          6           0       -1.235266   -2.652222   -1.734214
     13          6           0        0.142426   -3.381352   -1.965543
     14          6           0        1.129122   -3.295693   -0.780301
     15          8           0        1.013664   -3.851575    0.324698
     16          8           0        2.319542   -2.652712   -1.172076
     17          7           0       -4.447625    2.658924   -0.186749
     18          6           0       -3.123076    2.900961   -0.249284
     19          6           0       -2.916144    4.403554   -0.392235
     20          6           0       -4.272705    5.018263   -0.314550
     21          6           0       -5.145470    3.832591   -0.132619
     22          6           0       -1.520680    4.935084   -0.659572
     23          6           0       -4.813870    6.420223   -0.401420
     24          8           0       -5.982947    6.718589   -0.524101
     25          6           0       -3.823976    7.470240   -0.597891
     26          7           0       -7.317935    1.489043    0.136443
     27          6           0       -7.500622    2.821250    0.185213
     28          6           0       -8.986554    3.171162    0.562538
     29          6           0       -9.573756    1.689761    0.729263
     30          6           0       -8.387721    0.770118    0.431044
     31          6           0       -9.047335    4.105406    1.876596
     32          6           0      -10.855270    1.448660   -0.177555
     33          6           0      -10.646590    1.146154   -1.650545
     34          7           0       -6.163615   -1.115586    0.094146
     35          6           0       -7.489997   -1.542188    0.396511
     36          6           0       -7.598791   -3.005032    0.521496
     37          6           0       -6.223008   -3.420153    0.440180
     38          6           0       -5.433722   -2.232013    0.233463
     39          6           0       -8.880293   -3.667072    0.834330
     40          6           0       -5.339650   -4.550028    0.525753
     41          8           0       -5.567338   -5.702002    0.679269
     42          6           0       -3.905151   -4.016650    0.220974
     43          6           0       -2.842023   -4.536489    1.165541
     44          8           0       -2.620432   -3.952163    2.176403
     45          8           0       -2.227802   -5.671216    0.618598
     46          6           0       -1.151450   -6.253446    1.458677
     47          6           0        3.439752   -2.714361   -0.154948
     48          6           0        4.610932   -1.820942   -0.554827
     49          6           0        5.789967   -2.316199   -0.951179
     50          6           0        6.153426   -3.751077   -1.239584
     51          6           0        7.030535   -1.444776   -0.955954
     52          6           0        7.333083   -0.952409   -2.356944
     53          6           0        8.878456   -0.964278   -2.567156
     54          6           0        9.331450   -0.000641   -3.712158
     55          6           0        9.391616   -0.738844   -5.052760
     56          6           0       10.669879    0.895819   -3.412070
     57          6           0       10.405166    1.978714   -2.333395
     58          6           0       11.702235    2.348514   -1.490518
     59          6           0       11.375124    2.599868    0.023829
     60          6           0       12.521139    3.504960    0.548778
     61          6           0       11.326837    1.257584    0.879265
     62          6           0       10.378889    1.316539    2.088541
     63          6           0       10.970438    0.476558    3.329527
     64          6           0       11.181391    1.236184    4.684147
     65          6           0       12.271682    2.289820    4.608341
     66          6           0       11.480024    0.347754    5.855434
     67          1           0       -1.063527    2.320874   -0.470650
     68          1           0       -7.097717    4.818479   -0.061775
     69          1           0       -9.476209   -0.896495    0.927913
     70          1           0       -1.102106   -2.405632    0.460651
     71          1           0       -0.247056   -0.367459   -1.326999
     72          1           0       -0.195490   -0.908097    1.658355
     73          1           0       -0.138522    0.816581    1.299793
     74          1           0        1.116955   -0.112861    0.809900
     75          1           0       -1.365384   -1.781653   -2.375836
     76          1           0       -1.997724   -3.408707   -1.919134
     77          1           0        0.662668   -3.109876   -2.884848
     78          1           0       -0.122448   -4.436826   -2.036042
     79          1           0       -1.452815    6.019629   -0.739007
     80          1           0       -1.204423    4.517836   -1.614883
     81          1           0       -0.956345    4.608300    0.213683
     82          1           0       -2.973420    7.524542    0.081401
     83          1           0       -4.242833    8.463686   -0.756779
     84          1           0       -3.497457    7.187643   -1.599211
     85          1           0       -9.403733    3.639289   -0.328974
     86          1           0       -9.859700    1.364982    1.729776
     87          1           0       -9.714592    4.946077    1.686681
     88          1           0       -8.049911    4.477430    2.113191
     89          1           0       -9.379507    3.462358    2.690826
     90          1           0      -11.604166    2.231245   -0.053645
     91          1           0      -11.165726    0.534332    0.327427
     92          1           0      -10.844926    0.097027   -1.871199
     93          1           0       -9.612819    1.294656   -1.960524
     94          1           0      -11.273945    1.869849   -2.171183
     95          1           0       -9.731114   -3.052493    1.129575
     96          1           0       -8.689541   -4.419230    1.599872
     97          1           0       -9.215561   -4.294119    0.008365
     98          1           0       -3.573709   -4.460687   -0.718064
     99          1           0       -1.656144   -6.629877    2.348256
    100          1           0       -0.528400   -5.477656    1.905152
    101          1           0       -0.723085   -7.108768    0.937247
    102          1           0        3.758740   -3.753572   -0.233128
    103          1           0        3.067081   -2.488287    0.844317
    104          1           0        4.582737   -0.774412   -0.250829
    105          1           0        6.916641   -3.731183   -2.017793
    106          1           0        5.232005   -4.168051   -1.645439
    107          1           0        6.337932   -4.146260   -0.240029
    108          1           0        7.847175   -2.095483   -0.644135
    109          1           0        6.902535   -0.638776   -0.233145
    110          1           0        7.030475    0.087291   -2.483880
    111          1           0        6.839321   -1.667458   -3.015619
    112          1           0        9.140579   -1.972691   -2.887928
    113          1           0        9.368270   -0.696798   -1.630950
    114          1           0        8.558730    0.749300   -3.877993
    115          1           0        8.668752   -0.308322   -5.745693
    116          1           0        9.147463   -1.798427   -4.970958
    117          1           0       10.371224   -0.561712   -5.494904
    118          1           0       10.945994    1.309254   -4.381224
    119          1           0       11.544289    0.345119   -3.066148
    120          1           0        9.633957    1.711042   -1.611992
    121          1           0       10.189561    2.857495   -2.940906
    122          1           0       12.059415    3.256793   -1.975744
    123          1           0       12.427934    1.540873   -1.402836
    124          1           0       10.430794    3.133368    0.130458
    125          1           0       12.750105    3.141681    1.550643
    126          1           0       12.180103    4.540153    0.575220
    127          1           0       13.384201    3.372463   -0.103604
    128          1           0       12.323795    1.048551    1.266184
    129          1           0       11.043370    0.421104    0.239811
    130          1           0        9.480082    0.803142    1.747125
    131          1           0       10.201059    2.348865    2.386493
    132          1           0       11.886279   -0.029669    3.023980
    133          1           0       10.196928   -0.259188    3.547960
    134          1           0       10.244246    1.744559    4.906854
    135          1           0       13.044626    2.049175    3.878540
    136          1           0       12.767138    2.469682    5.562130
    137          1           0       11.817066    3.255676    4.388053
    138          1           0       11.318079    0.935655    6.759890
    139          1           0       12.513143    0.001973    5.828979
    140          1           0       11.015525   -0.636816    5.813181
 ---------------------------------------------------------------------

 SCF Done:  E(RB-LYP) =  -3007.38642065     A.U. after   22 cycles

 Excitation energies and oscillator strengths:

 Excited State   1:      Singlet-A      1.8223 eV  680.37 nm  f=0.2998  <S**2>=0.000
     245 -> 248        0.21539
     246 -> 247        0.68225
     246 <- 247       -0.14252
 This state for optimization and/or second-order correction.
 Total Energy, E(TD-HF/TD-DFT) =  -3007.31945188
 Copying the excited state density for this state as the 1-particle RhoCI density.

 Excited State   2:      Singlet-A      1.9421 eV  638.41 nm  f=0.0581  <S**2>=0.000
     244 -> 247        0.26815
     245 -> 247        0.60981
     246 -> 248       -0.21096

 Excited State   3:      Singlet-A      2.0049 eV  618.42 nm  f=0.0111  <S**2>=0.000
     244 -> 247        0.65347
     245 -> 247       -0.24157
     246 -> 248        0.10540

 Excited State   4:      Singlet-A      2.1540 eV  575.61 nm  f=0.0014  <S**2>=0.000
     243 -> 247        0.70595

 Excited State   5:      Singlet-A      2.6051 eV  475.93 nm  f=0.0005  <S**2>=0.000
     240 -> 247       -0.18255
     242 -> 247        0.65495
     246 -> 248        0.14358

 The electronic state is 1-A.
 Alpha  occ. eigenvalues --  -46.27919 -18.81763 -18.81046 -18.77572 -18.76250
 Alpha  occ. eigenvalues --  -18.75443 -18.74874 -14.03229 -14.02554 -14.01417
 Alpha  occ. eigenvalues --  -14.00701 -10.04691 -10.02702  -9.99701  -9.98566
 Alpha  occ. eigenvalues --   -9.98073  -9.96696  -9.96386  -9.96298  -9.96166
 Alpha  occ. eigenvalues --   -9.95894  -9.95738  -9.95295  -9.95247  -9.95009
 Alpha  occ. eigenvalues --   -9.94530  -9.94503  -9.94483  -9.94120  -9.94061
 Alpha  occ. eigenvalues --   -9.93788  -9.93593  -9.93533  -9.93448  -9.93268
 Alpha  occ. eigenvalues --   -9.93229  -9.93154  -9.93102  -9.92825  -9.92441
 Alpha  occ. eigenvalues --   -9.92407  -9.92344  -9.92293  -9.92153  -9.92132
 Alpha  occ. eigenvalues --   -9.92108  -9.92041  -9.91977  -9.91919  -9.91888
 Alpha  occ. eigenvalues --   -9.91887  -9.91857  -9.91782  -9.91755  -9.91700
 Alpha  occ. eigenvalues --   -9.91661  -9.91554  -9.91502  -9.91466  -9.91425
 Alpha  occ. eigenvalues --   -9.91266  -9.91179  -9.90960  -9.90756  -9.90742
 Alpha  occ. eigenvalues --   -9.90723  -2.92424  -1.72847  -1.72320  -1.72125
 Alpha  occ. eigenvalues --   -0.96399  -0.96074  -0.92599  -0.92239  -0.89934
 Alpha  occ. eigenvalues --   -0.88755  -0.86664  -0.86320  -0.84993  -0.84312
 Alpha  occ. eigenvalues --   -0.74924  -0.73847  -0.72752  -0.72361  -0.71962
 Alpha  occ. eigenvalues --   -0.71522  -0.71144  -0.70596  -0.70020  -0.69978
 Alpha  occ. eigenvalues --   -0.69633  -0.68924  -0.68213  -0.67033  -0.66620
 Alpha  occ. eigenvalues --   -0.66580  -0.65894  -0.65235  -0.64753  -0.64501
 Alpha  occ. eigenvalues --   -0.63440  -0.62378  -0.62212  -0.61091  -0.60840
 Alpha  occ. eigenvalues --   -0.60199  -0.59834  -0.59191  -0.59155  -0.58852
 Alpha  occ. eigenvalues --   -0.58055  -0.57075  -0.56097  -0.55479  -0.54453
 Alpha  occ. eigenvalues --   -0.53416  -0.53286  -0.52566  -0.52427  -0.51362
 Alpha  occ. eigenvalues --   -0.51233  -0.50961  -0.49967  -0.49797  -0.49359
 Alpha  occ. eigenvalues --   -0.49266  -0.48696  -0.48394  -0.47204  -0.46071
 Alpha  occ. eigenvalues --   -0.46050  -0.45820  -0.45157  -0.44447  -0.44335
 Alpha  occ. eigenvalues --   -0.43225  -0.42875  -0.42713  -0.42640  -0.42279
 Alpha  occ. eigenvalues --   -0.42076  -0.41587  -0.41471  -0.41232  -0.41122
 Alpha  occ. eigenvalues --   -0.40949  -0.40565  -0.40343  -0.40252  -0.40148
 Alpha  occ. eigenvalues --   -0.39935  -0.39882  -0.39820  -0.39173  -0.39092
 Alpha  occ. eigenvalues --   -0.38863  -0.38614  -0.38563  -0.38445  -0.38370
 Alpha  occ. eigenvalues --   -0.38240  -0.37924  -0.37772  -0.37646  -0.37041
 Alpha  occ. eigenvalues --   -0.36938  -0.36856  -0.36641  -0.36357  -0.36312
 Alpha  occ. eigenvalues --   -0.35977  -0.35823  -0.35672  -0.35547  -0.35537
 Alpha  occ. eigenvalues --   -0.35314  -0.34910  -0.34724  -0.34482  -0.34260
 Alpha  occ. eigenvalues --   -0.34198  -0.34129  -0.34020  -0.33804  -0.33667
 Alpha  occ. eigenvalues --   -0.33634  -0.33556  -0.33304  -0.33155  -0.33070
 Alpha  occ. eigenvalues --   -0.32882  -0.32759  -0.32703  -0.32558  -0.32242
 Alpha  occ. eigenvalues --   -0.32161  -0.32058  -0.32039  -0.31776  -0.31436
 Alpha  occ. eigenvalues --   -0.31249  -0.31019  -0.30844  -0.30659  -0.30619
 Alpha  occ. eigenvalues --   -0.30394  -0.30204  -0.30075  -0.29866  -0.29593
 Alpha  occ. eigenvalues --   -0.29458  -0.29377  -0.29288  -0.29275  -0.28978
 Alpha  occ. eigenvalues --   -0.28780  -0.28382  -0.28295  -0.28210  -0.27748
 Alpha  occ. eigenvalues --   -0.27706  -0.27351  -0.27184  -0.26574  -0.26490
 Alpha  occ. eigenvalues --   -0.26417  -0.26017  -0.25822  -0.25486  -0.25217
 Alpha  occ. eigenvalues --   -0.25159  -0.24931  -0.24158  -0.23871  -0.23400
 Alpha  occ. eigenvalues --   -0.23150  -0.22720  -0.21505  -0.21098  -0.20839
 Alpha  occ. eigenvalues --   -0.20468  -0.20014  -0.18770  -0.18166  -0.16512
 Alpha  occ. eigenvalues --   -0.15327
 Alpha virt. eigenvalues --   -0.10944  -0.06520  -0.05984  -0.04027  -0.03940
 Alpha virt. eigenvalues --   -0.03060  -0.02703  -0.01341  -0.00986   0.00603
 Alpha virt. eigenvalues --    0.01366   0.01618   0.02060   0.02378   0.02619

 Mulliken charges:
               1
     1  Mg   0.705198
     2  C    0.050098
     3  C   -0.052351
     4  C   -0.017629
     5  C   -0.083527
     6  N   -0.145936
     7  C   -0.072683
     8  C   -0.005026
     9  C    0.015312
    10  C    0.001973
    11  C    0.113420
    12  C    0.058201
    13  C    0.189365
    14  C    0.075180
    15  O   -0.213713
    16  O   -0.306721
    17  N   -0.289000
    18  C    0.108969
    19  C   -0.171165
    20  C    0.008557
    21  C    0.107296
    22  C    0.169166
    23  C   -0.056733
    24  O   -0.150507
    25  C    0.127702
    26  N   -0.185060
    27  C   -0.047126
    28  C    0.030600
    29  C    0.021272
    30  C   -0.010798
    31  C    0.123131
    32  C    0.042779
    33  C    0.090346
    34  N   -0.264154
    35  C    0.127084
    36  C   -0.136681
    37  C    0.069717
    38  C    0.050256
    39  C    0.176137
    40  C   -0.060574
    41  O   -0.084855
    42  C   -0.008397
    43  C    0.098923
    44  O   -0.149007
    45  O   -0.298912
    46  C    0.240753
    47  C    0.291479
    48  C   -0.041503
    49  C   -0.232242
    50  C    0.169479
    51  C    0.140095
    52  C    0.080011
    53  C    0.074936
    54  C   -0.087257
    55  C    0.120962
    56  C    0.085742
    57  C    0.068897
    58  C    0.080071
    59  C   -0.123629
    60  C    0.125483
    61  C    0.066328
    62  C    0.095731
    63  C    0.064388
    64  C   -0.066324
    65  C    0.099079
    66  C    0.112476
    67  H   -0.067975
    68  H   -0.038182
    69  H   -0.074875
    70  H    0.020357
    71  H   -0.013908
    72  H    0.011438
    73  H   -0.021961
    74  H   -0.016456
    75  H   -0.016620
    76  H   -0.002470
    77  H   -0.001488
    78  H    0.002621
    79  H   -0.022763
    80  H    0.015728
    81  H    0.016711
    82  H    0.017091
    83  H   -0.016242
    84  H    0.007437
    85  H   -0.014333
    86  H   -0.027106
    87  H    0.001489
    88  H    0.005639
    89  H   -0.010894
    90  H   -0.011246
    91  H   -0.031573
    92  H   -0.005567
    93  H   -0.006025
    94  H   -0.006135
    95  H   -0.007709
    96  H    0.003179
    97  H   -0.002763
    98  H    0.000844
    99  H   -0.010733
   100  H    0.026032
   101  H    0.017863
   102  H   -0.021425
   103  H    0.014508
   104  H   -0.045423
   105  H    0.002263
   106  H    0.005003
   107  H    0.026834
   108  H   -0.033049
   109  H   -0.025955
   110  H   -0.020728
   111  H   -0.019641
   112  H   -0.028303
   113  H   -0.017599
   114  H   -0.035551
   115  H   -0.022757
   116  H   -0.019497
   117  H   -0.020415
   118  H   -0.034712
   119  H   -0.034715
   120  H   -0.014513
   121  H   -0.027110
   122  H   -0.025594
   123  H   -0.020194
   124  H   -0.037522
   125  H   -0.026213
   126  H   -0.012836
   127  H   -0.014183
   128  H   -0.030822
   129  H   -0.029165
   130  H   -0.026331
   131  H   -0.018538
   132  H   -0.025336
   133  H   -0.037179
   134  H   -0.038851
   135  H   -0.001627
   136  H   -0.028750
   137  H   -0.019557
   138  H   -0.004006
   139  H   -0.031994
   140  H   -0.033000
 Sum of Mulliken charges =  -0.00000

 Dipole moment (field-independent basis, Debye):
    X=              4.9026    Y=              2.0079    Z=             -2.6532  Tot=              5.9251
 Quadrupole moment (field-independent basis, Debye-Ang):
   XX=           -379.9654   YY=           -429.6655   ZZ=           -405.9690
   XY=             -9.4846   XZ=              2.4470   YZ=              8.6863

 Normal termination of Gaussian 16 at Thu May  5 08:36:02 2022.
