 Gaussian 16, Revision A.03,
 Gaussian 16:  ES64L-G16RevA.03 25-Dec-2016

 -----------------------------------
 #p cam-b3lyp/Def2SVP td=(nstates=5)
 -----------------------------------

 ------------------------------------------------------
 step_701_chromophore_9 TDDFT with cam-b3lyp functional
 ------------------------------------------------------
 Symbolic Z-matrix:
 Charge =  0 Multiplicity = 1

                         Standard orientation:
 ---------------------------------------------------------------------
 Center     Atomic      Atomic             Coordinates (Angstroms)
 Number     Number       Type             X           Y           Z
 ---------------------------------------------------------------------
      1         12           0       -5.343302    0.816017   -0.251732
      2          6           0       -4.027418   -2.481592    0.097347
      3          6           0       -2.065832    1.901953   -0.361263
      4          6           0       -6.563003    3.866390   -0.052058
      5          6           0       -8.497901   -0.586124    0.556265
      6          7           0       -3.235487   -0.190030   -0.124091
      7          6           0       -2.957553   -1.509911   -0.155533
      8          6           0       -1.480466   -1.834350   -0.387167
      9          6           0       -0.806556   -0.390741   -0.392575
     10          6           0       -2.097514    0.494201   -0.261415
     11          6           0        0.030435   -0.176451    0.881844
     12          6           0       -1.235266   -2.652222   -1.734214
     13          6           0        0.142426   -3.381352   -1.965543
     14          6           0        1.129122   -3.295693   -0.780301
     15          8           0        1.013664   -3.851575    0.324698
     16          8           0        2.319542   -2.652712   -1.172076
     17          7           0       -4.447625    2.658924   -0.186749
     18          6           0       -3.123076    2.900961   -0.249284
     19          6           0       -2.916144    4.403554   -0.392235
     20          6           0       -4.272705    5.018263   -0.314550
     21          6           0       -5.145470    3.832591   -0.132619
     22          6           0       -1.520680    4.935084   -0.659572
     23          6           0       -4.813870    6.420223   -0.401420
     24          8           0       -5.982947    6.718589   -0.524101
     25          6           0       -3.823976    7.470240   -0.597891
     26          7           0       -7.317935    1.489043    0.136443
     27          6           0       -7.500622    2.821250    0.185213
     28          6           0       -8.986554    3.171162    0.562538
     29          6           0       -9.573756    1.689761    0.729263
     30          6           0       -8.387721    0.770118    0.431044
     31          6           0       -9.047335    4.105406    1.876596
     32          6           0      -10.855270    1.448660   -0.177555
     33          6           0      -10.646590    1.146154   -1.650545
     34          7           0       -6.163615   -1.115586    0.094146
     35          6           0       -7.489997   -1.542188    0.396511
     36          6           0       -7.598791   -3.005032    0.521496
     37          6           0       -6.223008   -3.420153    0.440180
     38          6           0       -5.433722   -2.232013    0.233463
     39          6           0       -8.880293   -3.667072    0.834330
     40          6           0       -5.339650   -4.550028    0.525753
     41          8           0       -5.567338   -5.702002    0.679269
     42          6           0       -3.905151   -4.016650    0.220974
     43          6           0       -2.842023   -4.536489    1.165541
     44          8           0       -2.620432   -3.952163    2.176403
     45          8           0       -2.227802   -5.671216    0.618598
     46          6           0       -1.151450   -6.253446    1.458677
     47          6           0        3.439752   -2.714361   -0.154948
     48          6           0        4.610932   -1.820942   -0.554827
     49          6           0        5.789967   -2.316199   -0.951179
     50          6           0        6.153426   -3.751077   -1.239584
     51          6           0        7.030535   -1.444776   -0.955954
     52          6           0        7.333083   -0.952409   -2.356944
     53          6           0        8.878456   -0.964278   -2.567156
     54          6           0        9.331450   -0.000641   -3.712158
     55          6           0        9.391616   -0.738844   -5.052760
     56          6           0       10.669879    0.895819   -3.412070
     57          6           0       10.405166    1.978714   -2.333395
     58          6           0       11.702235    2.348514   -1.490518
     59          6           0       11.375124    2.599868    0.023829
     60          6           0       12.521139    3.504960    0.548778
     61          6           0       11.326837    1.257584    0.879265
     62          6           0       10.378889    1.316539    2.088541
     63          6           0       10.970438    0.476558    3.329527
     64          6           0       11.181391    1.236184    4.684147
     65          6           0       12.271682    2.289820    4.608341
     66          6           0       11.480024    0.347754    5.855434
     67          1           0       -1.063527    2.320874   -0.470650
     68          1           0       -7.097717    4.818479   -0.061775
     69          1           0       -9.476209   -0.896495    0.927913
     70          1           0       -1.102106   -2.405632    0.460651
     71          1           0       -0.247056   -0.367459   -1.326999
     72          1           0       -0.195490   -0.908097    1.658355
     73          1           0       -0.138522    0.816581    1.299793
     74          1           0        1.116955   -0.112861    0.809900
     75          1           0       -1.365384   -1.781653   -2.375836
     76          1           0       -1.997724   -3.408707   -1.919134
     77          1           0        0.662668   -3.109876   -2.884848
     78          1           0       -0.122448   -4.436826   -2.036042
     79          1           0       -1.452815    6.019629   -0.739007
     80          1           0       -1.204423    4.517836   -1.614883
     81          1           0       -0.956345    4.608300    0.213683
     82          1           0       -2.973420    7.524542    0.081401
     83          1           0       -4.242833    8.463686   -0.756779
     84          1           0       -3.497457    7.187643   -1.599211
     85          1           0       -9.403733    3.639289   -0.328974
     86          1           0       -9.859700    1.364982    1.729776
     87          1           0       -9.714592    4.946077    1.686681
     88          1           0       -8.049911    4.477430    2.113191
     89          1           0       -9.379507    3.462358    2.690826
     90          1           0      -11.604166    2.231245   -0.053645
     91          1           0      -11.165726    0.534332    0.327427
     92          1           0      -10.844926    0.097027   -1.871199
     93          1           0       -9.612819    1.294656   -1.960524
     94          1           0      -11.273945    1.869849   -2.171183
     95          1           0       -9.731114   -3.052493    1.129575
     96          1           0       -8.689541   -4.419230    1.599872
     97          1           0       -9.215561   -4.294119    0.008365
     98          1           0       -3.573709   -4.460687   -0.718064
     99          1           0       -1.656144   -6.629877    2.348256
    100          1           0       -0.528400   -5.477656    1.905152
    101          1           0       -0.723085   -7.108768    0.937247
    102          1           0        3.758740   -3.753572   -0.233128
    103          1           0        3.067081   -2.488287    0.844317
    104          1           0        4.582737   -0.774412   -0.250829
    105          1           0        6.916641   -3.731183   -2.017793
    106          1           0        5.232005   -4.168051   -1.645439
    107          1           0        6.337932   -4.146260   -0.240029
    108          1           0        7.847175   -2.095483   -0.644135
    109          1           0        6.902535   -0.638776   -0.233145
    110          1           0        7.030475    0.087291   -2.483880
    111          1           0        6.839321   -1.667458   -3.015619
    112          1           0        9.140579   -1.972691   -2.887928
    113          1           0        9.368270   -0.696798   -1.630950
    114          1           0        8.558730    0.749300   -3.877993
    115          1           0        8.668752   -0.308322   -5.745693
    116          1           0        9.147463   -1.798427   -4.970958
    117          1           0       10.371224   -0.561712   -5.494904
    118          1           0       10.945994    1.309254   -4.381224
    119          1           0       11.544289    0.345119   -3.066148
    120          1           0        9.633957    1.711042   -1.611992
    121          1           0       10.189561    2.857495   -2.940906
    122          1           0       12.059415    3.256793   -1.975744
    123          1           0       12.427934    1.540873   -1.402836
    124          1           0       10.430794    3.133368    0.130458
    125          1           0       12.750105    3.141681    1.550643
    126          1           0       12.180103    4.540153    0.575220
    127          1           0       13.384201    3.372463   -0.103604
    128          1           0       12.323795    1.048551    1.266184
    129          1           0       11.043370    0.421104    0.239811
    130          1           0        9.480082    0.803142    1.747125
    131          1           0       10.201059    2.348865    2.386493
    132          1           0       11.886279   -0.029669    3.023980
    133          1           0       10.196928   -0.259188    3.547960
    134          1           0       10.244246    1.744559    4.906854
    135          1           0       13.044626    2.049175    3.878540
    136          1           0       12.767138    2.469682    5.562130
    137          1           0       11.817066    3.255676    4.388053
    138          1           0       11.318079    0.935655    6.759890
    139          1           0       12.513143    0.001973    5.828979
    140          1           0       11.015525   -0.636816    5.813181
 ---------------------------------------------------------------------

 SCF Done:  E(RCAM-B3LYP) =  -3007.16895501     A.U. after   18 cycles

 Excitation energies and oscillator strengths:

 Excited State   1:      Singlet-A      1.7213 eV  720.27 nm  f=0.3782  <S**2>=0.000
     245 -> 248       -0.20475
     246 -> 247        0.67915
     245 <- 248       -0.11286
 This state for optimization and/or second-order correction.
 Total Energy, E(TD-HF/TD-DFT) =  -3007.10569660
 Copying the excited state density for this state as the 1-particle RhoCI density.

 Excited State   2:      Singlet-A      2.1834 eV  567.85 nm  f=0.1038  <S**2>=0.000
     245 -> 247        0.63844
     246 -> 248        0.29710

 Excited State   3:      Singlet-A      3.4316 eV  361.30 nm  f=0.4845  <S**2>=0.000
     242 -> 247       -0.11691
     243 -> 247       -0.12189
     244 -> 247       -0.29637
     245 -> 247       -0.23987
     246 -> 248        0.56287
     245 <- 247        0.10020

 Excited State   4:      Singlet-A      3.5295 eV  351.28 nm  f=0.1580  <S**2>=0.000
     242 -> 247        0.12547
     243 -> 247       -0.23617
     244 -> 247        0.56707
     245 -> 247       -0.13438
     246 -> 248        0.24211

 Excited State   5:      Singlet-A      3.5657 eV  347.71 nm  f=0.0012  <S**2>=0.000
     241 -> 247        0.20978
     242 -> 247        0.53130
     242 -> 249       -0.22109
     242 -> 251        0.20040
     244 -> 247       -0.21638

 The electronic state is 1-A.
 Alpha  occ. eigenvalues --  -46.89517 -19.24614 -19.23941 -19.20581 -19.19378
 Alpha  occ. eigenvalues --  -19.18675 -19.18096 -14.42126 -14.41341 -14.39940
 Alpha  occ. eigenvalues --  -14.39130 -10.40162 -10.38153 -10.34902 -10.33815
 Alpha  occ. eigenvalues --  -10.32287 -10.31274 -10.30881 -10.30637 -10.30373
 Alpha  occ. eigenvalues --  -10.30283 -10.30206 -10.29916 -10.29549 -10.29505
 Alpha  occ. eigenvalues --  -10.28832 -10.28669 -10.28589 -10.28563 -10.28072
 Alpha  occ. eigenvalues --  -10.27916 -10.27879 -10.27689 -10.27613 -10.27584
 Alpha  occ. eigenvalues --  -10.27249 -10.27021 -10.27014 -10.26881 -10.26732
 Alpha  occ. eigenvalues --  -10.26153 -10.26133 -10.26012 -10.25940 -10.25885
 Alpha  occ. eigenvalues --  -10.25846 -10.25839 -10.25824 -10.25793 -10.25639
 Alpha  occ. eigenvalues --  -10.25612 -10.25593 -10.25586 -10.25534 -10.25516
 Alpha  occ. eigenvalues --  -10.25504 -10.25407 -10.25340 -10.25265 -10.25200
 Alpha  occ. eigenvalues --  -10.25168 -10.24784 -10.24550 -10.24336 -10.24328
 Alpha  occ. eigenvalues --  -10.24327  -3.17920  -1.92822  -1.92378  -1.92214
 Alpha  occ. eigenvalues --   -1.15001  -1.14483  -1.11128  -1.10713  -1.07846
 Alpha  occ. eigenvalues --   -1.06527  -1.04430  -1.03999  -1.02571  -1.01807
 Alpha  occ. eigenvalues --   -0.91864  -0.90928  -0.89557  -0.89150  -0.88657
 Alpha  occ. eigenvalues --   -0.88180  -0.87747  -0.87186  -0.86650  -0.86569
 Alpha  occ. eigenvalues --   -0.86272  -0.85283  -0.84514  -0.83224  -0.82858
 Alpha  occ. eigenvalues --   -0.82701  -0.82008  -0.81116  -0.80686  -0.80289
 Alpha  occ. eigenvalues --   -0.79184  -0.78103  -0.77889  -0.76553  -0.76217
 Alpha  occ. eigenvalues --   -0.75547  -0.75181  -0.74465  -0.74415  -0.74102
 Alpha  occ. eigenvalues --   -0.73085  -0.72060  -0.70978  -0.70289  -0.69044
 Alpha  occ. eigenvalues --   -0.68045  -0.67833  -0.67016  -0.66866  -0.65551
 Alpha  occ. eigenvalues --   -0.65492  -0.64927  -0.64012  -0.63838  -0.63273
 Alpha  occ. eigenvalues --   -0.63203  -0.62433  -0.62252  -0.60889  -0.59709
 Alpha  occ. eigenvalues --   -0.59683  -0.59280  -0.58692  -0.57755  -0.57462
 Alpha  occ. eigenvalues --   -0.56818  -0.56308  -0.56094  -0.55774  -0.55353
 Alpha  occ. eigenvalues --   -0.54902  -0.54769  -0.54585  -0.54193  -0.54004
 Alpha  occ. eigenvalues --   -0.53759  -0.53242  -0.53104  -0.52944  -0.52897
 Alpha  occ. eigenvalues --   -0.52766  -0.52526  -0.52278  -0.52036  -0.51686
 Alpha  occ. eigenvalues --   -0.51481  -0.51294  -0.51099  -0.50985  -0.50779
 Alpha  occ. eigenvalues --   -0.50635  -0.50592  -0.50462  -0.50347  -0.49857
 Alpha  occ. eigenvalues --   -0.49171  -0.49088  -0.48998  -0.48805  -0.48566
 Alpha  occ. eigenvalues --   -0.48430  -0.48334  -0.47789  -0.47650  -0.47595
 Alpha  occ. eigenvalues --   -0.47416  -0.46932  -0.46748  -0.46307  -0.46094
 Alpha  occ. eigenvalues --   -0.46009  -0.45930  -0.45756  -0.45549  -0.45496
 Alpha  occ. eigenvalues --   -0.45447  -0.45202  -0.45143  -0.44788  -0.44761
 Alpha  occ. eigenvalues --   -0.44613  -0.44521  -0.44413  -0.44236  -0.43971
 Alpha  occ. eigenvalues --   -0.43897  -0.43741  -0.43576  -0.43430  -0.42924
 Alpha  occ. eigenvalues --   -0.42883  -0.42677  -0.42373  -0.42193  -0.42029
 Alpha  occ. eigenvalues --   -0.41740  -0.41665  -0.41615  -0.41479  -0.40996
 Alpha  occ. eigenvalues --   -0.40724  -0.40703  -0.40477  -0.40419  -0.40234
 Alpha  occ. eigenvalues --   -0.39759  -0.39452  -0.39281  -0.39195  -0.38650
 Alpha  occ. eigenvalues --   -0.38623  -0.38153  -0.37953  -0.37686  -0.37315
 Alpha  occ. eigenvalues --   -0.37175  -0.36866  -0.36522  -0.36281  -0.36266
 Alpha  occ. eigenvalues --   -0.35811  -0.35619  -0.35446  -0.34620  -0.34436
 Alpha  occ. eigenvalues --   -0.33970  -0.33440  -0.32567  -0.31093  -0.30979
 Alpha  occ. eigenvalues --   -0.30334  -0.30107  -0.29866  -0.29337  -0.23154
 Alpha  occ. eigenvalues --   -0.20599
 Alpha virt. eigenvalues --   -0.08036  -0.01495   0.00412   0.02286   0.02980
 Alpha virt. eigenvalues --    0.03715   0.04344   0.06074   0.06460   0.07045
 Alpha virt. eigenvalues --    0.07424   0.08058   0.08649   0.08994   0.09262

 Mulliken charges:
               1
     1  Mg   0.836008
     2  C    0.025940
     3  C   -0.066668
     4  C   -0.043933
     5  C   -0.090457
     6  N   -0.212158
     7  C   -0.028850
     8  C   -0.057626
     9  C   -0.034319
    10  C    0.013655
    11  C    0.056230
    12  C    0.016318
    13  C    0.118151
    14  C    0.152655
    15  O   -0.255554
    16  O   -0.371493
    17  N   -0.377298
    18  C    0.119907
    19  C   -0.172729
    20  C   -0.055946
    21  C    0.132525
    22  C    0.109285
    23  C    0.023197
    24  O   -0.192185
    25  C    0.041537
    26  N   -0.261340
    27  C   -0.020836
    28  C   -0.027570
    29  C   -0.031905
    30  C    0.008429
    31  C    0.066660
    32  C   -0.006054
    33  C    0.025719
    34  N   -0.349567
    35  C    0.126917
    36  C   -0.126722
    37  C   -0.013174
    38  C    0.085269
    39  C    0.120734
    40  C    0.041662
    41  O   -0.123978
    42  C   -0.077669
    43  C    0.185294
    44  O   -0.183925
    45  O   -0.363450
    46  C    0.195748
    47  C    0.258904
    48  C   -0.063038
    49  C   -0.245492
    50  C    0.102269
    51  C    0.075190
    52  C    0.029654
    53  C    0.024812
    54  C   -0.143261
    55  C    0.062412
    56  C    0.040652
    57  C    0.014321
    58  C    0.028788
    59  C   -0.175953
    60  C    0.070181
    61  C    0.017627
    62  C    0.041916
    63  C    0.013791
    64  C   -0.124673
    65  C    0.035705
    66  C    0.049488
    67  H   -0.032477
    68  H    0.002854
    69  H   -0.040385
    70  H    0.050685
    71  H    0.020667
    72  H    0.037475
    73  H    0.005103
    74  H    0.007577
    75  H    0.011374
    76  H    0.025306
    77  H    0.034540
    78  H    0.035794
    79  H    0.005716
    80  H    0.042611
    81  H    0.042087
    82  H    0.044022
    83  H    0.020243
    84  H    0.033842
    85  H    0.018923
    86  H    0.007773
    87  H    0.024980
    88  H    0.030415
    89  H    0.013276
    90  H    0.016587
    91  H   -0.005016
    92  H    0.018751
    93  H    0.016025
    94  H    0.017126
    95  H    0.018343
    96  H    0.030048
    97  H    0.025129
    98  H    0.040817
    99  H    0.014095
   100  H    0.051208
   101  H    0.042241
   102  H    0.008357
   103  H    0.042664
   104  H   -0.012232
   105  H    0.025268
   106  H    0.029327
   107  H    0.051919
   108  H   -0.000893
   109  H    0.003171
   110  H    0.007463
   111  H    0.007535
   112  H   -0.002059
   113  H    0.005269
   114  H   -0.004322
   115  H    0.002141
   116  H    0.004299
   117  H    0.004172
   118  H   -0.006425
   119  H   -0.007738
   120  H    0.008402
   121  H    0.001651
   122  H    0.004203
   123  H    0.005596
   124  H   -0.006074
   125  H   -0.005962
   126  H    0.011761
   127  H    0.010358
   128  H   -0.004303
   129  H   -0.003935
   130  H    0.001069
   131  H    0.007582
   132  H    0.000965
   133  H   -0.007657
   134  H   -0.007420
   135  H    0.018690
   136  H   -0.001174
   137  H    0.004267
   138  H    0.020418
   139  H   -0.007446
   140  H   -0.006392
 Sum of Mulliken charges =  -0.00000

 Dipole moment (field-independent basis, Debye):
    X=              5.1831    Y=              2.4018    Z=             -2.7314  Tot=              6.3319
 Quadrupole moment (field-independent basis, Debye-Ang):
   XX=           -380.1483   YY=           -425.6257   ZZ=           -406.0987
   XY=            -10.2492   XZ=              2.3117   YZ=              8.5882

 Normal termination of Gaussian 16 at Thu May  5 07:02:29 2022.
