 Gaussian 16, Revision A.03,
 Gaussian 16:  ES64L-G16RevA.03 25-Dec-2016

 ---------------------------------
 #p PBE1PBE/Def2SVP td=(nstates=5)
 ---------------------------------

 ----------------------------------------------------
 step_701_chromophore_9 TDDFT with PBE1PBE functional
 ----------------------------------------------------
 Symbolic Z-matrix:
 Charge =  0 Multiplicity = 1

                         Standard orientation:
 ---------------------------------------------------------------------
 Center     Atomic      Atomic             Coordinates (Angstroms)
 Number     Number       Type             X           Y           Z
 ---------------------------------------------------------------------
      1         12           0       -5.343302    0.816017   -0.251732
      2          6           0       -4.027418   -2.481592    0.097347
      3          6           0       -2.065832    1.901953   -0.361263
      4          6           0       -6.563003    3.866390   -0.052058
      5          6           0       -8.497901   -0.586124    0.556265
      6          7           0       -3.235487   -0.190030   -0.124091
      7          6           0       -2.957553   -1.509911   -0.155533
      8          6           0       -1.480466   -1.834350   -0.387167
      9          6           0       -0.806556   -0.390741   -0.392575
     10          6           0       -2.097514    0.494201   -0.261415
     11          6           0        0.030435   -0.176451    0.881844
     12          6           0       -1.235266   -2.652222   -1.734214
     13          6           0        0.142426   -3.381352   -1.965543
     14          6           0        1.129122   -3.295693   -0.780301
     15          8           0        1.013664   -3.851575    0.324698
     16          8           0        2.319542   -2.652712   -1.172076
     17          7           0       -4.447625    2.658924   -0.186749
     18          6           0       -3.123076    2.900961   -0.249284
     19          6           0       -2.916144    4.403554   -0.392235
     20          6           0       -4.272705    5.018263   -0.314550
     21          6           0       -5.145470    3.832591   -0.132619
     22          6           0       -1.520680    4.935084   -0.659572
     23          6           0       -4.813870    6.420223   -0.401420
     24          8           0       -5.982947    6.718589   -0.524101
     25          6           0       -3.823976    7.470240   -0.597891
     26          7           0       -7.317935    1.489043    0.136443
     27          6           0       -7.500622    2.821250    0.185213
     28          6           0       -8.986554    3.171162    0.562538
     29          6           0       -9.573756    1.689761    0.729263
     30          6           0       -8.387721    0.770118    0.431044
     31          6           0       -9.047335    4.105406    1.876596
     32          6           0      -10.855270    1.448660   -0.177555
     33          6           0      -10.646590    1.146154   -1.650545
     34          7           0       -6.163615   -1.115586    0.094146
     35          6           0       -7.489997   -1.542188    0.396511
     36          6           0       -7.598791   -3.005032    0.521496
     37          6           0       -6.223008   -3.420153    0.440180
     38          6           0       -5.433722   -2.232013    0.233463
     39          6           0       -8.880293   -3.667072    0.834330
     40          6           0       -5.339650   -4.550028    0.525753
     41          8           0       -5.567338   -5.702002    0.679269
     42          6           0       -3.905151   -4.016650    0.220974
     43          6           0       -2.842023   -4.536489    1.165541
     44          8           0       -2.620432   -3.952163    2.176403
     45          8           0       -2.227802   -5.671216    0.618598
     46          6           0       -1.151450   -6.253446    1.458677
     47          6           0        3.439752   -2.714361   -0.154948
     48          6           0        4.610932   -1.820942   -0.554827
     49          6           0        5.789967   -2.316199   -0.951179
     50          6           0        6.153426   -3.751077   -1.239584
     51          6           0        7.030535   -1.444776   -0.955954
     52          6           0        7.333083   -0.952409   -2.356944
     53          6           0        8.878456   -0.964278   -2.567156
     54          6           0        9.331450   -0.000641   -3.712158
     55          6           0        9.391616   -0.738844   -5.052760
     56          6           0       10.669879    0.895819   -3.412070
     57          6           0       10.405166    1.978714   -2.333395
     58          6           0       11.702235    2.348514   -1.490518
     59          6           0       11.375124    2.599868    0.023829
     60          6           0       12.521139    3.504960    0.548778
     61          6           0       11.326837    1.257584    0.879265
     62          6           0       10.378889    1.316539    2.088541
     63          6           0       10.970438    0.476558    3.329527
     64          6           0       11.181391    1.236184    4.684147
     65          6           0       12.271682    2.289820    4.608341
     66          6           0       11.480024    0.347754    5.855434
     67          1           0       -1.063527    2.320874   -0.470650
     68          1           0       -7.097717    4.818479   -0.061775
     69          1           0       -9.476209   -0.896495    0.927913
     70          1           0       -1.102106   -2.405632    0.460651
     71          1           0       -0.247056   -0.367459   -1.326999
     72          1           0       -0.195490   -0.908097    1.658355
     73          1           0       -0.138522    0.816581    1.299793
     74          1           0        1.116955   -0.112861    0.809900
     75          1           0       -1.365384   -1.781653   -2.375836
     76          1           0       -1.997724   -3.408707   -1.919134
     77          1           0        0.662668   -3.109876   -2.884848
     78          1           0       -0.122448   -4.436826   -2.036042
     79          1           0       -1.452815    6.019629   -0.739007
     80          1           0       -1.204423    4.517836   -1.614883
     81          1           0       -0.956345    4.608300    0.213683
     82          1           0       -2.973420    7.524542    0.081401
     83          1           0       -4.242833    8.463686   -0.756779
     84          1           0       -3.497457    7.187643   -1.599211
     85          1           0       -9.403733    3.639289   -0.328974
     86          1           0       -9.859700    1.364982    1.729776
     87          1           0       -9.714592    4.946077    1.686681
     88          1           0       -8.049911    4.477430    2.113191
     89          1           0       -9.379507    3.462358    2.690826
     90          1           0      -11.604166    2.231245   -0.053645
     91          1           0      -11.165726    0.534332    0.327427
     92          1           0      -10.844926    0.097027   -1.871199
     93          1           0       -9.612819    1.294656   -1.960524
     94          1           0      -11.273945    1.869849   -2.171183
     95          1           0       -9.731114   -3.052493    1.129575
     96          1           0       -8.689541   -4.419230    1.599872
     97          1           0       -9.215561   -4.294119    0.008365
     98          1           0       -3.573709   -4.460687   -0.718064
     99          1           0       -1.656144   -6.629877    2.348256
    100          1           0       -0.528400   -5.477656    1.905152
    101          1           0       -0.723085   -7.108768    0.937247
    102          1           0        3.758740   -3.753572   -0.233128
    103          1           0        3.067081   -2.488287    0.844317
    104          1           0        4.582737   -0.774412   -0.250829
    105          1           0        6.916641   -3.731183   -2.017793
    106          1           0        5.232005   -4.168051   -1.645439
    107          1           0        6.337932   -4.146260   -0.240029
    108          1           0        7.847175   -2.095483   -0.644135
    109          1           0        6.902535   -0.638776   -0.233145
    110          1           0        7.030475    0.087291   -2.483880
    111          1           0        6.839321   -1.667458   -3.015619
    112          1           0        9.140579   -1.972691   -2.887928
    113          1           0        9.368270   -0.696798   -1.630950
    114          1           0        8.558730    0.749300   -3.877993
    115          1           0        8.668752   -0.308322   -5.745693
    116          1           0        9.147463   -1.798427   -4.970958
    117          1           0       10.371224   -0.561712   -5.494904
    118          1           0       10.945994    1.309254   -4.381224
    119          1           0       11.544289    0.345119   -3.066148
    120          1           0        9.633957    1.711042   -1.611992
    121          1           0       10.189561    2.857495   -2.940906
    122          1           0       12.059415    3.256793   -1.975744
    123          1           0       12.427934    1.540873   -1.402836
    124          1           0       10.430794    3.133368    0.130458
    125          1           0       12.750105    3.141681    1.550643
    126          1           0       12.180103    4.540153    0.575220
    127          1           0       13.384201    3.372463   -0.103604
    128          1           0       12.323795    1.048551    1.266184
    129          1           0       11.043370    0.421104    0.239811
    130          1           0        9.480082    0.803142    1.747125
    131          1           0       10.201059    2.348865    2.386493
    132          1           0       11.886279   -0.029669    3.023980
    133          1           0       10.196928   -0.259188    3.547960
    134          1           0       10.244246    1.744559    4.906854
    135          1           0       13.044626    2.049175    3.878540
    136          1           0       12.767138    2.469682    5.562130
    137          1           0       11.817066    3.255676    4.388053
    138          1           0       11.318079    0.935655    6.759890
    139          1           0       12.513143    0.001973    5.828979
    140          1           0       11.015525   -0.636816    5.813181
 ---------------------------------------------------------------------

 SCF Done:  E(RPBE1PBE) =  -3005.35823638     A.U. after   15 cycles

 Excitation energies and oscillator strengths:

 Excited State   1:      Singlet-A      1.8802 eV  659.41 nm  f=0.3677  <S**2>=0.000
     245 -> 248        0.19756
     246 -> 247        0.68607
 This state for optimization and/or second-order correction.
 Total Energy, E(TD-HF/TD-DFT) =  -3005.28913957
 Copying the excited state density for this state as the 1-particle RhoCI density.

 Excited State   2:      Singlet-A      2.1829 eV  567.99 nm  f=0.1015  <S**2>=0.000
     245 -> 247        0.65291
     246 -> 248       -0.26470

 Excited State   3:      Singlet-A      3.0313 eV  409.02 nm  f=0.0010  <S**2>=0.000
     243 -> 247        0.51489
     243 -> 249       -0.11626
     244 -> 247        0.44062

 Excited State   4:      Singlet-A      3.1735 eV  390.68 nm  f=0.0093  <S**2>=0.000
     243 -> 247       -0.44457
     244 -> 247        0.50825
     246 -> 248        0.17789

 Excited State   5:      Singlet-A      3.2680 eV  379.39 nm  f=0.0004  <S**2>=0.000
     241 -> 247        0.66274
     241 -> 249        0.19680

 The electronic state is 1-A.
 Alpha  occ. eigenvalues --  -46.92920 -19.25323 -19.24641 -19.20848 -19.19573
 Alpha  occ. eigenvalues --  -19.18862 -19.18291 -14.41588 -14.40829 -14.39549
 Alpha  occ. eigenvalues --  -14.38813 -10.37222 -10.35168 -10.31955 -10.30927
 Alpha  occ. eigenvalues --  -10.29681 -10.29036 -10.28595 -10.28346 -10.28115
 Alpha  occ. eigenvalues --  -10.27881 -10.27594 -10.27524 -10.27295 -10.27285
 Alpha  occ. eigenvalues --  -10.26539 -10.26390 -10.26364 -10.26067 -10.25767
 Alpha  occ. eigenvalues --  -10.25752 -10.25726 -10.25439 -10.25401 -10.25287
 Alpha  occ. eigenvalues --  -10.24896 -10.24678 -10.24639 -10.24395 -10.24292
 Alpha  occ. eigenvalues --  -10.23895 -10.23592 -10.23583 -10.23569 -10.23509
 Alpha  occ. eigenvalues --  -10.23505 -10.23500 -10.23484 -10.23392 -10.23276
 Alpha  occ. eigenvalues --  -10.23179 -10.23160 -10.23108 -10.23103 -10.23095
 Alpha  occ. eigenvalues --  -10.22994 -10.22974 -10.22822 -10.22780 -10.22774
 Alpha  occ. eigenvalues --  -10.22768 -10.22185 -10.21947 -10.21741 -10.21703
 Alpha  occ. eigenvalues --  -10.21702  -3.14907  -1.87748  -1.87283  -1.87123
 Alpha  occ. eigenvalues --   -1.09752  -1.09250  -1.05900  -1.05413  -1.02712
 Alpha  occ. eigenvalues --   -1.01384  -0.99042  -0.98627  -0.97235  -0.96501
 Alpha  occ. eigenvalues --   -0.86019  -0.85273  -0.83629  -0.83356  -0.82760
 Alpha  occ. eigenvalues --   -0.82495  -0.81867  -0.81465  -0.80890  -0.80864
 Alpha  occ. eigenvalues --   -0.80543  -0.79496  -0.78697  -0.77428  -0.77054
 Alpha  occ. eigenvalues --   -0.76973  -0.76238  -0.75323  -0.74950  -0.74480
 Alpha  occ. eigenvalues --   -0.73518  -0.72418  -0.72141  -0.70866  -0.70404
 Alpha  occ. eigenvalues --   -0.69630  -0.69532  -0.68749  -0.68616  -0.68267
 Alpha  occ. eigenvalues --   -0.67402  -0.66518  -0.65381  -0.64666  -0.63382
 Alpha  occ. eigenvalues --   -0.62491  -0.62079  -0.61449  -0.61099  -0.59979
 Alpha  occ. eigenvalues --   -0.59697  -0.59495  -0.58515  -0.57936  -0.57802
 Alpha  occ. eigenvalues --   -0.57415  -0.56962  -0.56492  -0.55478  -0.54240
 Alpha  occ. eigenvalues --   -0.54149  -0.53699  -0.53278  -0.52425  -0.51780
 Alpha  occ. eigenvalues --   -0.51275  -0.50819  -0.50596  -0.50265  -0.49950
 Alpha  occ. eigenvalues --   -0.49342  -0.49174  -0.49154  -0.48652  -0.48437
 Alpha  occ. eigenvalues --   -0.48256  -0.47727  -0.47687  -0.47427  -0.47374
 Alpha  occ. eigenvalues --   -0.47197  -0.46961  -0.46794  -0.46608  -0.46282
 Alpha  occ. eigenvalues --   -0.46015  -0.45815  -0.45647  -0.45488  -0.45341
 Alpha  occ. eigenvalues --   -0.45177  -0.45135  -0.45066  -0.44919  -0.44437
 Alpha  occ. eigenvalues --   -0.43779  -0.43700  -0.43591  -0.43380  -0.43159
 Alpha  occ. eigenvalues --   -0.43006  -0.42946  -0.42436  -0.42321  -0.42240
 Alpha  occ. eigenvalues --   -0.42088  -0.41597  -0.41453  -0.40999  -0.40813
 Alpha  occ. eigenvalues --   -0.40711  -0.40495  -0.40385  -0.40336  -0.40263
 Alpha  occ. eigenvalues --   -0.40103  -0.39927  -0.39868  -0.39560  -0.39489
 Alpha  occ. eigenvalues --   -0.39321  -0.39254  -0.39161  -0.38947  -0.38785
 Alpha  occ. eigenvalues --   -0.38641  -0.38442  -0.38296  -0.38225  -0.37757
 Alpha  occ. eigenvalues --   -0.37681  -0.37488  -0.37227  -0.37063  -0.36929
 Alpha  occ. eigenvalues --   -0.36567  -0.36447  -0.36425  -0.36238  -0.35917
 Alpha  occ. eigenvalues --   -0.35560  -0.35460  -0.35319  -0.35240  -0.35088
 Alpha  occ. eigenvalues --   -0.34573  -0.34415  -0.34265  -0.33982  -0.33497
 Alpha  occ. eigenvalues --   -0.33404  -0.32926  -0.32720  -0.32705  -0.32092
 Alpha  occ. eigenvalues --   -0.32014  -0.31873  -0.31465  -0.31383  -0.31229
 Alpha  occ. eigenvalues --   -0.30906  -0.30600  -0.30344  -0.29583  -0.29355
 Alpha  occ. eigenvalues --   -0.29196  -0.28614  -0.27868  -0.26305  -0.25993
 Alpha  occ. eigenvalues --   -0.25810  -0.25463  -0.25036  -0.24985  -0.20140
 Alpha  occ. eigenvalues --   -0.18248
 Alpha virt. eigenvalues --   -0.10509  -0.04930  -0.03756  -0.01400  -0.00874
 Alpha virt. eigenvalues --   -0.00434  -0.00107   0.01730   0.01879   0.03566
 Alpha virt. eigenvalues --    0.04134   0.04200   0.05191   0.05365   0.05470

 Mulliken charges:
               1
     1  Mg   0.979298
     2  C    0.023721
     3  C   -0.059649
     4  C   -0.039763
     5  C   -0.083368
     6  N   -0.312720
     7  C    0.039949
     8  C   -0.127695
     9  C   -0.113923
    10  C    0.045734
    11  C    0.006062
    12  C   -0.028761
    13  C    0.040693
    14  C    0.214345
    15  O   -0.287237
    16  O   -0.398467
    17  N   -0.493602
    18  C    0.149237
    19  C   -0.199861
    20  C   -0.090410
    21  C    0.161132
    22  C    0.045221
    23  C    0.067091
    24  O   -0.231415
    25  C   -0.030322
    26  N   -0.375785
    27  C    0.015979
    28  C   -0.103362
    29  C   -0.105395
    30  C    0.052194
    31  C    0.006919
    32  C   -0.067957
    33  C   -0.046450
    34  N   -0.466703
    35  C    0.141870
    36  C   -0.134126
    37  C   -0.071315
    38  C    0.130920
    39  C    0.069591
    40  C    0.142750
    41  O   -0.173408
    42  C   -0.184473
    43  C    0.275401
    44  O   -0.218954
    45  O   -0.396271
    46  C    0.138790
    47  C    0.214697
    48  C   -0.073233
    49  C   -0.280917
    50  C    0.028863
    51  C    0.007642
    52  C   -0.030228
    53  C   -0.040518
    54  C   -0.225041
    55  C    0.004610
    56  C   -0.012923
    57  C   -0.051443
    58  C   -0.026344
    59  C   -0.258167
    60  C    0.005064
    61  C   -0.041228
    62  C   -0.020781
    63  C   -0.039278
    64  C   -0.220805
    65  C   -0.022842
    66  C   -0.013503
    67  H   -0.001049
    68  H    0.034509
    69  H   -0.007966
    70  H    0.090896
    71  H    0.055020
    72  H    0.063130
    73  H    0.033415
    74  H    0.035863
    75  H    0.044456
    76  H    0.058795
    77  H    0.065278
    78  H    0.068499
    79  H    0.033974
    80  H    0.069796
    81  H    0.069312
    82  H    0.069137
    83  H    0.048041
    84  H    0.062179
    85  H    0.055531
    86  H    0.045067
    87  H    0.052153
    88  H    0.058544
    89  H    0.041196
    90  H    0.048990
    91  H    0.028759
    92  H    0.046204
    93  H    0.045840
    94  H    0.044499
    95  H    0.043819
    96  H    0.058108
    97  H    0.053562
    98  H    0.079876
    99  H    0.037602
   100  H    0.073502
   101  H    0.063976
   102  H    0.036100
   103  H    0.068183
   104  H    0.017218
   105  H    0.053266
   106  H    0.058299
   107  H    0.080732
   108  H    0.033309
   109  H    0.035116
   110  H    0.040130
   111  H    0.041492
   112  H    0.031660
   113  H    0.042602
   114  H    0.034148
   115  H    0.029826
   116  H    0.030691
   117  H    0.031584
   118  H    0.026010
   119  H    0.024898
   120  H    0.041433
   121  H    0.035872
   122  H    0.037397
   123  H    0.037108
   124  H    0.030638
   125  H    0.027143
   126  H    0.040035
   127  H    0.037987
   128  H    0.027647
   129  H    0.032748
   130  H    0.034540
   131  H    0.039210
   132  H    0.032107
   133  H    0.025799
   134  H    0.031134
   135  H    0.044993
   136  H    0.026952
   137  H    0.031428
   138  H    0.048332
   139  H    0.021222
   140  H    0.021364
 Sum of Mulliken charges =  -0.00000

 Dipole moment (field-independent basis, Debye):
    X=              5.1570    Y=              2.3318    Z=             -2.7372  Tot=              6.2869
 Quadrupole moment (field-independent basis, Debye-Ang):
   XX=           -373.7420   YY=           -423.0338   ZZ=           -403.5670
   XY=            -10.0565   XZ=              2.0580   YZ=              8.4914

 Normal termination of Gaussian 16 at Thu May  5 07:34:44 2022.
