 Gaussian 16, Revision A.03,
 Gaussian 16:  ES64L-G16RevA.03 25-Dec-2016

 --------------------------------
 #p wB97XD/Def2SVP td=(nstates=5)
 --------------------------------

 ---------------------------------------------------
 step_701_chromophore_9 TDDFT with wB97XD functional
 ---------------------------------------------------
 Symbolic Z-matrix:
 Charge =  0 Multiplicity = 1

                         Standard orientation:
 ---------------------------------------------------------------------
 Center     Atomic      Atomic             Coordinates (Angstroms)
 Number     Number       Type             X           Y           Z
 ---------------------------------------------------------------------
      1         12           0       -5.343302    0.816017   -0.251732
      2          6           0       -4.027418   -2.481592    0.097347
      3          6           0       -2.065832    1.901953   -0.361263
      4          6           0       -6.563003    3.866390   -0.052058
      5          6           0       -8.497901   -0.586124    0.556265
      6          7           0       -3.235487   -0.190030   -0.124091
      7          6           0       -2.957553   -1.509911   -0.155533
      8          6           0       -1.480466   -1.834350   -0.387167
      9          6           0       -0.806556   -0.390741   -0.392575
     10          6           0       -2.097514    0.494201   -0.261415
     11          6           0        0.030435   -0.176451    0.881844
     12          6           0       -1.235266   -2.652222   -1.734214
     13          6           0        0.142426   -3.381352   -1.965543
     14          6           0        1.129122   -3.295693   -0.780301
     15          8           0        1.013664   -3.851575    0.324698
     16          8           0        2.319542   -2.652712   -1.172076
     17          7           0       -4.447625    2.658924   -0.186749
     18          6           0       -3.123076    2.900961   -0.249284
     19          6           0       -2.916144    4.403554   -0.392235
     20          6           0       -4.272705    5.018263   -0.314550
     21          6           0       -5.145470    3.832591   -0.132619
     22          6           0       -1.520680    4.935084   -0.659572
     23          6           0       -4.813870    6.420223   -0.401420
     24          8           0       -5.982947    6.718589   -0.524101
     25          6           0       -3.823976    7.470240   -0.597891
     26          7           0       -7.317935    1.489043    0.136443
     27          6           0       -7.500622    2.821250    0.185213
     28          6           0       -8.986554    3.171162    0.562538
     29          6           0       -9.573756    1.689761    0.729263
     30          6           0       -8.387721    0.770118    0.431044
     31          6           0       -9.047335    4.105406    1.876596
     32          6           0      -10.855270    1.448660   -0.177555
     33          6           0      -10.646590    1.146154   -1.650545
     34          7           0       -6.163615   -1.115586    0.094146
     35          6           0       -7.489997   -1.542188    0.396511
     36          6           0       -7.598791   -3.005032    0.521496
     37          6           0       -6.223008   -3.420153    0.440180
     38          6           0       -5.433722   -2.232013    0.233463
     39          6           0       -8.880293   -3.667072    0.834330
     40          6           0       -5.339650   -4.550028    0.525753
     41          8           0       -5.567338   -5.702002    0.679269
     42          6           0       -3.905151   -4.016650    0.220974
     43          6           0       -2.842023   -4.536489    1.165541
     44          8           0       -2.620432   -3.952163    2.176403
     45          8           0       -2.227802   -5.671216    0.618598
     46          6           0       -1.151450   -6.253446    1.458677
     47          6           0        3.439752   -2.714361   -0.154948
     48          6           0        4.610932   -1.820942   -0.554827
     49          6           0        5.789967   -2.316199   -0.951179
     50          6           0        6.153426   -3.751077   -1.239584
     51          6           0        7.030535   -1.444776   -0.955954
     52          6           0        7.333083   -0.952409   -2.356944
     53          6           0        8.878456   -0.964278   -2.567156
     54          6           0        9.331450   -0.000641   -3.712158
     55          6           0        9.391616   -0.738844   -5.052760
     56          6           0       10.669879    0.895819   -3.412070
     57          6           0       10.405166    1.978714   -2.333395
     58          6           0       11.702235    2.348514   -1.490518
     59          6           0       11.375124    2.599868    0.023829
     60          6           0       12.521139    3.504960    0.548778
     61          6           0       11.326837    1.257584    0.879265
     62          6           0       10.378889    1.316539    2.088541
     63          6           0       10.970438    0.476558    3.329527
     64          6           0       11.181391    1.236184    4.684147
     65          6           0       12.271682    2.289820    4.608341
     66          6           0       11.480024    0.347754    5.855434
     67          1           0       -1.063527    2.320874   -0.470650
     68          1           0       -7.097717    4.818479   -0.061775
     69          1           0       -9.476209   -0.896495    0.927913
     70          1           0       -1.102106   -2.405632    0.460651
     71          1           0       -0.247056   -0.367459   -1.326999
     72          1           0       -0.195490   -0.908097    1.658355
     73          1           0       -0.138522    0.816581    1.299793
     74          1           0        1.116955   -0.112861    0.809900
     75          1           0       -1.365384   -1.781653   -2.375836
     76          1           0       -1.997724   -3.408707   -1.919134
     77          1           0        0.662668   -3.109876   -2.884848
     78          1           0       -0.122448   -4.436826   -2.036042
     79          1           0       -1.452815    6.019629   -0.739007
     80          1           0       -1.204423    4.517836   -1.614883
     81          1           0       -0.956345    4.608300    0.213683
     82          1           0       -2.973420    7.524542    0.081401
     83          1           0       -4.242833    8.463686   -0.756779
     84          1           0       -3.497457    7.187643   -1.599211
     85          1           0       -9.403733    3.639289   -0.328974
     86          1           0       -9.859700    1.364982    1.729776
     87          1           0       -9.714592    4.946077    1.686681
     88          1           0       -8.049911    4.477430    2.113191
     89          1           0       -9.379507    3.462358    2.690826
     90          1           0      -11.604166    2.231245   -0.053645
     91          1           0      -11.165726    0.534332    0.327427
     92          1           0      -10.844926    0.097027   -1.871199
     93          1           0       -9.612819    1.294656   -1.960524
     94          1           0      -11.273945    1.869849   -2.171183
     95          1           0       -9.731114   -3.052493    1.129575
     96          1           0       -8.689541   -4.419230    1.599872
     97          1           0       -9.215561   -4.294119    0.008365
     98          1           0       -3.573709   -4.460687   -0.718064
     99          1           0       -1.656144   -6.629877    2.348256
    100          1           0       -0.528400   -5.477656    1.905152
    101          1           0       -0.723085   -7.108768    0.937247
    102          1           0        3.758740   -3.753572   -0.233128
    103          1           0        3.067081   -2.488287    0.844317
    104          1           0        4.582737   -0.774412   -0.250829
    105          1           0        6.916641   -3.731183   -2.017793
    106          1           0        5.232005   -4.168051   -1.645439
    107          1           0        6.337932   -4.146260   -0.240029
    108          1           0        7.847175   -2.095483   -0.644135
    109          1           0        6.902535   -0.638776   -0.233145
    110          1           0        7.030475    0.087291   -2.483880
    111          1           0        6.839321   -1.667458   -3.015619
    112          1           0        9.140579   -1.972691   -2.887928
    113          1           0        9.368270   -0.696798   -1.630950
    114          1           0        8.558730    0.749300   -3.877993
    115          1           0        8.668752   -0.308322   -5.745693
    116          1           0        9.147463   -1.798427   -4.970958
    117          1           0       10.371224   -0.561712   -5.494904
    118          1           0       10.945994    1.309254   -4.381224
    119          1           0       11.544289    0.345119   -3.066148
    120          1           0        9.633957    1.711042   -1.611992
    121          1           0       10.189561    2.857495   -2.940906
    122          1           0       12.059415    3.256793   -1.975744
    123          1           0       12.427934    1.540873   -1.402836
    124          1           0       10.430794    3.133368    0.130458
    125          1           0       12.750105    3.141681    1.550643
    126          1           0       12.180103    4.540153    0.575220
    127          1           0       13.384201    3.372463   -0.103604
    128          1           0       12.323795    1.048551    1.266184
    129          1           0       11.043370    0.421104    0.239811
    130          1           0        9.480082    0.803142    1.747125
    131          1           0       10.201059    2.348865    2.386493
    132          1           0       11.886279   -0.029669    3.023980
    133          1           0       10.196928   -0.259188    3.547960
    134          1           0       10.244246    1.744559    4.906854
    135          1           0       13.044626    2.049175    3.878540
    136          1           0       12.767138    2.469682    5.562130
    137          1           0       11.817066    3.255676    4.388053
    138          1           0       11.318079    0.935655    6.759890
    139          1           0       12.513143    0.001973    5.828979
    140          1           0       11.015525   -0.636816    5.813181
 ---------------------------------------------------------------------

 SCF Done:  E(RwB97XD) =  -3007.86868435     A.U. after   19 cycles

 Excitation energies and oscillator strengths:

 Excited State   1:      Singlet-A      1.6589 eV  747.40 nm  f=0.3754  <S**2>=0.000
     245 -> 248       -0.21069
     246 -> 247        0.67704
     245 <- 248       -0.12302
 This state for optimization and/or second-order correction.
 Total Energy, E(TD-HF/TD-DFT) =  -3007.80772195
 Copying the excited state density for this state as the 1-particle RhoCI density.

 Excited State   2:      Singlet-A      2.1264 eV  583.07 nm  f=0.1005  <S**2>=0.000
     245 -> 247        0.63635
     246 -> 248        0.30006

 Excited State   3:      Singlet-A      3.4383 eV  360.60 nm  f=0.4878  <S**2>=0.000
     242 -> 247       -0.11562
     243 -> 247       -0.10619
     244 -> 247       -0.30222
     245 -> 247       -0.23887
     246 -> 248        0.56218
     245 <- 247        0.10604

 Excited State   4:      Singlet-A      3.5509 eV  349.16 nm  f=0.1615  <S**2>=0.000
     243 -> 247       -0.26470
     244 -> 247        0.56496
     245 -> 247       -0.13511
     246 -> 248        0.23872

 Excited State   5:      Singlet-A      3.5984 eV  344.55 nm  f=0.0011  <S**2>=0.000
     242 -> 247        0.54518
     242 -> 249       -0.24799
     242 -> 250        0.22191
     243 -> 247       -0.11986
     244 -> 247       -0.18349

 The electronic state is 1-A.
 Alpha  occ. eigenvalues --  -46.95849 -19.29851 -19.29189 -19.25505 -19.24295
 Alpha  occ. eigenvalues --  -19.23690 -19.23144 -14.46699 -14.45895 -14.44518
 Alpha  occ. eigenvalues --  -14.43741 -10.43997 -10.42007 -10.38839 -10.37812
 Alpha  occ. eigenvalues --  -10.36201 -10.35318 -10.34910 -10.34708 -10.34397
 Alpha  occ. eigenvalues --  -10.34263 -10.34121 -10.34033 -10.33543 -10.33516
 Alpha  occ. eigenvalues --  -10.32847 -10.32820 -10.32645 -10.32475 -10.32070
 Alpha  occ. eigenvalues --  -10.32052 -10.31998 -10.31820 -10.31629 -10.31608
 Alpha  occ. eigenvalues --  -10.31190 -10.31101 -10.31058 -10.30801 -10.30732
 Alpha  occ. eigenvalues --  -10.30166 -10.30015 -10.29957 -10.29896 -10.29869
 Alpha  occ. eigenvalues --  -10.29863 -10.29835 -10.29771 -10.29754 -10.29564
 Alpha  occ. eigenvalues --  -10.29537 -10.29529 -10.29472 -10.29451 -10.29419
 Alpha  occ. eigenvalues --  -10.29383 -10.29363 -10.29346 -10.29203 -10.29139
 Alpha  occ. eigenvalues --  -10.29125 -10.28576 -10.28372 -10.28172 -10.28142
 Alpha  occ. eigenvalues --  -10.28136  -3.21719  -1.95304  -1.94840  -1.94677
 Alpha  occ. eigenvalues --   -1.17151  -1.16629  -1.13379  -1.12917  -1.10062
 Alpha  occ. eigenvalues --   -1.08725  -1.06425  -1.05984  -1.04610  -1.03845
 Alpha  occ. eigenvalues --   -0.93681  -0.92902  -0.91309  -0.90993  -0.90431
 Alpha  occ. eigenvalues --   -0.90079  -0.89531  -0.89069  -0.88589  -0.88475
 Alpha  occ. eigenvalues --   -0.88218  -0.87153  -0.86361  -0.85113  -0.84741
 Alpha  occ. eigenvalues --   -0.84604  -0.83895  -0.82981  -0.82597  -0.82147
 Alpha  occ. eigenvalues --   -0.81136  -0.80069  -0.79797  -0.78465  -0.78075
 Alpha  occ. eigenvalues --   -0.77326  -0.77136  -0.76341  -0.76293  -0.75948
 Alpha  occ. eigenvalues --   -0.75008  -0.74054  -0.72934  -0.72246  -0.70937
 Alpha  occ. eigenvalues --   -0.70046  -0.69720  -0.69015  -0.68747  -0.67489
 Alpha  occ. eigenvalues --   -0.67353  -0.66895  -0.65987  -0.65639  -0.65242
 Alpha  occ. eigenvalues --   -0.65065  -0.64423  -0.64112  -0.62885  -0.61713
 Alpha  occ. eigenvalues --   -0.61623  -0.61203  -0.60694  -0.59770  -0.59315
 Alpha  occ. eigenvalues --   -0.58765  -0.58281  -0.58031  -0.57687  -0.57326
 Alpha  occ. eigenvalues --   -0.56790  -0.56655  -0.56577  -0.56075  -0.55886
 Alpha  occ. eigenvalues --   -0.55668  -0.55132  -0.55047  -0.54857  -0.54784
 Alpha  occ. eigenvalues --   -0.54627  -0.54428  -0.54170  -0.53972  -0.53629
 Alpha  occ. eigenvalues --   -0.53371  -0.53179  -0.53016  -0.52925  -0.52743
 Alpha  occ. eigenvalues --   -0.52516  -0.52481  -0.52398  -0.52249  -0.51795
 Alpha  occ. eigenvalues --   -0.51089  -0.50993  -0.50888  -0.50731  -0.50468
 Alpha  occ. eigenvalues --   -0.50350  -0.50243  -0.49732  -0.49584  -0.49506
 Alpha  occ. eigenvalues --   -0.49311  -0.48866  -0.48659  -0.48187  -0.48032
 Alpha  occ. eigenvalues --   -0.47942  -0.47755  -0.47616  -0.47479  -0.47448
 Alpha  occ. eigenvalues --   -0.47316  -0.47130  -0.47056  -0.46697  -0.46655
 Alpha  occ. eigenvalues --   -0.46505  -0.46437  -0.46314  -0.46121  -0.45919
 Alpha  occ. eigenvalues --   -0.45801  -0.45647  -0.45460  -0.45326  -0.44853
 Alpha  occ. eigenvalues --   -0.44802  -0.44608  -0.44306  -0.44146  -0.43993
 Alpha  occ. eigenvalues --   -0.43689  -0.43637  -0.43550  -0.43350  -0.42894
 Alpha  occ. eigenvalues --   -0.42593  -0.42554  -0.42343  -0.42313  -0.42144
 Alpha  occ. eigenvalues --   -0.41623  -0.41340  -0.41187  -0.41050  -0.40524
 Alpha  occ. eigenvalues --   -0.40452  -0.39984  -0.39768  -0.39617  -0.39155
 Alpha  occ. eigenvalues --   -0.39013  -0.38839  -0.38471  -0.38308  -0.38183
 Alpha  occ. eigenvalues --   -0.37818  -0.37465  -0.37437  -0.36530  -0.36313
 Alpha  occ. eigenvalues --   -0.35948  -0.35500  -0.34742  -0.33021  -0.33004
 Alpha  occ. eigenvalues --   -0.32547  -0.32124  -0.32058  -0.31515  -0.25066
 Alpha  occ. eigenvalues --   -0.22396
 Alpha virt. eigenvalues --   -0.06403   0.00404   0.02488   0.05080   0.05468
 Alpha virt. eigenvalues --    0.06020   0.06593   0.08475   0.08664   0.09898
 Alpha virt. eigenvalues --    0.10716   0.10783   0.11989   0.12155   0.12197

 Mulliken charges:
               1
     1  Mg   0.971362
     2  C    0.017975
     3  C   -0.076318
     4  C   -0.056871
     5  C   -0.098101
     6  N   -0.277590
     7  C    0.009063
     8  C   -0.094365
     9  C   -0.090226
    10  C    0.036082
    11  C    0.013397
    12  C   -0.017608
    13  C    0.055708
    14  C    0.201779
    15  O   -0.283512
    16  O   -0.398240
    17  N   -0.461308
    18  C    0.137290
    19  C   -0.189690
    20  C   -0.092007
    21  C    0.153644
    22  C    0.060289
    23  C    0.069010
    24  O   -0.225235
    25  C   -0.021834
    26  N   -0.337080
    27  C    0.004727
    28  C   -0.081909
    29  C   -0.079182
    30  C    0.034584
    31  C    0.020097
    32  C   -0.051814
    33  C   -0.030598
    34  N   -0.433452
    35  C    0.137140
    36  C   -0.134114
    37  C   -0.064905
    38  C    0.117502
    39  C    0.078420
    40  C    0.124826
    41  O   -0.163854
    42  C   -0.143495
    43  C    0.251076
    44  O   -0.212979
    45  O   -0.394669
    46  C    0.153608
    47  C    0.230127
    48  C   -0.086756
    49  C   -0.264477
    50  C    0.044224
    51  C    0.028674
    52  C   -0.016583
    53  C   -0.016179
    54  C   -0.196039
    55  C    0.015113
    56  C    0.002970
    57  C   -0.033278
    58  C   -0.009882
    59  C   -0.230933
    60  C    0.023649
    61  C   -0.019828
    62  C   -0.006761
    63  C   -0.024732
    64  C   -0.189394
    65  C   -0.013784
    66  C   -0.000703
    67  H   -0.007553
    68  H    0.029359
    69  H   -0.017852
    70  H    0.069325
    71  H    0.046845
    72  H    0.059418
    73  H    0.025809
    74  H    0.030775
    75  H    0.034379
    76  H    0.048813
    77  H    0.061903
    78  H    0.063707
    79  H    0.028576
    80  H    0.065167
    81  H    0.064023
    82  H    0.065307
    83  H    0.047198
    84  H    0.054845
    85  H    0.045784
    86  H    0.034223
    87  H    0.047213
    88  H    0.051147
    89  H    0.035323
    90  H    0.042098
    91  H    0.018540
    92  H    0.041214
    93  H    0.036027
    94  H    0.039725
    95  H    0.040163
    96  H    0.053269
    97  H    0.048821
    98  H    0.069641
    99  H    0.032868
   100  H    0.069415
   101  H    0.061809
   102  H    0.029461
   103  H    0.064470
   104  H    0.015221
   105  H    0.047044
   106  H    0.051238
   107  H    0.075284
   108  H    0.022303
   109  H    0.028622
   110  H    0.031729
   111  H    0.030956
   112  H    0.020245
   113  H    0.026799
   114  H    0.019697
   115  H    0.024708
   116  H    0.024696
   117  H    0.025509
   118  H    0.018100
   119  H    0.014786
   120  H    0.027655
   121  H    0.028340
   122  H    0.029485
   123  H    0.025760
   124  H    0.019051
   125  H    0.013327
   126  H    0.035194
   127  H    0.031466
   128  H    0.014475
   129  H    0.020841
   130  H    0.027403
   131  H    0.029256
   132  H    0.022399
   133  H    0.017340
   134  H    0.020557
   135  H    0.037582
   136  H    0.021689
   137  H    0.025750
   138  H    0.042781
   139  H    0.013430
   140  H    0.015970
 Sum of Mulliken charges =  -0.00000

 Dipole moment (field-independent basis, Debye):
    X=              5.2618    Y=              2.4495    Z=             -2.7868  Tot=              6.4384
 Quadrupole moment (field-independent basis, Debye-Ang):
   XX=           -375.3317   YY=           -421.1269   ZZ=           -403.1614
   XY=            -10.0892   XZ=              2.2580   YZ=              8.4553

 Normal termination of Gaussian 16 at Thu May  5 08:14:17 2022.
