 Gaussian 16, Revision A.03,
 Gaussian 16:  ES64L-G16RevA.03 25-Dec-2016

 --------------------
 #p ZINDO=(nstates=5)
 --------------------

 ----------------------------
 step_701_chromophore_9 ZINDO
 ----------------------------
 Symbolic Z-matrix:
 Charge =  0 Multiplicity = 1

                         Standard orientation:
 ---------------------------------------------------------------------
 Center     Atomic      Atomic             Coordinates (Angstroms)
 Number     Number       Type             X           Y           Z
 ---------------------------------------------------------------------
      1         12           0       -5.343302    0.816017   -0.251732
      2          6           0       -4.027418   -2.481592    0.097347
      3          6           0       -2.065832    1.901953   -0.361263
      4          6           0       -6.563003    3.866390   -0.052058
      5          6           0       -8.497901   -0.586124    0.556265
      6          7           0       -3.235487   -0.190030   -0.124091
      7          6           0       -2.957553   -1.509911   -0.155533
      8          6           0       -1.480466   -1.834350   -0.387167
      9          6           0       -0.806556   -0.390741   -0.392575
     10          6           0       -2.097514    0.494201   -0.261415
     11          6           0        0.030435   -0.176451    0.881844
     12          6           0       -1.235266   -2.652222   -1.734214
     13          6           0        0.142426   -3.381352   -1.965543
     14          6           0        1.129122   -3.295693   -0.780301
     15          8           0        1.013664   -3.851575    0.324698
     16          8           0        2.319542   -2.652712   -1.172076
     17          7           0       -4.447625    2.658924   -0.186749
     18          6           0       -3.123076    2.900961   -0.249284
     19          6           0       -2.916144    4.403554   -0.392235
     20          6           0       -4.272705    5.018263   -0.314550
     21          6           0       -5.145470    3.832591   -0.132619
     22          6           0       -1.520680    4.935084   -0.659572
     23          6           0       -4.813870    6.420223   -0.401420
     24          8           0       -5.982947    6.718589   -0.524101
     25          6           0       -3.823976    7.470240   -0.597891
     26          7           0       -7.317935    1.489043    0.136443
     27          6           0       -7.500622    2.821250    0.185213
     28          6           0       -8.986554    3.171162    0.562538
     29          6           0       -9.573756    1.689761    0.729263
     30          6           0       -8.387721    0.770118    0.431044
     31          6           0       -9.047335    4.105406    1.876596
     32          6           0      -10.855270    1.448660   -0.177555
     33          6           0      -10.646590    1.146154   -1.650545
     34          7           0       -6.163615   -1.115586    0.094146
     35          6           0       -7.489997   -1.542188    0.396511
     36          6           0       -7.598791   -3.005032    0.521496
     37          6           0       -6.223008   -3.420153    0.440180
     38          6           0       -5.433722   -2.232013    0.233463
     39          6           0       -8.880293   -3.667072    0.834330
     40          6           0       -5.339650   -4.550028    0.525753
     41          8           0       -5.567338   -5.702002    0.679269
     42          6           0       -3.905151   -4.016650    0.220974
     43          6           0       -2.842023   -4.536489    1.165541
     44          8           0       -2.620432   -3.952163    2.176403
     45          8           0       -2.227802   -5.671216    0.618598
     46          6           0       -1.151450   -6.253446    1.458677
     47          6           0        3.439752   -2.714361   -0.154948
     48          6           0        4.610932   -1.820942   -0.554827
     49          6           0        5.789967   -2.316199   -0.951179
     50          6           0        6.153426   -3.751077   -1.239584
     51          6           0        7.030535   -1.444776   -0.955954
     52          6           0        7.333083   -0.952409   -2.356944
     53          6           0        8.878456   -0.964278   -2.567156
     54          6           0        9.331450   -0.000641   -3.712158
     55          6           0        9.391616   -0.738844   -5.052760
     56          6           0       10.669879    0.895819   -3.412070
     57          6           0       10.405166    1.978714   -2.333395
     58          6           0       11.702235    2.348514   -1.490518
     59          6           0       11.375124    2.599868    0.023829
     60          6           0       12.521139    3.504960    0.548778
     61          6           0       11.326837    1.257584    0.879265
     62          6           0       10.378889    1.316539    2.088541
     63          6           0       10.970438    0.476558    3.329527
     64          6           0       11.181391    1.236184    4.684147
     65          6           0       12.271682    2.289820    4.608341
     66          6           0       11.480024    0.347754    5.855434
     67          1           0       -1.063527    2.320874   -0.470650
     68          1           0       -7.097717    4.818479   -0.061775
     69          1           0       -9.476209   -0.896495    0.927913
     70          1           0       -1.102106   -2.405632    0.460651
     71          1           0       -0.247056   -0.367459   -1.326999
     72          1           0       -0.195490   -0.908097    1.658355
     73          1           0       -0.138522    0.816581    1.299793
     74          1           0        1.116955   -0.112861    0.809900
     75          1           0       -1.365384   -1.781653   -2.375836
     76          1           0       -1.997724   -3.408707   -1.919134
     77          1           0        0.662668   -3.109876   -2.884848
     78          1           0       -0.122448   -4.436826   -2.036042
     79          1           0       -1.452815    6.019629   -0.739007
     80          1           0       -1.204423    4.517836   -1.614883
     81          1           0       -0.956345    4.608300    0.213683
     82          1           0       -2.973420    7.524542    0.081401
     83          1           0       -4.242833    8.463686   -0.756779
     84          1           0       -3.497457    7.187643   -1.599211
     85          1           0       -9.403733    3.639289   -0.328974
     86          1           0       -9.859700    1.364982    1.729776
     87          1           0       -9.714592    4.946077    1.686681
     88          1           0       -8.049911    4.477430    2.113191
     89          1           0       -9.379507    3.462358    2.690826
     90          1           0      -11.604166    2.231245   -0.053645
     91          1           0      -11.165726    0.534332    0.327427
     92          1           0      -10.844926    0.097027   -1.871199
     93          1           0       -9.612819    1.294656   -1.960524
     94          1           0      -11.273945    1.869849   -2.171183
     95          1           0       -9.731114   -3.052493    1.129575
     96          1           0       -8.689541   -4.419230    1.599872
     97          1           0       -9.215561   -4.294119    0.008365
     98          1           0       -3.573709   -4.460687   -0.718064
     99          1           0       -1.656144   -6.629877    2.348256
    100          1           0       -0.528400   -5.477656    1.905152
    101          1           0       -0.723085   -7.108768    0.937247
    102          1           0        3.758740   -3.753572   -0.233128
    103          1           0        3.067081   -2.488287    0.844317
    104          1           0        4.582737   -0.774412   -0.250829
    105          1           0        6.916641   -3.731183   -2.017793
    106          1           0        5.232005   -4.168051   -1.645439
    107          1           0        6.337932   -4.146260   -0.240029
    108          1           0        7.847175   -2.095483   -0.644135
    109          1           0        6.902535   -0.638776   -0.233145
    110          1           0        7.030475    0.087291   -2.483880
    111          1           0        6.839321   -1.667458   -3.015619
    112          1           0        9.140579   -1.972691   -2.887928
    113          1           0        9.368270   -0.696798   -1.630950
    114          1           0        8.558730    0.749300   -3.877993
    115          1           0        8.668752   -0.308322   -5.745693
    116          1           0        9.147463   -1.798427   -4.970958
    117          1           0       10.371224   -0.561712   -5.494904
    118          1           0       10.945994    1.309254   -4.381224
    119          1           0       11.544289    0.345119   -3.066148
    120          1           0        9.633957    1.711042   -1.611992
    121          1           0       10.189561    2.857495   -2.940906
    122          1           0       12.059415    3.256793   -1.975744
    123          1           0       12.427934    1.540873   -1.402836
    124          1           0       10.430794    3.133368    0.130458
    125          1           0       12.750105    3.141681    1.550643
    126          1           0       12.180103    4.540153    0.575220
    127          1           0       13.384201    3.372463   -0.103604
    128          1           0       12.323795    1.048551    1.266184
    129          1           0       11.043370    0.421104    0.239811
    130          1           0        9.480082    0.803142    1.747125
    131          1           0       10.201059    2.348865    2.386493
    132          1           0       11.886279   -0.029669    3.023980
    133          1           0       10.196928   -0.259188    3.547960
    134          1           0       10.244246    1.744559    4.906854
    135          1           0       13.044626    2.049175    3.878540
    136          1           0       12.767138    2.469682    5.562130
    137          1           0       11.817066    3.255676    4.388053
    138          1           0       11.318079    0.935655    6.759890
    139          1           0       12.513143    0.001973    5.828979
    140          1           0       11.015525   -0.636816    5.813181
 ---------------------------------------------------------------------

 SCF Done:  E(RZINDO/S) =  -473.917072915     A.U. after   20 cycles

 Excitation energies and oscillator strengths:

 Excited State   1:      Singlet-A      1.2479 eV  993.58 nm  f=0.5989  <S**2>=0.000
     175 ->178        -0.21678
     176 ->177         0.65564
 This state for optimization and/or second-order correction.
 Total Energy, E(CIS/TDA) =  -473.871215266
 Copying the excited state density for this state as the 1-particle RhoCI density.

 Excited State   2:      Singlet-A      1.8667 eV  664.20 nm  f=0.0362  <S**2>=0.000
     175 ->177         0.54303
     176 ->178         0.43087

 Excited State   3:      Singlet-A      2.9378 eV  422.04 nm  f=0.6835  <S**2>=0.000
     172 ->177        -0.10048
     175 ->177        -0.30554
     176 ->178         0.42498
     176 ->179         0.41358

 Excited State   4:      Singlet-A      2.9989 eV  413.44 nm  f=0.4713  <S**2>=0.000
     175 ->177         0.24423
     176 ->178        -0.28826
     176 ->179         0.49985
     176 ->182         0.11632

 Excited State   5:      Singlet-A      3.0291 eV  409.31 nm  f=0.0012  <S**2>=0.000
     168 ->177        -0.23857
     168 ->179         0.38502
     168 ->181        -0.19145
     168 ->182         0.18894
     168 ->186         0.23438
     169 ->177        -0.12181
     170 ->177        -0.16016
     170 ->181        -0.10192
     170 ->182         0.10847

 The electronic state is 1-A.
 Alpha  occ. eigenvalues --   -1.81688  -1.79740  -1.77990  -1.70758  -1.69934
 Alpha  occ. eigenvalues --   -1.68248  -1.64157  -1.61544  -1.60696  -1.58794
 Alpha  occ. eigenvalues --   -1.56156  -1.51935  -1.49519  -1.47530  -1.45908
 Alpha  occ. eigenvalues --   -1.43690  -1.41691  -1.38943  -1.38877  -1.37338
 Alpha  occ. eigenvalues --   -1.34701  -1.33771  -1.33585  -1.30575  -1.29101
 Alpha  occ. eigenvalues --   -1.27332  -1.24630  -1.22894  -1.20108  -1.18029
 Alpha  occ. eigenvalues --   -1.16155  -1.14942  -1.14808  -1.14011  -1.12489
 Alpha  occ. eigenvalues --   -1.11593  -1.10841  -1.10391  -1.04188  -1.02509
 Alpha  occ. eigenvalues --   -1.01435  -1.00875  -0.97312  -0.96541  -0.96225
 Alpha  occ. eigenvalues --   -0.95369  -0.93763  -0.93134  -0.92649  -0.91891
 Alpha  occ. eigenvalues --   -0.90696  -0.89216  -0.88480  -0.88407  -0.85107
 Alpha  occ. eigenvalues --   -0.84918  -0.83251  -0.82110  -0.80884  -0.79697
 Alpha  occ. eigenvalues --   -0.79411  -0.77879  -0.77377  -0.77066  -0.76130
 Alpha  occ. eigenvalues --   -0.75804  -0.75067  -0.74124  -0.73783  -0.73157
 Alpha  occ. eigenvalues --   -0.72828  -0.72125  -0.72004  -0.71473  -0.71159
 Alpha  occ. eigenvalues --   -0.70871  -0.69840  -0.69108  -0.68568  -0.68342
 Alpha  occ. eigenvalues --   -0.67499  -0.66602  -0.66283  -0.66089  -0.65761
 Alpha  occ. eigenvalues --   -0.65268  -0.65056  -0.64183  -0.63621  -0.63287
 Alpha  occ. eigenvalues --   -0.62992  -0.62458  -0.61964  -0.61131  -0.61068
 Alpha  occ. eigenvalues --   -0.60959  -0.60714  -0.60179  -0.59974  -0.59635
 Alpha  occ. eigenvalues --   -0.59348  -0.58476  -0.58331  -0.58104  -0.57935
 Alpha  occ. eigenvalues --   -0.57434  -0.57257  -0.56907  -0.56750  -0.56655
 Alpha  occ. eigenvalues --   -0.56273  -0.55046  -0.54978  -0.54898  -0.54530
 Alpha  occ. eigenvalues --   -0.54157  -0.53935  -0.53840  -0.52886  -0.52753
 Alpha  occ. eigenvalues --   -0.52487  -0.52089  -0.51946  -0.51691  -0.51632
 Alpha  occ. eigenvalues --   -0.51050  -0.50837  -0.50492  -0.50221  -0.50110
 Alpha  occ. eigenvalues --   -0.49828  -0.49596  -0.49479  -0.48921  -0.48827
 Alpha  occ. eigenvalues --   -0.48651  -0.48532  -0.48114  -0.47775  -0.47422
 Alpha  occ. eigenvalues --   -0.47213  -0.47114  -0.46985  -0.46780  -0.46657
 Alpha  occ. eigenvalues --   -0.46491  -0.45938  -0.45906  -0.45689  -0.45563
 Alpha  occ. eigenvalues --   -0.45527  -0.45132  -0.44931  -0.44616  -0.44442
 Alpha  occ. eigenvalues --   -0.43953  -0.43462  -0.43066  -0.42823  -0.42542
 Alpha  occ. eigenvalues --   -0.42209  -0.42029  -0.41363  -0.39281  -0.38120
 Alpha  occ. eigenvalues --   -0.37307  -0.36933  -0.34728  -0.34504  -0.34258
 Alpha  occ. eigenvalues --   -0.32812  -0.32431  -0.32096  -0.31388  -0.25689
 Alpha  occ. eigenvalues --   -0.21152
 Alpha virt. eigenvalues --   -0.07891  -0.01810  -0.00146   0.01131   0.01920
 Alpha virt. eigenvalues --    0.02005   0.03470   0.03635   0.04446   0.05275
 Alpha virt. eigenvalues --    0.06457   0.07139   0.07389   0.07875   0.08405

 Mulliken charges:
               1
     1  Mg   0.435434
     2  C   -0.069670
     3  C   -0.096029
     4  C   -0.068681
     5  C   -0.064067
     6  N   -0.269426
     7  C    0.134285
     8  C   -0.000668
     9  C    0.003268
    10  C    0.134378
    11  C   -0.051926
    12  C   -0.029619
    13  C    0.008275
    14  C    0.461815
    15  O   -0.517316
    16  O   -0.288169
    17  N   -0.298482
    18  C    0.097354
    19  C   -0.007945
    20  C   -0.070287
    21  C    0.124072
    22  C   -0.037553
    23  C    0.350786
    24  O   -0.528271
    25  C   -0.029178
    26  N   -0.248864
    27  C    0.119603
    28  C   -0.012205
    29  C   -0.008382
    30  C    0.132435
    31  C   -0.052681
    32  C   -0.035672
    33  C   -0.053516
    34  N   -0.335920
    35  C    0.084040
    36  C    0.038760
    37  C   -0.059813
    38  C    0.127820
    39  C   -0.030759
    40  C    0.345891
    41  O   -0.507853
    42  C    0.043652
    43  C    0.486172
    44  O   -0.498251
    45  O   -0.276777
    46  C    0.065346
    47  C    0.100687
    48  C   -0.116414
    49  C    0.011101
    50  C   -0.048245
    51  C   -0.025355
    52  C   -0.031688
    53  C   -0.036692
    54  C   -0.025584
    55  C   -0.058575
    56  C   -0.042792
    57  C   -0.048295
    58  C   -0.046773
    59  C   -0.025215
    60  C   -0.063027
    61  C   -0.036894
    62  C   -0.041699
    63  C   -0.042537
    64  C   -0.001877
    65  C   -0.053425
    66  C   -0.054084
    67  H    0.018022
    68  H    0.048526
    69  H    0.023771
    70  H    0.053707
    71  H    0.042711
    72  H    0.034327
    73  H    0.013926
    74  H    0.018695
    75  H    0.025590
    76  H    0.031838
    77  H    0.040777
    78  H    0.043741
    79  H    0.020601
    80  H    0.036838
    81  H    0.037275
    82  H    0.034922
    83  H    0.032772
    84  H    0.039456
    85  H    0.040664
    86  H    0.031308
    87  H    0.027131
    88  H    0.031385
    89  H    0.023441
    90  H    0.025256
    91  H    0.011918
    92  H    0.024173
    93  H    0.021069
    94  H    0.021384
    95  H    0.031086
    96  H    0.031771
    97  H    0.032234
    98  H    0.046759
    99  H    0.030986
   100  H    0.062393
   101  H    0.044855
   102  H    0.041478
   103  H    0.057486
   104  H    0.029192
   105  H    0.036020
   106  H    0.022446
   107  H    0.047484
   108  H    0.020744
   109  H    0.021219
   110  H    0.028002
   111  H    0.029804
   112  H    0.020761
   113  H    0.023032
   114  H    0.016010
   115  H    0.012721
   116  H    0.021608
   117  H    0.019220
   118  H    0.019146
   119  H    0.021149
   120  H    0.030769
   121  H    0.020085
   122  H    0.022995
   123  H    0.029131
   124  H    0.021532
   125  H    0.018058
   126  H    0.019713
   127  H    0.023094
   128  H    0.020403
   129  H    0.015182
   130  H    0.020179
   131  H    0.028966
   132  H    0.026126
   133  H    0.010169
   134  H    0.015636
   135  H    0.022264
   136  H    0.013775
   137  H    0.011049
   138  H    0.024538
   139  H    0.009997
   140  H    0.015483
 Sum of Mulliken charges =  -0.00000

 Dipole moment (field-independent basis, Debye):
    X=              6.1473    Y=              2.4843    Z=             -4.0749  Tot=              7.7824
 N-N= 4.316259043325D+03 E-N= 0.000000000000D+00  KE=-9.307234131800D+03
 Leave Link  601 at Thu May  5 08:36:11 2022, MaxMem=  6710886400 cpu:               1.0 elap:               0.1
 (Enter /sw/apps/gaussian-16.0/g16/l9999.exe)
 1\1\GINC-BP1-COMPUTE196\SP\RZINDO CIS\STO-3G\C55H74Mg1N4O6\OF15641\05-
 May-2022\0\\#p ZINDO=(nstates=5)\\step_701_chromophore_9 ZINDO\\0,1\Mg
 ,0,35.558,0.516,29.022\C,0,33.414,1.778,31.579\C,0,38.131,0.803,31.309
 \C,0,37.585,-0.15,26.516\C,0,32.835,0.988,26.801\N,0,35.764,1.242,31.2
 36\C,0,34.766,1.536,32.095\C,0,35.21,1.658,33.554\C,0,36.79,1.482,33.4
 5\C,0,36.913,1.183,31.913\C,0,37.505,2.819,33.718\C,0,34.514,0.579,34.
 5\C,0,34.56,0.766,36.064\C,0,35.232,2.072,36.542\O,0,34.791,3.226,36.4

 Normal termination of Gaussian 16 at Thu May  5 08:36:11 2022.
