 Gaussian 16, Revision A.03,
 Gaussian 16:  ES64L-G16RevA.03 25-Dec-2016

 ------------------------------
 #p blyp/Def2SVP td=(nstates=5)
 ------------------------------

 ---------------------------------------------------
 step_1301_chromophore_23 TDDFT with blyp functional
 ---------------------------------------------------
 Symbolic Z-matrix:
 Charge =  0 Multiplicity = 1

                         Standard orientation:
 ---------------------------------------------------------------------
 Center     Atomic      Atomic             Coordinates (Angstroms)
 Number     Number       Type             X           Y           Z
 ---------------------------------------------------------------------
      1         12           0        4.574760   -0.209909    0.287945
      2          6           0        2.690745    2.762776   -0.620162
      3          6           0        2.736661    0.012303    3.330082
      4          6           0        5.430739   -3.250437    0.941195
      5          6           0        5.772361   -0.254825   -2.994399
      6          7           0        2.966618    1.366360    1.312078
      7          6           0        2.407298    2.452305    0.737632
      8          6           0        1.315519    3.080841    1.594792
      9          6           0        1.569145    2.295964    3.002957
     10          6           0        2.522483    1.124054    2.541767
     11          6           0        2.040889    3.135827    4.157678
     12          6           0       -0.117560    2.946312    1.031569
     13          6           0       -1.006985    4.213760    1.012595
     14          6           0       -2.140138    4.109712    2.063360
     15          8           0       -1.959487    3.887592    3.259560
     16          8           0       -3.434736    4.085297    1.555552
     17          7           0        4.142646   -1.379217    1.944681
     18          6           0        3.368586   -1.146718    3.061091
     19          6           0        3.552482   -2.275761    3.979597
     20          6           0        4.351231   -3.238162    3.329251
     21          6           0        4.693950   -2.623562    2.010074
     22          6           0        2.807711   -2.451141    5.273386
     23          6           0        4.798276   -4.599964    3.946912
     24          8           0        4.446549   -4.867667    5.097595
     25          6           0        5.526923   -5.655717    3.155650
     26          7           0        5.439570   -1.576432   -0.918043
     27          6           0        5.823647   -2.791092   -0.371743
     28          6           0        6.960060   -3.417987   -1.299153
     29          6           0        7.091452   -2.399255   -2.535657
     30          6           0        6.036497   -1.340258   -2.146012
     31          6           0        8.325070   -3.561588   -0.503201
     32          6           0        6.926364   -3.035825   -3.961436
     33          6           0        8.236286   -3.231796   -4.739110
     34          7           0        4.431400    1.035109   -1.414128
     35          6           0        4.926463    0.827818   -2.664853
     36          6           0        4.480588    1.868191   -3.545082
     37          6           0        3.599099    2.604112   -2.818876
     38          6           0        3.540144    2.065195   -1.504410
     39          6           0        4.832255    1.970442   -4.967500
     40          6           0        2.720509    3.782218   -2.925296
     41          8           0        2.516906    4.584891   -3.861232
     42          6           0        2.124872    3.895436   -1.466350
     43          6           0        2.262934    5.339677   -1.097991
     44          8           0        3.299039    5.947544   -0.757630
     45          8           0        0.996445    5.930716   -1.019834
     46          6           0        1.086929    7.353657   -0.829421
     47          6           0       -4.564484    3.708307    2.402316
     48          6           0       -5.635613    3.220439    1.466560
     49          6           0       -5.948337    1.988273    1.024593
     50          6           0       -5.110348    0.713716    1.388615
     51          6           0       -7.178037    1.760847    0.194200
     52          6           0       -8.291346    1.054585    0.998775
     53          6           0       -9.741381    1.237543    0.376995
     54          6           0      -10.313736   -0.174714    0.113133
     55          6           0      -11.877359   -0.253632    0.137307
     56          6           0       -9.703817   -0.833376   -1.225114
     57          6           0       -9.398418   -2.385089   -1.260397
     58          6           0       -9.145054   -2.934510   -2.665156
     59          6           0       -7.674694   -3.374224   -2.824891
     60          6           0       -7.134804   -2.911575   -4.191011
     61          6           0       -7.402754   -4.918365   -2.632444
     62          6           0       -6.861848   -5.284306   -1.203576
     63          6           0       -5.338115   -4.885356   -1.180022
     64          6           0       -5.020897   -3.903859    0.011841
     65          6           0       -4.336162   -2.581404   -0.461343
     66          6           0       -4.189092   -4.661723    1.068408
     67          1           0        2.309548    0.136278    4.327812
     68          1           0        5.947842   -4.151481    1.277905
     69          1           0        6.168988   -0.121272   -4.003077
     70          1           0        1.465618    4.149823    1.748521
     71          1           0        0.692507    1.722558    3.303386
     72          1           0        1.502441    4.083085    4.172031
     73          1           0        3.103956    3.207916    3.930066
     74          1           0        1.862556    2.467177    5.000878
     75          1           0       -0.540450    2.212651    1.718263
     76          1           0       -0.087336    2.515280    0.030320
     77          1           0       -1.476447    4.278930    0.031418
     78          1           0       -0.431787    5.117875    1.210176
     79          1           0        3.435332   -2.587108    6.154167
     80          1           0        2.223806   -3.360045    5.129890
     81          1           0        2.066988   -1.662694    5.402413
     82          1           0        6.533379   -5.242191    3.099735
     83          1           0        4.972873   -5.760714    2.222703
     84          1           0        5.643106   -6.652881    3.581346
     85          1           0        6.812345   -4.443909   -1.638532
     86          1           0        8.069079   -1.922996   -2.470331
     87          1           0        8.064691   -3.567006    0.554954
     88          1           0        9.012370   -2.747730   -0.734055
     89          1           0        8.694678   -4.568765   -0.694330
     90          1           0        6.171294   -2.509482   -4.544691
     91          1           0        6.598610   -4.058994   -3.778429
     92          1           0        8.480124   -4.293793   -4.754918
     93          1           0        9.080979   -2.730486   -4.266827
     94          1           0        8.168146   -2.995052   -5.801047
     95          1           0        4.824068    3.036607   -5.192573
     96          1           0        4.113968    1.402217   -5.558555
     97          1           0        5.868137    1.647788   -5.068114
     98          1           0        1.062840    3.685516   -1.589572
     99          1           0        1.569460    7.527462    0.131608
    100          1           0        0.066028    7.709708   -0.690010
    101          1           0        1.462329    7.878176   -1.708756
    102          1           0       -4.935466    4.660981    2.780538
    103          1           0       -4.409699    3.004957    3.220856
    104          1           0       -6.373981    4.010551    1.335341
    105          1           0       -5.688167    0.228444    2.174718
    106          1           0       -4.131993    1.074800    1.706702
    107          1           0       -4.939691    0.097914    0.506027
    108          1           0       -6.949516    0.970819   -0.521145
    109          1           0       -7.479034    2.597596   -0.436457
    110          1           0       -8.128035    1.394032    2.021962
    111          1           0       -8.119226   -0.012892    1.133271
    112          1           0       -9.721657    1.785553   -0.565359
    113          1           0      -10.321421    1.837581    1.078092
    114          1           0       -9.954932   -0.698661    0.999928
    115          1           0      -12.310878   -1.035719    0.760684
    116          1           0      -12.194232   -0.505940   -0.874708
    117          1           0      -12.383574    0.683478    0.369612
    118          1           0       -8.786711   -0.296719   -1.468220
    119          1           0      -10.446698   -0.667176   -2.005809
    120          1           0      -10.265082   -2.995393   -1.003119
    121          1           0       -8.578776   -2.607364   -0.577550
    122          1           0       -9.328833   -2.093463   -3.333435
    123          1           0       -9.729378   -3.800245   -2.976920
    124          1           0       -7.041166   -2.866853   -2.096969
    125          1           0       -7.656405   -2.013309   -4.522331
    126          1           0       -7.264722   -3.661992   -4.970611
    127          1           0       -6.092008   -2.759463   -3.913817
    128          1           0       -6.667356   -5.328723   -3.325089
    129          1           0       -8.375296   -5.355505   -2.858337
    130          1           0       -6.826184   -6.367921   -1.086264
    131          1           0       -7.353124   -4.780351   -0.371414
    132          1           0       -4.960763   -4.499939   -2.126236
    133          1           0       -4.795249   -5.826356   -1.085429
    134          1           0       -5.885959   -3.572566    0.586901
    135          1           0       -3.998988   -2.563625   -1.496722
    136          1           0       -3.540924   -2.255916    0.209502
    137          1           0       -5.122399   -1.836091   -0.341688
    138          1           0       -4.603456   -4.320930    2.017427
    139          1           0       -3.155896   -4.313258    1.062140
    140          1           0       -4.234819   -5.750116    1.034264
 ---------------------------------------------------------------------

 SCF Done:  E(RB-LYP) =  -3007.37110572     A.U. after   21 cycles

 Excitation energies and oscillator strengths:

 Excited State   1:      Singlet-A      1.8639 eV  665.19 nm  f=0.2780  <S**2>=0.000
     245 -> 248       -0.21452
     246 -> 247        0.68012
     246 <- 247       -0.13357
 This state for optimization and/or second-order correction.
 Total Energy, E(TD-HF/TD-DFT) =  -3007.30260939
 Copying the excited state density for this state as the 1-particle RhoCI density.

 Excited State   2:      Singlet-A      1.9902 eV  622.97 nm  f=0.0026  <S**2>=0.000
     244 -> 247        0.69657
     245 -> 247        0.10831

 Excited State   3:      Singlet-A      2.0827 eV  595.31 nm  f=0.0531  <S**2>=0.000
     244 -> 247       -0.11467
     245 -> 247        0.61536
     246 -> 248        0.30302

 Excited State   4:      Singlet-A      2.1776 eV  569.36 nm  f=0.0009  <S**2>=0.000
     243 -> 247        0.70190

 Excited State   5:      Singlet-A      2.3934 eV  518.02 nm  f=0.0005  <S**2>=0.000
     242 -> 247        0.70694

 The electronic state is 1-A.
 Alpha  occ. eigenvalues --  -46.28057 -18.82145 -18.81248 -18.76804 -18.76514
 Alpha  occ. eigenvalues --  -18.76266 -18.75746 -14.03837 -14.03026 -14.01703
 Alpha  occ. eigenvalues --  -14.01093 -10.04195 -10.03887 -10.00589 -10.00346
 Alpha  occ. eigenvalues --   -9.98188  -9.97572  -9.97161  -9.97035  -9.96997
 Alpha  occ. eigenvalues --   -9.96691  -9.95908  -9.95533  -9.95128  -9.94952
 Alpha  occ. eigenvalues --   -9.94730  -9.94545  -9.94276  -9.94239  -9.93961
 Alpha  occ. eigenvalues --   -9.93902  -9.93890  -9.93737  -9.93317  -9.93286
 Alpha  occ. eigenvalues --   -9.93275  -9.93170  -9.93163  -9.92938  -9.92925
 Alpha  occ. eigenvalues --   -9.92771  -9.92673  -9.92603  -9.92570  -9.92526
 Alpha  occ. eigenvalues --   -9.92311  -9.92253  -9.92196  -9.92181  -9.92033
 Alpha  occ. eigenvalues --   -9.91988  -9.91928  -9.91917  -9.91781  -9.91543
 Alpha  occ. eigenvalues --   -9.91510  -9.91430  -9.91412  -9.91213  -9.91203
 Alpha  occ. eigenvalues --   -9.91152  -9.90971  -9.90911  -9.90900  -9.90618
 Alpha  occ. eigenvalues --   -9.90456  -2.92681  -1.73088  -1.72607  -1.72366
 Alpha  occ. eigenvalues --   -0.97171  -0.96649  -0.91287  -0.90424  -0.88732
 Alpha  occ. eigenvalues --   -0.88722  -0.86760  -0.86108  -0.85562  -0.84719
 Alpha  occ. eigenvalues --   -0.75607  -0.73518  -0.72877  -0.72465  -0.72346
 Alpha  occ. eigenvalues --   -0.71880  -0.71534  -0.70935  -0.70803  -0.70716
 Alpha  occ. eigenvalues --   -0.69751  -0.69104  -0.68027  -0.67686  -0.67404
 Alpha  occ. eigenvalues --   -0.66722  -0.66286  -0.65470  -0.65092  -0.64904
 Alpha  occ. eigenvalues --   -0.64068  -0.62524  -0.62262  -0.61588  -0.60706
 Alpha  occ. eigenvalues --   -0.60532  -0.60274  -0.59837  -0.59248  -0.58581
 Alpha  occ. eigenvalues --   -0.58071  -0.57536  -0.57128  -0.55281  -0.54606
 Alpha  occ. eigenvalues --   -0.53872  -0.53333  -0.52589  -0.52424  -0.51714
 Alpha  occ. eigenvalues --   -0.51472  -0.51415  -0.50992  -0.50756  -0.49863
 Alpha  occ. eigenvalues --   -0.49651  -0.49269  -0.48881  -0.48059  -0.46703
 Alpha  occ. eigenvalues --   -0.46024  -0.45856  -0.45780  -0.45331  -0.44456
 Alpha  occ. eigenvalues --   -0.44128  -0.43598  -0.43233  -0.43104  -0.42467
 Alpha  occ. eigenvalues --   -0.42430  -0.41807  -0.41557  -0.41281  -0.41060
 Alpha  occ. eigenvalues --   -0.40560  -0.40436  -0.40430  -0.40374  -0.40196
 Alpha  occ. eigenvalues --   -0.39922  -0.39737  -0.39512  -0.39507  -0.39158
 Alpha  occ. eigenvalues --   -0.38901  -0.38753  -0.38653  -0.38455  -0.38132
 Alpha  occ. eigenvalues --   -0.37820  -0.37803  -0.37694  -0.37615  -0.37522
 Alpha  occ. eigenvalues --   -0.37401  -0.37101  -0.36896  -0.36762  -0.36690
 Alpha  occ. eigenvalues --   -0.36119  -0.36037  -0.35959  -0.35789  -0.35472
 Alpha  occ. eigenvalues --   -0.35379  -0.35314  -0.35073  -0.34935  -0.34678
 Alpha  occ. eigenvalues --   -0.34482  -0.34437  -0.34341  -0.34254  -0.34081
 Alpha  occ. eigenvalues --   -0.34065  -0.33881  -0.33664  -0.33589  -0.33174
 Alpha  occ. eigenvalues --   -0.32973  -0.32857  -0.32591  -0.32492  -0.32339
 Alpha  occ. eigenvalues --   -0.32143  -0.31925  -0.31693  -0.31631  -0.31429
 Alpha  occ. eigenvalues --   -0.31222  -0.31045  -0.30915  -0.30721  -0.30546
 Alpha  occ. eigenvalues --   -0.30468  -0.30286  -0.30134  -0.30011  -0.29836
 Alpha  occ. eigenvalues --   -0.29696  -0.29597  -0.29539  -0.29307  -0.28852
 Alpha  occ. eigenvalues --   -0.28816  -0.28404  -0.27991  -0.27932  -0.27699
 Alpha  occ. eigenvalues --   -0.27500  -0.27358  -0.27210  -0.26805  -0.26705
 Alpha  occ. eigenvalues --   -0.26522  -0.26491  -0.25843  -0.25404  -0.25252
 Alpha  occ. eigenvalues --   -0.24918  -0.24328  -0.24163  -0.24120  -0.23834
 Alpha  occ. eigenvalues --   -0.23148  -0.22497  -0.21885  -0.21550  -0.21101
 Alpha  occ. eigenvalues --   -0.20818  -0.20239  -0.19327  -0.18699  -0.17673
 Alpha  occ. eigenvalues --   -0.16047
 Alpha virt. eigenvalues --   -0.11446  -0.07520  -0.06506  -0.04939  -0.03668
 Alpha virt. eigenvalues --   -0.03393  -0.03102  -0.02221  -0.01645  -0.00226
 Alpha virt. eigenvalues --    0.00609   0.01157   0.01667   0.02398   0.03020

 Mulliken charges:
               1
     1  Mg   0.704271
     2  C    0.067076
     3  C   -0.068623
     4  C   -0.048169
     5  C   -0.072415
     6  N   -0.117306
     7  C   -0.113981
     8  C    0.011941
     9  C   -0.035830
    10  C   -0.048543
    11  C    0.169870
    12  C    0.112206
    13  C    0.165701
    14  C    0.058247
    15  O   -0.216852
    16  O   -0.280032
    17  N   -0.301306
    18  C    0.167400
    19  C   -0.155338
    20  C    0.021829
    21  C    0.104539
    22  C    0.198095
    23  C   -0.076321
    24  O   -0.173634
    25  C    0.156088
    26  N   -0.301592
    27  C    0.080302
    28  C   -0.033043
    29  C    0.043793
    30  C    0.068176
    31  C    0.108444
    32  C    0.098211
    33  C    0.055892
    34  N   -0.242278
    35  C    0.078953
    36  C   -0.210460
    37  C    0.094940
    38  C    0.060054
    39  C    0.183321
    40  C   -0.022129
    41  O   -0.150595
    42  C    0.045969
    43  C    0.125585
    44  O   -0.200214
    45  O   -0.282011
    46  C    0.230548
    47  C    0.344569
    48  C   -0.117763
    49  C   -0.163918
    50  C    0.124887
    51  C    0.166226
    52  C    0.013077
    53  C    0.121374
    54  C   -0.068001
    55  C    0.112444
    56  C    0.067510
    57  C    0.067829
    58  C    0.136790
    59  C   -0.122924
    60  C    0.096942
    61  C    0.102529
    62  C    0.082023
    63  C    0.080553
    64  C   -0.109363
    65  C    0.074851
    66  C    0.100340
    67  H   -0.062844
    68  H   -0.073535
    69  H   -0.064585
    70  H   -0.030858
    71  H   -0.022451
    72  H    0.014929
    73  H   -0.008362
    74  H   -0.002924
    75  H   -0.007749
    76  H   -0.012820
    77  H   -0.009665
    78  H    0.008625
    79  H    0.013907
    80  H    0.003511
    81  H   -0.029353
    82  H    0.018501
    83  H    0.023704
    84  H   -0.009820
    85  H   -0.018763
    86  H   -0.014618
    87  H   -0.012635
    88  H   -0.000190
    89  H   -0.009336
    90  H   -0.008175
    91  H   -0.024030
    92  H   -0.016524
    93  H   -0.008625
    94  H   -0.006628
    95  H    0.006784
    96  H    0.019644
    97  H   -0.009004
    98  H   -0.002167
    99  H    0.010181
   100  H   -0.006630
   101  H    0.026869
   102  H   -0.026932
   103  H    0.006992
   104  H   -0.041331
   105  H    0.015359
   106  H   -0.002575
   107  H    0.002079
   108  H   -0.041608
   109  H   -0.015393
   110  H   -0.030501
   111  H   -0.020218
   112  H   -0.027408
   113  H   -0.028598
   114  H   -0.033708
   115  H   -0.011344
   116  H   -0.032313
   117  H   -0.019129
   118  H   -0.026740
   119  H   -0.020770
   120  H   -0.034663
   121  H   -0.015551
   122  H   -0.042680
   123  H   -0.031740
   124  H   -0.036634
   125  H   -0.022129
   126  H   -0.013813
   127  H   -0.013512
   128  H   -0.027786
   129  H   -0.044823
   130  H   -0.032428
   131  H   -0.014494
   132  H   -0.030257
   133  H   -0.036677
   134  H   -0.024447
   135  H   -0.004354
   136  H   -0.015982
   137  H    0.005713
   138  H   -0.028339
   139  H   -0.018513
   140  H   -0.007871
 Sum of Mulliken charges =  -0.00000

 Dipole moment (field-independent basis, Debye):
    X=             -0.1722    Y=             -3.7726    Z=             -1.4872  Tot=              4.0588
 Quadrupole moment (field-independent basis, Debye-Ang):
   XX=           -363.5698   YY=           -417.1770   ZZ=           -429.8094
   XY=            -25.7602   XZ=            -14.9431   YZ=             28.5298

 Normal termination of Gaussian 16 at Wed Apr 27 22:01:15 2022.
