 Gaussian 16, Revision A.03,
 Gaussian 16:  ES64L-G16RevA.03 25-Dec-2016

 -----------------------------------
 #p cam-b3lyp/Def2SVP td=(nstates=5)
 -----------------------------------

 --------------------------------------------------------
 step_1301_chromophore_23 TDDFT with cam-b3lyp functional
 --------------------------------------------------------
 Symbolic Z-matrix:
 Charge =  0 Multiplicity = 1

                         Standard orientation:
 ---------------------------------------------------------------------
 Center     Atomic      Atomic             Coordinates (Angstroms)
 Number     Number       Type             X           Y           Z
 ---------------------------------------------------------------------
      1         12           0        4.574760   -0.209909    0.287945
      2          6           0        2.690745    2.762776   -0.620162
      3          6           0        2.736661    0.012303    3.330082
      4          6           0        5.430739   -3.250437    0.941195
      5          6           0        5.772361   -0.254825   -2.994399
      6          7           0        2.966618    1.366360    1.312078
      7          6           0        2.407298    2.452305    0.737632
      8          6           0        1.315519    3.080841    1.594792
      9          6           0        1.569145    2.295964    3.002957
     10          6           0        2.522483    1.124054    2.541767
     11          6           0        2.040889    3.135827    4.157678
     12          6           0       -0.117560    2.946312    1.031569
     13          6           0       -1.006985    4.213760    1.012595
     14          6           0       -2.140138    4.109712    2.063360
     15          8           0       -1.959487    3.887592    3.259560
     16          8           0       -3.434736    4.085297    1.555552
     17          7           0        4.142646   -1.379217    1.944681
     18          6           0        3.368586   -1.146718    3.061091
     19          6           0        3.552482   -2.275761    3.979597
     20          6           0        4.351231   -3.238162    3.329251
     21          6           0        4.693950   -2.623562    2.010074
     22          6           0        2.807711   -2.451141    5.273386
     23          6           0        4.798276   -4.599964    3.946912
     24          8           0        4.446549   -4.867667    5.097595
     25          6           0        5.526923   -5.655717    3.155650
     26          7           0        5.439570   -1.576432   -0.918043
     27          6           0        5.823647   -2.791092   -0.371743
     28          6           0        6.960060   -3.417987   -1.299153
     29          6           0        7.091452   -2.399255   -2.535657
     30          6           0        6.036497   -1.340258   -2.146012
     31          6           0        8.325070   -3.561588   -0.503201
     32          6           0        6.926364   -3.035825   -3.961436
     33          6           0        8.236286   -3.231796   -4.739110
     34          7           0        4.431400    1.035109   -1.414128
     35          6           0        4.926463    0.827818   -2.664853
     36          6           0        4.480588    1.868191   -3.545082
     37          6           0        3.599099    2.604112   -2.818876
     38          6           0        3.540144    2.065195   -1.504410
     39          6           0        4.832255    1.970442   -4.967500
     40          6           0        2.720509    3.782218   -2.925296
     41          8           0        2.516906    4.584891   -3.861232
     42          6           0        2.124872    3.895436   -1.466350
     43          6           0        2.262934    5.339677   -1.097991
     44          8           0        3.299039    5.947544   -0.757630
     45          8           0        0.996445    5.930716   -1.019834
     46          6           0        1.086929    7.353657   -0.829421
     47          6           0       -4.564484    3.708307    2.402316
     48          6           0       -5.635613    3.220439    1.466560
     49          6           0       -5.948337    1.988273    1.024593
     50          6           0       -5.110348    0.713716    1.388615
     51          6           0       -7.178037    1.760847    0.194200
     52          6           0       -8.291346    1.054585    0.998775
     53          6           0       -9.741381    1.237543    0.376995
     54          6           0      -10.313736   -0.174714    0.113133
     55          6           0      -11.877359   -0.253632    0.137307
     56          6           0       -9.703817   -0.833376   -1.225114
     57          6           0       -9.398418   -2.385089   -1.260397
     58          6           0       -9.145054   -2.934510   -2.665156
     59          6           0       -7.674694   -3.374224   -2.824891
     60          6           0       -7.134804   -2.911575   -4.191011
     61          6           0       -7.402754   -4.918365   -2.632444
     62          6           0       -6.861848   -5.284306   -1.203576
     63          6           0       -5.338115   -4.885356   -1.180022
     64          6           0       -5.020897   -3.903859    0.011841
     65          6           0       -4.336162   -2.581404   -0.461343
     66          6           0       -4.189092   -4.661723    1.068408
     67          1           0        2.309548    0.136278    4.327812
     68          1           0        5.947842   -4.151481    1.277905
     69          1           0        6.168988   -0.121272   -4.003077
     70          1           0        1.465618    4.149823    1.748521
     71          1           0        0.692507    1.722558    3.303386
     72          1           0        1.502441    4.083085    4.172031
     73          1           0        3.103956    3.207916    3.930066
     74          1           0        1.862556    2.467177    5.000878
     75          1           0       -0.540450    2.212651    1.718263
     76          1           0       -0.087336    2.515280    0.030320
     77          1           0       -1.476447    4.278930    0.031418
     78          1           0       -0.431787    5.117875    1.210176
     79          1           0        3.435332   -2.587108    6.154167
     80          1           0        2.223806   -3.360045    5.129890
     81          1           0        2.066988   -1.662694    5.402413
     82          1           0        6.533379   -5.242191    3.099735
     83          1           0        4.972873   -5.760714    2.222703
     84          1           0        5.643106   -6.652881    3.581346
     85          1           0        6.812345   -4.443909   -1.638532
     86          1           0        8.069079   -1.922996   -2.470331
     87          1           0        8.064691   -3.567006    0.554954
     88          1           0        9.012370   -2.747730   -0.734055
     89          1           0        8.694678   -4.568765   -0.694330
     90          1           0        6.171294   -2.509482   -4.544691
     91          1           0        6.598610   -4.058994   -3.778429
     92          1           0        8.480124   -4.293793   -4.754918
     93          1           0        9.080979   -2.730486   -4.266827
     94          1           0        8.168146   -2.995052   -5.801047
     95          1           0        4.824068    3.036607   -5.192573
     96          1           0        4.113968    1.402217   -5.558555
     97          1           0        5.868137    1.647788   -5.068114
     98          1           0        1.062840    3.685516   -1.589572
     99          1           0        1.569460    7.527462    0.131608
    100          1           0        0.066028    7.709708   -0.690010
    101          1           0        1.462329    7.878176   -1.708756
    102          1           0       -4.935466    4.660981    2.780538
    103          1           0       -4.409699    3.004957    3.220856
    104          1           0       -6.373981    4.010551    1.335341
    105          1           0       -5.688167    0.228444    2.174718
    106          1           0       -4.131993    1.074800    1.706702
    107          1           0       -4.939691    0.097914    0.506027
    108          1           0       -6.949516    0.970819   -0.521145
    109          1           0       -7.479034    2.597596   -0.436457
    110          1           0       -8.128035    1.394032    2.021962
    111          1           0       -8.119226   -0.012892    1.133271
    112          1           0       -9.721657    1.785553   -0.565359
    113          1           0      -10.321421    1.837581    1.078092
    114          1           0       -9.954932   -0.698661    0.999928
    115          1           0      -12.310878   -1.035719    0.760684
    116          1           0      -12.194232   -0.505940   -0.874708
    117          1           0      -12.383574    0.683478    0.369612
    118          1           0       -8.786711   -0.296719   -1.468220
    119          1           0      -10.446698   -0.667176   -2.005809
    120          1           0      -10.265082   -2.995393   -1.003119
    121          1           0       -8.578776   -2.607364   -0.577550
    122          1           0       -9.328833   -2.093463   -3.333435
    123          1           0       -9.729378   -3.800245   -2.976920
    124          1           0       -7.041166   -2.866853   -2.096969
    125          1           0       -7.656405   -2.013309   -4.522331
    126          1           0       -7.264722   -3.661992   -4.970611
    127          1           0       -6.092008   -2.759463   -3.913817
    128          1           0       -6.667356   -5.328723   -3.325089
    129          1           0       -8.375296   -5.355505   -2.858337
    130          1           0       -6.826184   -6.367921   -1.086264
    131          1           0       -7.353124   -4.780351   -0.371414
    132          1           0       -4.960763   -4.499939   -2.126236
    133          1           0       -4.795249   -5.826356   -1.085429
    134          1           0       -5.885959   -3.572566    0.586901
    135          1           0       -3.998988   -2.563625   -1.496722
    136          1           0       -3.540924   -2.255916    0.209502
    137          1           0       -5.122399   -1.836091   -0.341688
    138          1           0       -4.603456   -4.320930    2.017427
    139          1           0       -3.155896   -4.313258    1.062140
    140          1           0       -4.234819   -5.750116    1.034264
 ---------------------------------------------------------------------

 SCF Done:  E(RCAM-B3LYP) =  -3007.15572364     A.U. after   17 cycles

 Excitation energies and oscillator strengths:

 Excited State   1:      Singlet-A      1.7868 eV  693.90 nm  f=0.3515  <S**2>=0.000
     245 -> 248        0.19911
     246 -> 247        0.67988
     245 <- 248        0.10834
 This state for optimization and/or second-order correction.
 Total Energy, E(TD-HF/TD-DFT) =  -3007.09006072
 Copying the excited state density for this state as the 1-particle RhoCI density.

 Excited State   2:      Singlet-A      2.3310 eV  531.89 nm  f=0.0478  <S**2>=0.000
     245 -> 247        0.59959
     246 -> 248       -0.36567

 Excited State   3:      Singlet-A      3.4807 eV  356.20 nm  f=0.7554  <S**2>=0.000
     242 -> 247        0.17202
     245 -> 247        0.34112
     246 -> 248        0.58372
     245 <- 247       -0.10750

 Excited State   4:      Singlet-A      3.6214 eV  342.36 nm  f=0.0006  <S**2>=0.000
     239 -> 247       -0.13598
     239 -> 249        0.10161
     240 -> 247       -0.32971
     240 -> 249        0.24595
     240 -> 251       -0.12706
     242 -> 247       -0.29179
     243 -> 247        0.38561

 Excited State   5:      Singlet-A      3.6403 eV  340.59 nm  f=0.0013  <S**2>=0.000
     239 -> 247        0.16680
     239 -> 249       -0.11323
     240 -> 247        0.35499
     240 -> 249       -0.22141
     240 -> 251        0.13066
     242 -> 247       -0.21034
     243 -> 247        0.42338
     244 -> 247        0.10935

 The electronic state is 1-A.
 Alpha  occ. eigenvalues --  -46.89693 -19.25156 -19.24064 -19.20005 -19.19761
 Alpha  occ. eigenvalues --  -19.19252 -19.19102 -14.42559 -14.42103 -14.40346
 Alpha  occ. eigenvalues --  -14.39492 -10.39829 -10.39259 -10.35931 -10.35816
 Alpha  occ. eigenvalues --  -10.33092 -10.31890 -10.31623 -10.31504 -10.31002
 Alpha  occ. eigenvalues --  -10.30987 -10.30409 -10.30016 -10.29255 -10.28970
 Alpha  occ. eigenvalues --  -10.28844 -10.28799 -10.28790 -10.28734 -10.28510
 Alpha  occ. eigenvalues --  -10.28026 -10.27921 -10.27798 -10.27777 -10.27407
 Alpha  occ. eigenvalues --  -10.27383 -10.27202 -10.26905 -10.26905 -10.26877
 Alpha  occ. eigenvalues --  -10.26786 -10.26736 -10.26635 -10.26428 -10.26297
 Alpha  occ. eigenvalues --  -10.26040 -10.25994 -10.25813 -10.25743 -10.25719
 Alpha  occ. eigenvalues --  -10.25709 -10.25650 -10.25607 -10.25559 -10.25213
 Alpha  occ. eigenvalues --  -10.25160 -10.25129 -10.25124 -10.25073 -10.24897
 Alpha  occ. eigenvalues --  -10.24835 -10.24818 -10.24559 -10.24546 -10.24187
 Alpha  occ. eigenvalues --  -10.24025  -3.18220  -1.93101  -1.92709  -1.92494
 Alpha  occ. eigenvalues --   -1.15723  -1.15066  -1.09803  -1.08807  -1.06735
 Alpha  occ. eigenvalues --   -1.06544  -1.04526  -1.03723  -1.03314  -1.02238
 Alpha  occ. eigenvalues --   -0.92800  -0.90349  -0.89665  -0.89284  -0.89110
 Alpha  occ. eigenvalues --   -0.88528  -0.88167  -0.87463  -0.87302  -0.87249
 Alpha  occ. eigenvalues --   -0.86564  -0.85536  -0.84272  -0.83865  -0.83658
 Alpha  occ. eigenvalues --   -0.82790  -0.82494  -0.81466  -0.80926  -0.80775
 Alpha  occ. eigenvalues --   -0.79796  -0.78152  -0.77851  -0.77280  -0.76122
 Alpha  occ. eigenvalues --   -0.75886  -0.75599  -0.75149  -0.74491  -0.73759
 Alpha  occ. eigenvalues --   -0.73084  -0.72521  -0.72047  -0.70087  -0.69179
 Alpha  occ. eigenvalues --   -0.68531  -0.67827  -0.67171  -0.66782  -0.65879
 Alpha  occ. eigenvalues --   -0.65650  -0.65542  -0.65040  -0.64921  -0.63841
 Alpha  occ. eigenvalues --   -0.63591  -0.62950  -0.62783  -0.61827  -0.60369
 Alpha  occ. eigenvalues --   -0.59522  -0.59451  -0.59274  -0.58745  -0.57991
 Alpha  occ. eigenvalues --   -0.57722  -0.56920  -0.56562  -0.56262  -0.55740
 Alpha  occ. eigenvalues --   -0.55489  -0.54956  -0.54247  -0.53986  -0.53836
 Alpha  occ. eigenvalues --   -0.53522  -0.53396  -0.53240  -0.53061  -0.52938
 Alpha  occ. eigenvalues --   -0.52560  -0.52469  -0.52052  -0.51879  -0.51849
 Alpha  occ. eigenvalues --   -0.51462  -0.51373  -0.51113  -0.51019  -0.50654
 Alpha  occ. eigenvalues --   -0.50326  -0.50184  -0.50059  -0.49986  -0.49816
 Alpha  occ. eigenvalues --   -0.49740  -0.49655  -0.49283  -0.49218  -0.49108
 Alpha  occ. eigenvalues --   -0.48851  -0.48358  -0.47947  -0.47654  -0.47608
 Alpha  occ. eigenvalues --   -0.47409  -0.47227  -0.47125  -0.46997  -0.46866
 Alpha  occ. eigenvalues --   -0.46589  -0.46338  -0.46192  -0.46083  -0.46005
 Alpha  occ. eigenvalues --   -0.45935  -0.45585  -0.45364  -0.45279  -0.44929
 Alpha  occ. eigenvalues --   -0.44824  -0.44705  -0.44346  -0.44229  -0.44124
 Alpha  occ. eigenvalues --   -0.43632  -0.43466  -0.43277  -0.43030  -0.42877
 Alpha  occ. eigenvalues --   -0.42734  -0.42359  -0.42355  -0.42210  -0.42112
 Alpha  occ. eigenvalues --   -0.41949  -0.41843  -0.41652  -0.41467  -0.41295
 Alpha  occ. eigenvalues --   -0.41056  -0.40899  -0.40692  -0.40570  -0.40012
 Alpha  occ. eigenvalues --   -0.39734  -0.39480  -0.39031  -0.38923  -0.38537
 Alpha  occ. eigenvalues --   -0.38358  -0.38348  -0.38031  -0.37975  -0.37379
 Alpha  occ. eigenvalues --   -0.37221  -0.37170  -0.36541  -0.36488  -0.36376
 Alpha  occ. eigenvalues --   -0.35753  -0.35503  -0.34781  -0.34498  -0.34288
 Alpha  occ. eigenvalues --   -0.34222  -0.33627  -0.33400  -0.31524  -0.31301
 Alpha  occ. eigenvalues --   -0.31105  -0.30625  -0.30257  -0.30207  -0.24553
 Alpha  occ. eigenvalues --   -0.21315
 Alpha virt. eigenvalues --   -0.08329  -0.02590   0.00068   0.01670   0.02166
 Alpha virt. eigenvalues --    0.04019   0.04267   0.05091   0.05583   0.06572
 Alpha virt. eigenvalues --    0.06822   0.07598   0.08414   0.08794   0.09266

 Mulliken charges:
               1
     1  Mg   0.835023
     2  C    0.043854
     3  C   -0.077672
     4  C   -0.082164
     5  C   -0.079392
     6  N   -0.180157
     7  C   -0.069346
     8  C   -0.033611
     9  C   -0.084640
    10  C   -0.030336
    11  C    0.113133
    12  C    0.056192
    13  C    0.094531
    14  C    0.143904
    15  O   -0.258166
    16  O   -0.345927
    17  N   -0.390686
    18  C    0.172509
    19  C   -0.151317
    20  C   -0.049648
    21  C    0.142678
    22  C    0.139013
    23  C    0.003911
    24  O   -0.212458
    25  C    0.068090
    26  N   -0.381370
    27  C    0.107009
    28  C   -0.081032
    29  C   -0.006321
    30  C    0.086793
    31  C    0.053556
    32  C    0.037075
    33  C   -0.004130
    34  N   -0.328207
    35  C    0.081377
    36  C   -0.208307
    37  C    0.012628
    38  C    0.091315
    39  C    0.129269
    40  C    0.082225
    41  O   -0.189559
    42  C   -0.031622
    43  C    0.211344
    44  O   -0.236158
    45  O   -0.344478
    46  C    0.185543
    47  C    0.307360
    48  C   -0.136631
    49  C   -0.183031
    50  C    0.072913
    51  C    0.103344
    52  C   -0.035623
    53  C    0.068482
    54  C   -0.125300
    55  C    0.054554
    56  C    0.019337
    57  C    0.021313
    58  C    0.080733
    59  C   -0.174681
    60  C    0.045582
    61  C    0.049942
    62  C    0.029115
    63  C    0.025668
    64  C   -0.166470
    65  C    0.023070
    66  C    0.043910
    67  H   -0.026424
    68  H   -0.040434
    69  H   -0.029305
    70  H    0.002623
    71  H    0.010823
    72  H    0.039456
    73  H    0.015754
    74  H    0.018617
    75  H    0.022556
    76  H    0.017785
    77  H    0.027797
    78  H    0.037785
    79  H    0.043552
    80  H    0.031969
    81  H   -0.002106
    82  H    0.043513
    83  H    0.050529
    84  H    0.027375
    85  H    0.014815
    86  H    0.018018
    87  H    0.010590
    88  H    0.024231
    89  H    0.015208
    90  H    0.021492
    91  H    0.004366
    92  H    0.006734
    93  H    0.013656
    94  H    0.018204
    95  H    0.033920
    96  H    0.044876
    97  H    0.014103
    98  H    0.040903
    99  H    0.034556
   100  H    0.017500
   101  H    0.049866
   102  H    0.004228
   103  H    0.036455
   104  H   -0.009655
   105  H    0.036631
   106  H    0.020183
   107  H    0.022909
   108  H   -0.013660
   109  H    0.015610
   110  H   -0.001539
   111  H    0.003682
   112  H    0.000294
   113  H    0.002190
   114  H   -0.002207
   115  H    0.012793
   116  H   -0.008800
   117  H    0.005621
   118  H   -0.003239
   119  H    0.004839
   120  H   -0.005870
   121  H    0.004586
   122  H   -0.012678
   123  H   -0.002696
   124  H   -0.009780
   125  H    0.001961
   126  H    0.009393
   127  H    0.007597
   128  H    0.000931
   129  H   -0.016237
   130  H   -0.001921
   131  H    0.009700
   132  H   -0.004653
   133  H   -0.006531
   134  H    0.004534
   135  H    0.018415
   136  H    0.008175
   137  H    0.019660
   138  H   -0.004296
   139  H    0.005385
   140  H    0.015234
 Sum of Mulliken charges =  -0.00000

 Dipole moment (field-independent basis, Debye):
    X=             -0.0123    Y=             -4.2029    Z=             -1.1070  Tot=              4.3462
 Quadrupole moment (field-independent basis, Debye-Ang):
   XX=           -362.4332   YY=           -414.1990   ZZ=           -428.9432
   XY=            -29.7463   XZ=            -13.7145   YZ=             28.6038

 Normal termination of Gaussian 16 at Wed Apr 27 20:43:43 2022.
