 Gaussian 16, Revision A.03,
 Gaussian 16:  ES64L-G16RevA.03 25-Dec-2016

 ---------------------------------
 #p PBE1PBE/Def2SVP td=(nstates=5)
 ---------------------------------

 ------------------------------------------------------
 step_1301_chromophore_23 TDDFT with PBE1PBE functional
 ------------------------------------------------------
 Symbolic Z-matrix:
 Charge =  0 Multiplicity = 1

                         Standard orientation:
 ---------------------------------------------------------------------
 Center     Atomic      Atomic             Coordinates (Angstroms)
 Number     Number       Type             X           Y           Z
 ---------------------------------------------------------------------
      1         12           0        4.574760   -0.209909    0.287945
      2          6           0        2.690745    2.762776   -0.620162
      3          6           0        2.736661    0.012303    3.330082
      4          6           0        5.430739   -3.250437    0.941195
      5          6           0        5.772361   -0.254825   -2.994399
      6          7           0        2.966618    1.366360    1.312078
      7          6           0        2.407298    2.452305    0.737632
      8          6           0        1.315519    3.080841    1.594792
      9          6           0        1.569145    2.295964    3.002957
     10          6           0        2.522483    1.124054    2.541767
     11          6           0        2.040889    3.135827    4.157678
     12          6           0       -0.117560    2.946312    1.031569
     13          6           0       -1.006985    4.213760    1.012595
     14          6           0       -2.140138    4.109712    2.063360
     15          8           0       -1.959487    3.887592    3.259560
     16          8           0       -3.434736    4.085297    1.555552
     17          7           0        4.142646   -1.379217    1.944681
     18          6           0        3.368586   -1.146718    3.061091
     19          6           0        3.552482   -2.275761    3.979597
     20          6           0        4.351231   -3.238162    3.329251
     21          6           0        4.693950   -2.623562    2.010074
     22          6           0        2.807711   -2.451141    5.273386
     23          6           0        4.798276   -4.599964    3.946912
     24          8           0        4.446549   -4.867667    5.097595
     25          6           0        5.526923   -5.655717    3.155650
     26          7           0        5.439570   -1.576432   -0.918043
     27          6           0        5.823647   -2.791092   -0.371743
     28          6           0        6.960060   -3.417987   -1.299153
     29          6           0        7.091452   -2.399255   -2.535657
     30          6           0        6.036497   -1.340258   -2.146012
     31          6           0        8.325070   -3.561588   -0.503201
     32          6           0        6.926364   -3.035825   -3.961436
     33          6           0        8.236286   -3.231796   -4.739110
     34          7           0        4.431400    1.035109   -1.414128
     35          6           0        4.926463    0.827818   -2.664853
     36          6           0        4.480588    1.868191   -3.545082
     37          6           0        3.599099    2.604112   -2.818876
     38          6           0        3.540144    2.065195   -1.504410
     39          6           0        4.832255    1.970442   -4.967500
     40          6           0        2.720509    3.782218   -2.925296
     41          8           0        2.516906    4.584891   -3.861232
     42          6           0        2.124872    3.895436   -1.466350
     43          6           0        2.262934    5.339677   -1.097991
     44          8           0        3.299039    5.947544   -0.757630
     45          8           0        0.996445    5.930716   -1.019834
     46          6           0        1.086929    7.353657   -0.829421
     47          6           0       -4.564484    3.708307    2.402316
     48          6           0       -5.635613    3.220439    1.466560
     49          6           0       -5.948337    1.988273    1.024593
     50          6           0       -5.110348    0.713716    1.388615
     51          6           0       -7.178037    1.760847    0.194200
     52          6           0       -8.291346    1.054585    0.998775
     53          6           0       -9.741381    1.237543    0.376995
     54          6           0      -10.313736   -0.174714    0.113133
     55          6           0      -11.877359   -0.253632    0.137307
     56          6           0       -9.703817   -0.833376   -1.225114
     57          6           0       -9.398418   -2.385089   -1.260397
     58          6           0       -9.145054   -2.934510   -2.665156
     59          6           0       -7.674694   -3.374224   -2.824891
     60          6           0       -7.134804   -2.911575   -4.191011
     61          6           0       -7.402754   -4.918365   -2.632444
     62          6           0       -6.861848   -5.284306   -1.203576
     63          6           0       -5.338115   -4.885356   -1.180022
     64          6           0       -5.020897   -3.903859    0.011841
     65          6           0       -4.336162   -2.581404   -0.461343
     66          6           0       -4.189092   -4.661723    1.068408
     67          1           0        2.309548    0.136278    4.327812
     68          1           0        5.947842   -4.151481    1.277905
     69          1           0        6.168988   -0.121272   -4.003077
     70          1           0        1.465618    4.149823    1.748521
     71          1           0        0.692507    1.722558    3.303386
     72          1           0        1.502441    4.083085    4.172031
     73          1           0        3.103956    3.207916    3.930066
     74          1           0        1.862556    2.467177    5.000878
     75          1           0       -0.540450    2.212651    1.718263
     76          1           0       -0.087336    2.515280    0.030320
     77          1           0       -1.476447    4.278930    0.031418
     78          1           0       -0.431787    5.117875    1.210176
     79          1           0        3.435332   -2.587108    6.154167
     80          1           0        2.223806   -3.360045    5.129890
     81          1           0        2.066988   -1.662694    5.402413
     82          1           0        6.533379   -5.242191    3.099735
     83          1           0        4.972873   -5.760714    2.222703
     84          1           0        5.643106   -6.652881    3.581346
     85          1           0        6.812345   -4.443909   -1.638532
     86          1           0        8.069079   -1.922996   -2.470331
     87          1           0        8.064691   -3.567006    0.554954
     88          1           0        9.012370   -2.747730   -0.734055
     89          1           0        8.694678   -4.568765   -0.694330
     90          1           0        6.171294   -2.509482   -4.544691
     91          1           0        6.598610   -4.058994   -3.778429
     92          1           0        8.480124   -4.293793   -4.754918
     93          1           0        9.080979   -2.730486   -4.266827
     94          1           0        8.168146   -2.995052   -5.801047
     95          1           0        4.824068    3.036607   -5.192573
     96          1           0        4.113968    1.402217   -5.558555
     97          1           0        5.868137    1.647788   -5.068114
     98          1           0        1.062840    3.685516   -1.589572
     99          1           0        1.569460    7.527462    0.131608
    100          1           0        0.066028    7.709708   -0.690010
    101          1           0        1.462329    7.878176   -1.708756
    102          1           0       -4.935466    4.660981    2.780538
    103          1           0       -4.409699    3.004957    3.220856
    104          1           0       -6.373981    4.010551    1.335341
    105          1           0       -5.688167    0.228444    2.174718
    106          1           0       -4.131993    1.074800    1.706702
    107          1           0       -4.939691    0.097914    0.506027
    108          1           0       -6.949516    0.970819   -0.521145
    109          1           0       -7.479034    2.597596   -0.436457
    110          1           0       -8.128035    1.394032    2.021962
    111          1           0       -8.119226   -0.012892    1.133271
    112          1           0       -9.721657    1.785553   -0.565359
    113          1           0      -10.321421    1.837581    1.078092
    114          1           0       -9.954932   -0.698661    0.999928
    115          1           0      -12.310878   -1.035719    0.760684
    116          1           0      -12.194232   -0.505940   -0.874708
    117          1           0      -12.383574    0.683478    0.369612
    118          1           0       -8.786711   -0.296719   -1.468220
    119          1           0      -10.446698   -0.667176   -2.005809
    120          1           0      -10.265082   -2.995393   -1.003119
    121          1           0       -8.578776   -2.607364   -0.577550
    122          1           0       -9.328833   -2.093463   -3.333435
    123          1           0       -9.729378   -3.800245   -2.976920
    124          1           0       -7.041166   -2.866853   -2.096969
    125          1           0       -7.656405   -2.013309   -4.522331
    126          1           0       -7.264722   -3.661992   -4.970611
    127          1           0       -6.092008   -2.759463   -3.913817
    128          1           0       -6.667356   -5.328723   -3.325089
    129          1           0       -8.375296   -5.355505   -2.858337
    130          1           0       -6.826184   -6.367921   -1.086264
    131          1           0       -7.353124   -4.780351   -0.371414
    132          1           0       -4.960763   -4.499939   -2.126236
    133          1           0       -4.795249   -5.826356   -1.085429
    134          1           0       -5.885959   -3.572566    0.586901
    135          1           0       -3.998988   -2.563625   -1.496722
    136          1           0       -3.540924   -2.255916    0.209502
    137          1           0       -5.122399   -1.836091   -0.341688
    138          1           0       -4.603456   -4.320930    2.017427
    139          1           0       -3.155896   -4.313258    1.062140
    140          1           0       -4.234819   -5.750116    1.034264
 ---------------------------------------------------------------------

 SCF Done:  E(RPBE1PBE) =  -3005.34263221     A.U. after   15 cycles

 Excitation energies and oscillator strengths:

 Excited State   1:      Singlet-A      1.9288 eV  642.79 nm  f=0.3422  <S**2>=0.000
     245 -> 248        0.19348
     246 -> 247        0.68613
 This state for optimization and/or second-order correction.
 Total Energy, E(TD-HF/TD-DFT) =  -3005.27174834
 Copying the excited state density for this state as the 1-particle RhoCI density.

 Excited State   2:      Singlet-A      2.3223 eV  533.90 nm  f=0.0571  <S**2>=0.000
     245 -> 247        0.61832
     246 -> 248       -0.33550

 Excited State   3:      Singlet-A      3.1802 eV  389.87 nm  f=0.0000  <S**2>=0.000
     240 -> 247        0.17377
     243 -> 247        0.63743
     243 -> 249        0.16274
     243 -> 250        0.13397

 Excited State   4:      Singlet-A      3.1917 eV  388.45 nm  f=0.0096  <S**2>=0.000
     240 -> 247        0.60075
     240 -> 249       -0.19621
     242 -> 247        0.19049
     243 -> 247       -0.16590

 Excited State   5:      Singlet-A      3.2612 eV  380.18 nm  f=0.0966  <S**2>=0.000
     240 -> 247       -0.21095
     242 -> 247        0.58216
     245 -> 247       -0.13436
     246 -> 248       -0.27028

 The electronic state is 1-A.
 Alpha  occ. eigenvalues --  -46.93087 -19.25791 -19.24776 -19.20238 -19.20046
 Alpha  occ. eigenvalues --  -19.19531 -19.19246 -14.42236 -14.41437 -14.39898
 Alpha  occ. eigenvalues --  -14.39185 -10.36849 -10.36321 -10.33032 -10.33032
 Alpha  occ. eigenvalues --  -10.30717 -10.29368 -10.29354 -10.29005 -10.28864
 Alpha  occ. eigenvalues --  -10.28202 -10.28056 -10.27546 -10.27094 -10.26826
 Alpha  occ. eigenvalues --  -10.26712 -10.26492 -10.26414 -10.26338 -10.26259
 Alpha  occ. eigenvalues --  -10.25864 -10.25601 -10.25424 -10.25414 -10.25165
 Alpha  occ. eigenvalues --  -10.25108 -10.24859 -10.24597 -10.24552 -10.24494
 Alpha  occ. eigenvalues --  -10.24296 -10.24227 -10.24172 -10.24172 -10.23742
 Alpha  occ. eigenvalues --  -10.23685 -10.23589 -10.23315 -10.23272 -10.23264
 Alpha  occ. eigenvalues --  -10.23252 -10.23131 -10.23062 -10.23025 -10.22826
 Alpha  occ. eigenvalues --  -10.22769 -10.22720 -10.22703 -10.22693 -10.22643
 Alpha  occ. eigenvalues --  -10.22435 -10.22227 -10.22120 -10.21954 -10.21566
 Alpha  occ. eigenvalues --  -10.21418  -3.15191  -1.88012  -1.87601  -1.87387
 Alpha  occ. eigenvalues --   -1.10478  -1.09876  -1.04461  -1.03567  -1.01532
 Alpha  occ. eigenvalues --   -1.01411  -0.99152  -0.98427  -0.97870  -0.96888
 Alpha  occ. eigenvalues --   -0.87159  -0.84477  -0.83747  -0.83532  -0.83353
 Alpha  occ. eigenvalues --   -0.82816  -0.82271  -0.81871  -0.81679  -0.81376
 Alpha  occ. eigenvalues --   -0.80755  -0.79759  -0.78484  -0.78153  -0.77829
 Alpha  occ. eigenvalues --   -0.76961  -0.76686  -0.75766  -0.75296  -0.74962
 Alpha  occ. eigenvalues --   -0.73987  -0.72468  -0.72174  -0.71520  -0.70456
 Alpha  occ. eigenvalues --   -0.70022  -0.69714  -0.69503  -0.68623  -0.67931
 Alpha  occ. eigenvalues --   -0.67466  -0.66950  -0.66504  -0.64408  -0.63535
 Alpha  occ. eigenvalues --   -0.63029  -0.62060  -0.61542  -0.61007  -0.60379
 Alpha  occ. eigenvalues --   -0.59948  -0.59851  -0.59613  -0.59386  -0.57985
 Alpha  occ. eigenvalues --   -0.57777  -0.57462  -0.56956  -0.56404  -0.54922
 Alpha  occ. eigenvalues --   -0.54155  -0.54000  -0.53638  -0.53305  -0.52578
 Alpha  occ. eigenvalues --   -0.52184  -0.51378  -0.51075  -0.50646  -0.50232
 Alpha  occ. eigenvalues --   -0.50115  -0.49456  -0.48630  -0.48515  -0.48321
 Alpha  occ. eigenvalues --   -0.48150  -0.47918  -0.47718  -0.47580  -0.47501
 Alpha  occ. eigenvalues --   -0.47081  -0.47021  -0.46623  -0.46420  -0.46355
 Alpha  occ. eigenvalues --   -0.45946  -0.45922  -0.45747  -0.45526  -0.45221
 Alpha  occ. eigenvalues --   -0.44819  -0.44730  -0.44711  -0.44576  -0.44365
 Alpha  occ. eigenvalues --   -0.44328  -0.44181  -0.43923  -0.43868  -0.43760
 Alpha  occ. eigenvalues --   -0.43417  -0.43036  -0.42506  -0.42275  -0.42252
 Alpha  occ. eigenvalues --   -0.42096  -0.41833  -0.41777  -0.41753  -0.41505
 Alpha  occ. eigenvalues --   -0.41244  -0.41043  -0.40817  -0.40781  -0.40687
 Alpha  occ. eigenvalues --   -0.40576  -0.40228  -0.40148  -0.39901  -0.39678
 Alpha  occ. eigenvalues --   -0.39590  -0.39394  -0.39054  -0.38951  -0.38900
 Alpha  occ. eigenvalues --   -0.38446  -0.38276  -0.38064  -0.37879  -0.37695
 Alpha  occ. eigenvalues --   -0.37486  -0.37235  -0.37215  -0.37019  -0.36934
 Alpha  occ. eigenvalues --   -0.36699  -0.36623  -0.36392  -0.36228  -0.36170
 Alpha  occ. eigenvalues --   -0.35972  -0.35763  -0.35502  -0.35394  -0.34936
 Alpha  occ. eigenvalues --   -0.34598  -0.34333  -0.33975  -0.33728  -0.33354
 Alpha  occ. eigenvalues --   -0.33337  -0.33107  -0.32979  -0.32803  -0.32282
 Alpha  occ. eigenvalues --   -0.32231  -0.32072  -0.31483  -0.31449  -0.31320
 Alpha  occ. eigenvalues --   -0.30657  -0.30469  -0.29704  -0.29527  -0.29310
 Alpha  occ. eigenvalues --   -0.29185  -0.28845  -0.28400  -0.27121  -0.26251
 Alpha  occ. eigenvalues --   -0.26154  -0.25885  -0.25783  -0.25526  -0.21442
 Alpha  occ. eigenvalues --   -0.18976
 Alpha virt. eigenvalues --   -0.10940  -0.06008  -0.04208  -0.02394  -0.00968
 Alpha virt. eigenvalues --   -0.00628  -0.00245   0.00753   0.01250   0.02747
 Alpha virt. eigenvalues --    0.03261   0.03897   0.04535   0.05207   0.05983

 Mulliken charges:
               1
     1  Mg   0.977968
     2  C    0.022490
     3  C   -0.079060
     4  C   -0.083100
     5  C   -0.063341
     6  N   -0.287113
     7  C    0.016031
     8  C   -0.098654
     9  C   -0.158591
    10  C    0.017997
    11  C    0.049203
    12  C    0.005656
    13  C    0.015159
    14  C    0.211705
    15  O   -0.288976
    16  O   -0.377278
    17  N   -0.506012
    18  C    0.198161
    19  C   -0.173263
    20  C   -0.096341
    21  C    0.168896
    22  C    0.078405
    23  C    0.054418
    24  O   -0.246487
    25  C   -0.013127
    26  N   -0.481966
    27  C    0.139700
    28  C   -0.152449
    29  C   -0.072657
    30  C    0.117358
    31  C   -0.004588
    32  C   -0.027803
    33  C   -0.073574
    34  N   -0.454480
    35  C    0.103837
    36  C   -0.226599
    37  C   -0.040169
    38  C    0.142953
    39  C    0.072224
    40  C    0.177075
    41  O   -0.235415
    42  C   -0.130661
    43  C    0.294050
    44  O   -0.270256
    45  O   -0.375518
    46  C    0.129314
    47  C    0.261736
    48  C   -0.141877
    49  C   -0.226359
    50  C    0.004051
    51  C    0.035235
    52  C   -0.094785
    53  C    0.017331
    54  C   -0.214615
    55  C   -0.002976
    56  C   -0.040227
    57  C   -0.043017
    58  C    0.027617
    59  C   -0.262663
    60  C   -0.014959
    61  C   -0.006123
    62  C   -0.039301
    63  C   -0.025107
    64  C   -0.258194
    65  C   -0.038652
    66  C   -0.014956
    67  H    0.004903
    68  H   -0.003871
    69  H    0.003089
    70  H    0.041830
    71  H    0.047826
    72  H    0.066514
    73  H    0.045174
    74  H    0.046844
    75  H    0.056045
    76  H    0.050752
    77  H    0.060085
    78  H    0.069835
    79  H    0.069777
    80  H    0.059848
    81  H    0.024977
    82  H    0.070292
    83  H    0.076485
    84  H    0.055309
    85  H    0.049914
    86  H    0.055081
    87  H    0.040046
    88  H    0.050320
    89  H    0.042545
    90  H    0.052365
    91  H    0.038600
    92  H    0.034695
    93  H    0.040378
    94  H    0.045716
    95  H    0.063181
    96  H    0.073549
    97  H    0.041335
    98  H    0.080697
    99  H    0.056659
   100  H    0.040093
   101  H    0.071938
   102  H    0.032702
   103  H    0.061283
   104  H    0.020040
   105  H    0.063601
   106  H    0.049638
   107  H    0.054253
   108  H    0.023709
   109  H    0.045171
   110  H    0.032475
   111  H    0.035134
   112  H    0.032488
   113  H    0.034777
   114  H    0.037319
   115  H    0.039910
   116  H    0.018716
   117  H    0.032491
   118  H    0.032722
   119  H    0.036776
   120  H    0.027702
   121  H    0.037750
   122  H    0.019912
   123  H    0.028214
   124  H    0.036897
   125  H    0.029499
   126  H    0.036863
   127  H    0.035675
   128  H    0.033129
   129  H    0.016692
   130  H    0.031956
   131  H    0.042794
   132  H    0.026781
   133  H    0.026014
   134  H    0.040788
   135  H    0.044841
   136  H    0.035844
   137  H    0.046460
   138  H    0.023711
   139  H    0.033194
   140  H    0.041969
 Sum of Mulliken charges =  -0.00000

 Dipole moment (field-independent basis, Debye):
    X=              0.0225    Y=             -4.1477    Z=             -1.3855  Tot=              4.3730
 Quadrupole moment (field-independent basis, Debye-Ang):
   XX=           -357.6325   YY=           -411.3157   ZZ=           -425.2837
   XY=            -30.2458   XZ=            -15.9204   YZ=             29.3139

 Normal termination of Gaussian 16 at Wed Apr 27 21:08:30 2022.
