 Gaussian 16, Revision A.03,
 Gaussian 16:  ES64L-G16RevA.03 25-Dec-2016

 --------------------------------
 #p wB97XD/Def2SVP td=(nstates=5)
 --------------------------------

 -----------------------------------------------------
 step_1301_chromophore_23 TDDFT with wB97XD functional
 -----------------------------------------------------
 Symbolic Z-matrix:
 Charge =  0 Multiplicity = 1

                         Standard orientation:
 ---------------------------------------------------------------------
 Center     Atomic      Atomic             Coordinates (Angstroms)
 Number     Number       Type             X           Y           Z
 ---------------------------------------------------------------------
      1         12           0        4.574760   -0.209909    0.287945
      2          6           0        2.690745    2.762776   -0.620162
      3          6           0        2.736661    0.012303    3.330082
      4          6           0        5.430739   -3.250437    0.941195
      5          6           0        5.772361   -0.254825   -2.994399
      6          7           0        2.966618    1.366360    1.312078
      7          6           0        2.407298    2.452305    0.737632
      8          6           0        1.315519    3.080841    1.594792
      9          6           0        1.569145    2.295964    3.002957
     10          6           0        2.522483    1.124054    2.541767
     11          6           0        2.040889    3.135827    4.157678
     12          6           0       -0.117560    2.946312    1.031569
     13          6           0       -1.006985    4.213760    1.012595
     14          6           0       -2.140138    4.109712    2.063360
     15          8           0       -1.959487    3.887592    3.259560
     16          8           0       -3.434736    4.085297    1.555552
     17          7           0        4.142646   -1.379217    1.944681
     18          6           0        3.368586   -1.146718    3.061091
     19          6           0        3.552482   -2.275761    3.979597
     20          6           0        4.351231   -3.238162    3.329251
     21          6           0        4.693950   -2.623562    2.010074
     22          6           0        2.807711   -2.451141    5.273386
     23          6           0        4.798276   -4.599964    3.946912
     24          8           0        4.446549   -4.867667    5.097595
     25          6           0        5.526923   -5.655717    3.155650
     26          7           0        5.439570   -1.576432   -0.918043
     27          6           0        5.823647   -2.791092   -0.371743
     28          6           0        6.960060   -3.417987   -1.299153
     29          6           0        7.091452   -2.399255   -2.535657
     30          6           0        6.036497   -1.340258   -2.146012
     31          6           0        8.325070   -3.561588   -0.503201
     32          6           0        6.926364   -3.035825   -3.961436
     33          6           0        8.236286   -3.231796   -4.739110
     34          7           0        4.431400    1.035109   -1.414128
     35          6           0        4.926463    0.827818   -2.664853
     36          6           0        4.480588    1.868191   -3.545082
     37          6           0        3.599099    2.604112   -2.818876
     38          6           0        3.540144    2.065195   -1.504410
     39          6           0        4.832255    1.970442   -4.967500
     40          6           0        2.720509    3.782218   -2.925296
     41          8           0        2.516906    4.584891   -3.861232
     42          6           0        2.124872    3.895436   -1.466350
     43          6           0        2.262934    5.339677   -1.097991
     44          8           0        3.299039    5.947544   -0.757630
     45          8           0        0.996445    5.930716   -1.019834
     46          6           0        1.086929    7.353657   -0.829421
     47          6           0       -4.564484    3.708307    2.402316
     48          6           0       -5.635613    3.220439    1.466560
     49          6           0       -5.948337    1.988273    1.024593
     50          6           0       -5.110348    0.713716    1.388615
     51          6           0       -7.178037    1.760847    0.194200
     52          6           0       -8.291346    1.054585    0.998775
     53          6           0       -9.741381    1.237543    0.376995
     54          6           0      -10.313736   -0.174714    0.113133
     55          6           0      -11.877359   -0.253632    0.137307
     56          6           0       -9.703817   -0.833376   -1.225114
     57          6           0       -9.398418   -2.385089   -1.260397
     58          6           0       -9.145054   -2.934510   -2.665156
     59          6           0       -7.674694   -3.374224   -2.824891
     60          6           0       -7.134804   -2.911575   -4.191011
     61          6           0       -7.402754   -4.918365   -2.632444
     62          6           0       -6.861848   -5.284306   -1.203576
     63          6           0       -5.338115   -4.885356   -1.180022
     64          6           0       -5.020897   -3.903859    0.011841
     65          6           0       -4.336162   -2.581404   -0.461343
     66          6           0       -4.189092   -4.661723    1.068408
     67          1           0        2.309548    0.136278    4.327812
     68          1           0        5.947842   -4.151481    1.277905
     69          1           0        6.168988   -0.121272   -4.003077
     70          1           0        1.465618    4.149823    1.748521
     71          1           0        0.692507    1.722558    3.303386
     72          1           0        1.502441    4.083085    4.172031
     73          1           0        3.103956    3.207916    3.930066
     74          1           0        1.862556    2.467177    5.000878
     75          1           0       -0.540450    2.212651    1.718263
     76          1           0       -0.087336    2.515280    0.030320
     77          1           0       -1.476447    4.278930    0.031418
     78          1           0       -0.431787    5.117875    1.210176
     79          1           0        3.435332   -2.587108    6.154167
     80          1           0        2.223806   -3.360045    5.129890
     81          1           0        2.066988   -1.662694    5.402413
     82          1           0        6.533379   -5.242191    3.099735
     83          1           0        4.972873   -5.760714    2.222703
     84          1           0        5.643106   -6.652881    3.581346
     85          1           0        6.812345   -4.443909   -1.638532
     86          1           0        8.069079   -1.922996   -2.470331
     87          1           0        8.064691   -3.567006    0.554954
     88          1           0        9.012370   -2.747730   -0.734055
     89          1           0        8.694678   -4.568765   -0.694330
     90          1           0        6.171294   -2.509482   -4.544691
     91          1           0        6.598610   -4.058994   -3.778429
     92          1           0        8.480124   -4.293793   -4.754918
     93          1           0        9.080979   -2.730486   -4.266827
     94          1           0        8.168146   -2.995052   -5.801047
     95          1           0        4.824068    3.036607   -5.192573
     96          1           0        4.113968    1.402217   -5.558555
     97          1           0        5.868137    1.647788   -5.068114
     98          1           0        1.062840    3.685516   -1.589572
     99          1           0        1.569460    7.527462    0.131608
    100          1           0        0.066028    7.709708   -0.690010
    101          1           0        1.462329    7.878176   -1.708756
    102          1           0       -4.935466    4.660981    2.780538
    103          1           0       -4.409699    3.004957    3.220856
    104          1           0       -6.373981    4.010551    1.335341
    105          1           0       -5.688167    0.228444    2.174718
    106          1           0       -4.131993    1.074800    1.706702
    107          1           0       -4.939691    0.097914    0.506027
    108          1           0       -6.949516    0.970819   -0.521145
    109          1           0       -7.479034    2.597596   -0.436457
    110          1           0       -8.128035    1.394032    2.021962
    111          1           0       -8.119226   -0.012892    1.133271
    112          1           0       -9.721657    1.785553   -0.565359
    113          1           0      -10.321421    1.837581    1.078092
    114          1           0       -9.954932   -0.698661    0.999928
    115          1           0      -12.310878   -1.035719    0.760684
    116          1           0      -12.194232   -0.505940   -0.874708
    117          1           0      -12.383574    0.683478    0.369612
    118          1           0       -8.786711   -0.296719   -1.468220
    119          1           0      -10.446698   -0.667176   -2.005809
    120          1           0      -10.265082   -2.995393   -1.003119
    121          1           0       -8.578776   -2.607364   -0.577550
    122          1           0       -9.328833   -2.093463   -3.333435
    123          1           0       -9.729378   -3.800245   -2.976920
    124          1           0       -7.041166   -2.866853   -2.096969
    125          1           0       -7.656405   -2.013309   -4.522331
    126          1           0       -7.264722   -3.661992   -4.970611
    127          1           0       -6.092008   -2.759463   -3.913817
    128          1           0       -6.667356   -5.328723   -3.325089
    129          1           0       -8.375296   -5.355505   -2.858337
    130          1           0       -6.826184   -6.367921   -1.086264
    131          1           0       -7.353124   -4.780351   -0.371414
    132          1           0       -4.960763   -4.499939   -2.126236
    133          1           0       -4.795249   -5.826356   -1.085429
    134          1           0       -5.885959   -3.572566    0.586901
    135          1           0       -3.998988   -2.563625   -1.496722
    136          1           0       -3.540924   -2.255916    0.209502
    137          1           0       -5.122399   -1.836091   -0.341688
    138          1           0       -4.603456   -4.320930    2.017427
    139          1           0       -3.155896   -4.313258    1.062140
    140          1           0       -4.234819   -5.750116    1.034264
 ---------------------------------------------------------------------

 SCF Done:  E(RwB97XD) =  -3007.85575907     A.U. after   20 cycles

 Excitation energies and oscillator strengths:

 Excited State   1:      Singlet-A      1.7342 eV  714.93 nm  f=0.3499  <S**2>=0.000
     245 -> 248        0.20386
     246 -> 247        0.67783
     245 <- 248        0.11716
 This state for optimization and/or second-order correction.
 Total Energy, E(TD-HF/TD-DFT) =  -3007.79202792
 Copying the excited state density for this state as the 1-particle RhoCI density.

 Excited State   2:      Singlet-A      2.2830 eV  543.09 nm  f=0.0467  <S**2>=0.000
     245 -> 247        0.59865
     246 -> 248       -0.36562

 Excited State   3:      Singlet-A      3.4923 eV  355.02 nm  f=0.7588  <S**2>=0.000
     242 -> 247        0.18428
     243 -> 247        0.10055
     245 -> 247        0.33613
     246 -> 248        0.58165
     245 <- 247       -0.11132

 Excited State   4:      Singlet-A      3.6441 eV  340.23 nm  f=0.0011  <S**2>=0.000
     240 -> 247       -0.28303
     240 -> 249        0.24182
     240 -> 250       -0.12432
     242 -> 247       -0.35095
     243 -> 247        0.41682

 Excited State   5:      Singlet-A      3.6639 eV  338.39 nm  f=0.0014  <S**2>=0.000
     240 -> 247        0.42282
     240 -> 249       -0.28707
     240 -> 250        0.16611
     242 -> 247       -0.18426
     243 -> 247        0.35905

 The electronic state is 1-A.
 Alpha  occ. eigenvalues --  -46.96033 -19.30382 -19.29323 -19.24971 -19.24818
 Alpha  occ. eigenvalues --  -19.24205 -19.24151 -14.47145 -14.46712 -14.44957
 Alpha  occ. eigenvalues --  -14.44076 -10.43710 -10.43096 -10.39935 -10.39854
 Alpha  occ. eigenvalues --  -10.37213 -10.36010 -10.35523 -10.35517 -10.34996
 Alpha  occ. eigenvalues --  -10.34720 -10.34440 -10.34074 -10.33321 -10.32984
 Alpha  occ. eigenvalues --  -10.32963 -10.32938 -10.32812 -10.32788 -10.32569
 Alpha  occ. eigenvalues --  -10.32088 -10.31927 -10.31889 -10.31850 -10.31433
 Alpha  occ. eigenvalues --  -10.31426 -10.31179 -10.30970 -10.30809 -10.30794
 Alpha  occ. eigenvalues --  -10.30790 -10.30665 -10.30620 -10.30433 -10.30139
 Alpha  occ. eigenvalues --  -10.30000 -10.29958 -10.29700 -10.29655 -10.29624
 Alpha  occ. eigenvalues --  -10.29594 -10.29560 -10.29490 -10.29454 -10.29119
 Alpha  occ. eigenvalues --  -10.29087 -10.29070 -10.29052 -10.29004 -10.28914
 Alpha  occ. eigenvalues --  -10.28762 -10.28644 -10.28474 -10.28371 -10.27987
 Alpha  occ. eigenvalues --  -10.27838  -3.22019  -1.95586  -1.95171  -1.94959
 Alpha  occ. eigenvalues --   -1.17900  -1.17251  -1.12041  -1.11033  -1.08939
 Alpha  occ. eigenvalues --   -1.08755  -1.06533  -1.05750  -1.05360  -1.04259
 Alpha  occ. eigenvalues --   -0.94774  -0.92143  -0.91415  -0.91210  -0.90984
 Alpha  occ. eigenvalues --   -0.90405  -0.89936  -0.89387  -0.89220  -0.89027
 Alpha  occ. eigenvalues --   -0.88564  -0.87423  -0.86160  -0.85753  -0.85518
 Alpha  occ. eigenvalues --   -0.84641  -0.84420  -0.83388  -0.82904  -0.82613
 Alpha  occ. eigenvalues --   -0.81642  -0.80063  -0.79801  -0.79232  -0.78063
 Alpha  occ. eigenvalues --   -0.77705  -0.77397  -0.77107  -0.76306  -0.75589
 Alpha  occ. eigenvalues --   -0.75032  -0.74491  -0.74037  -0.72018  -0.71085
 Alpha  occ. eigenvalues --   -0.70548  -0.69695  -0.69187  -0.68642  -0.67853
 Alpha  occ. eigenvalues --   -0.67495  -0.67461  -0.67047  -0.66910  -0.65647
 Alpha  occ. eigenvalues --   -0.65412  -0.64931  -0.64603  -0.63827  -0.62385
 Alpha  occ. eigenvalues --   -0.61491  -0.61466  -0.61167  -0.60708  -0.59973
 Alpha  occ. eigenvalues --   -0.59714  -0.58838  -0.58554  -0.58139  -0.57650
 Alpha  occ. eigenvalues --   -0.57456  -0.56859  -0.56090  -0.55872  -0.55746
 Alpha  occ. eigenvalues --   -0.55482  -0.55337  -0.55186  -0.54998  -0.54886
 Alpha  occ. eigenvalues --   -0.54454  -0.54373  -0.53966  -0.53821  -0.53718
 Alpha  occ. eigenvalues --   -0.53325  -0.53279  -0.53038  -0.52888  -0.52590
 Alpha  occ. eigenvalues --   -0.52306  -0.52096  -0.51982  -0.51910  -0.51704
 Alpha  occ. eigenvalues --   -0.51666  -0.51511  -0.51191  -0.51173  -0.51030
 Alpha  occ. eigenvalues --   -0.50739  -0.50275  -0.49795  -0.49547  -0.49513
 Alpha  occ. eigenvalues --   -0.49339  -0.49111  -0.49040  -0.48926  -0.48808
 Alpha  occ. eigenvalues --   -0.48533  -0.48273  -0.48087  -0.48020  -0.47911
 Alpha  occ. eigenvalues --   -0.47819  -0.47448  -0.47296  -0.47127  -0.46870
 Alpha  occ. eigenvalues --   -0.46744  -0.46619  -0.46266  -0.46125  -0.46072
 Alpha  occ. eigenvalues --   -0.45530  -0.45344  -0.45164  -0.44950  -0.44847
 Alpha  occ. eigenvalues --   -0.44619  -0.44309  -0.44270  -0.44209  -0.44119
 Alpha  occ. eigenvalues --   -0.43820  -0.43754  -0.43579  -0.43307  -0.43163
 Alpha  occ. eigenvalues --   -0.42951  -0.42837  -0.42525  -0.42483  -0.41925
 Alpha  occ. eigenvalues --   -0.41595  -0.41355  -0.40947  -0.40777  -0.40364
 Alpha  occ. eigenvalues --   -0.40270  -0.40177  -0.39915  -0.39855  -0.39355
 Alpha  occ. eigenvalues --   -0.39224  -0.39049  -0.38562  -0.38357  -0.38312
 Alpha  occ. eigenvalues --   -0.37593  -0.37502  -0.36606  -0.36495  -0.36213
 Alpha  occ. eigenvalues --   -0.36114  -0.35712  -0.35440  -0.33729  -0.33292
 Alpha  occ. eigenvalues --   -0.33064  -0.32827  -0.32411  -0.32232  -0.26494
 Alpha  occ. eigenvalues --   -0.23135
 Alpha virt. eigenvalues --   -0.06666  -0.00703   0.02122   0.04103   0.05006
 Alpha virt. eigenvalues --    0.06156   0.06486   0.07450   0.08007   0.09351
 Alpha virt. eigenvalues --    0.09810   0.10224   0.11339   0.11889   0.12662

 Mulliken charges:
               1
     1  Mg   0.970605
     2  C    0.027202
     3  C   -0.088210
     4  C   -0.096098
     5  C   -0.084510
     6  N   -0.244876
     7  C   -0.024651
     8  C   -0.075483
     9  C   -0.128232
    10  C   -0.005385
    11  C    0.060384
    12  C    0.018532
    13  C    0.030477
    14  C    0.202035
    15  O   -0.286790
    16  O   -0.375715
    17  N   -0.475105
    18  C    0.190032
    19  C   -0.163449
    20  C   -0.091920
    21  C    0.167323
    22  C    0.089200
    23  C    0.049574
    24  O   -0.241701
    25  C    0.002791
    26  N   -0.455859
    27  C    0.132127
    28  C   -0.130544
    29  C   -0.048907
    30  C    0.108410
    31  C    0.009007
    32  C   -0.011518
    33  C   -0.058014
    34  N   -0.416279
    35  C    0.095576
    36  C   -0.222093
    37  C   -0.033880
    38  C    0.123735
    39  C    0.083314
    40  C    0.157918
    41  O   -0.225219
    42  C   -0.092936
    43  C    0.272637
    44  O   -0.264855
    45  O   -0.373755
    46  C    0.143210
    47  C    0.272674
    48  C   -0.153290
    49  C   -0.210246
    50  C    0.025264
    51  C    0.055529
    52  C   -0.075281
    53  C    0.027211
    54  C   -0.181823
    55  C    0.008392
    56  C   -0.018666
    57  C   -0.021968
    58  C    0.042727
    59  C   -0.225731
    60  C    0.000342
    61  C    0.009724
    62  C   -0.018691
    63  C   -0.011142
    64  C   -0.228169
    65  C   -0.021050
    66  C   -0.002931
    67  H   -0.002569
    68  H   -0.019584
    69  H   -0.004855
    70  H    0.027468
    71  H    0.036056
    72  H    0.063047
    73  H    0.037960
    74  H    0.040641
    75  H    0.045152
    76  H    0.042181
    77  H    0.056690
    78  H    0.062104
    79  H    0.068020
    80  H    0.055358
    81  H    0.020594
    82  H    0.064303
    83  H    0.070818
    84  H    0.055003
    85  H    0.040928
    86  H    0.040588
    87  H    0.030663
    88  H    0.045615
    89  H    0.037728
    90  H    0.045226
    91  H    0.028906
    92  H    0.028179
    93  H    0.033732
    94  H    0.040651
    95  H    0.058370
    96  H    0.068490
    97  H    0.034852
    98  H    0.069859
    99  H    0.052352
   100  H    0.036353
   101  H    0.068558
   102  H    0.029351
   103  H    0.057567
   104  H    0.016562
   105  H    0.057817
   106  H    0.043380
   107  H    0.042098
   108  H    0.009869
   109  H    0.039830
   110  H    0.022164
   111  H    0.022525
   112  H    0.023374
   113  H    0.028464
   114  H    0.023076
   115  H    0.034997
   116  H    0.011068
   117  H    0.027349
   118  H    0.017985
   119  H    0.025445
   120  H    0.019775
   121  H    0.023446
   122  H    0.007991
   123  H    0.020515
   124  H    0.010719
   125  H    0.023510
   126  H    0.030684
   127  H    0.028460
   128  H    0.023741
   129  H    0.007607
   130  H    0.025357
   131  H    0.030723
   132  H    0.013981
   133  H    0.017796
   134  H    0.028155
   135  H    0.039480
   136  H    0.029687
   137  H    0.034705
   138  H    0.017896
   139  H    0.026455
   140  H    0.035977
 Sum of Mulliken charges =  -0.00000

 Dipole moment (field-independent basis, Debye):
    X=              0.0025    Y=             -4.2889    Z=             -1.0191  Tot=              4.4083
 Quadrupole moment (field-independent basis, Debye-Ang):
   XX=           -358.0330   YY=           -410.1706   ZZ=           -424.8266
   XY=            -31.0060   XZ=            -13.9178   YZ=             28.6477

 Normal termination of Gaussian 16 at Wed Apr 27 21:47:56 2022.
