 Gaussian 16, Revision A.03,
 Gaussian 16:  ES64L-G16RevA.03 25-Dec-2016

 --------------------
 #p ZINDO=(nstates=5)
 --------------------

 ------------------------------
 step_1301_chromophore_23 ZINDO
 ------------------------------
 Symbolic Z-matrix:
 Charge =  0 Multiplicity = 1

                         Standard orientation:
 ---------------------------------------------------------------------
 Center     Atomic      Atomic             Coordinates (Angstroms)
 Number     Number       Type             X           Y           Z
 ---------------------------------------------------------------------
      1         12           0        4.574760   -0.209909    0.287945
      2          6           0        2.690745    2.762776   -0.620162
      3          6           0        2.736661    0.012303    3.330082
      4          6           0        5.430739   -3.250437    0.941195
      5          6           0        5.772361   -0.254825   -2.994399
      6          7           0        2.966618    1.366360    1.312078
      7          6           0        2.407298    2.452305    0.737632
      8          6           0        1.315519    3.080841    1.594792
      9          6           0        1.569145    2.295964    3.002957
     10          6           0        2.522483    1.124054    2.541767
     11          6           0        2.040889    3.135827    4.157678
     12          6           0       -0.117560    2.946312    1.031569
     13          6           0       -1.006985    4.213760    1.012595
     14          6           0       -2.140138    4.109712    2.063360
     15          8           0       -1.959487    3.887592    3.259560
     16          8           0       -3.434736    4.085297    1.555552
     17          7           0        4.142646   -1.379217    1.944681
     18          6           0        3.368586   -1.146718    3.061091
     19          6           0        3.552482   -2.275761    3.979597
     20          6           0        4.351231   -3.238162    3.329251
     21          6           0        4.693950   -2.623562    2.010074
     22          6           0        2.807711   -2.451141    5.273386
     23          6           0        4.798276   -4.599964    3.946912
     24          8           0        4.446549   -4.867667    5.097595
     25          6           0        5.526923   -5.655717    3.155650
     26          7           0        5.439570   -1.576432   -0.918043
     27          6           0        5.823647   -2.791092   -0.371743
     28          6           0        6.960060   -3.417987   -1.299153
     29          6           0        7.091452   -2.399255   -2.535657
     30          6           0        6.036497   -1.340258   -2.146012
     31          6           0        8.325070   -3.561588   -0.503201
     32          6           0        6.926364   -3.035825   -3.961436
     33          6           0        8.236286   -3.231796   -4.739110
     34          7           0        4.431400    1.035109   -1.414128
     35          6           0        4.926463    0.827818   -2.664853
     36          6           0        4.480588    1.868191   -3.545082
     37          6           0        3.599099    2.604112   -2.818876
     38          6           0        3.540144    2.065195   -1.504410
     39          6           0        4.832255    1.970442   -4.967500
     40          6           0        2.720509    3.782218   -2.925296
     41          8           0        2.516906    4.584891   -3.861232
     42          6           0        2.124872    3.895436   -1.466350
     43          6           0        2.262934    5.339677   -1.097991
     44          8           0        3.299039    5.947544   -0.757630
     45          8           0        0.996445    5.930716   -1.019834
     46          6           0        1.086929    7.353657   -0.829421
     47          6           0       -4.564484    3.708307    2.402316
     48          6           0       -5.635613    3.220439    1.466560
     49          6           0       -5.948337    1.988273    1.024593
     50          6           0       -5.110348    0.713716    1.388615
     51          6           0       -7.178037    1.760847    0.194200
     52          6           0       -8.291346    1.054585    0.998775
     53          6           0       -9.741381    1.237543    0.376995
     54          6           0      -10.313736   -0.174714    0.113133
     55          6           0      -11.877359   -0.253632    0.137307
     56          6           0       -9.703817   -0.833376   -1.225114
     57          6           0       -9.398418   -2.385089   -1.260397
     58          6           0       -9.145054   -2.934510   -2.665156
     59          6           0       -7.674694   -3.374224   -2.824891
     60          6           0       -7.134804   -2.911575   -4.191011
     61          6           0       -7.402754   -4.918365   -2.632444
     62          6           0       -6.861848   -5.284306   -1.203576
     63          6           0       -5.338115   -4.885356   -1.180022
     64          6           0       -5.020897   -3.903859    0.011841
     65          6           0       -4.336162   -2.581404   -0.461343
     66          6           0       -4.189092   -4.661723    1.068408
     67          1           0        2.309548    0.136278    4.327812
     68          1           0        5.947842   -4.151481    1.277905
     69          1           0        6.168988   -0.121272   -4.003077
     70          1           0        1.465618    4.149823    1.748521
     71          1           0        0.692507    1.722558    3.303386
     72          1           0        1.502441    4.083085    4.172031
     73          1           0        3.103956    3.207916    3.930066
     74          1           0        1.862556    2.467177    5.000878
     75          1           0       -0.540450    2.212651    1.718263
     76          1           0       -0.087336    2.515280    0.030320
     77          1           0       -1.476447    4.278930    0.031418
     78          1           0       -0.431787    5.117875    1.210176
     79          1           0        3.435332   -2.587108    6.154167
     80          1           0        2.223806   -3.360045    5.129890
     81          1           0        2.066988   -1.662694    5.402413
     82          1           0        6.533379   -5.242191    3.099735
     83          1           0        4.972873   -5.760714    2.222703
     84          1           0        5.643106   -6.652881    3.581346
     85          1           0        6.812345   -4.443909   -1.638532
     86          1           0        8.069079   -1.922996   -2.470331
     87          1           0        8.064691   -3.567006    0.554954
     88          1           0        9.012370   -2.747730   -0.734055
     89          1           0        8.694678   -4.568765   -0.694330
     90          1           0        6.171294   -2.509482   -4.544691
     91          1           0        6.598610   -4.058994   -3.778429
     92          1           0        8.480124   -4.293793   -4.754918
     93          1           0        9.080979   -2.730486   -4.266827
     94          1           0        8.168146   -2.995052   -5.801047
     95          1           0        4.824068    3.036607   -5.192573
     96          1           0        4.113968    1.402217   -5.558555
     97          1           0        5.868137    1.647788   -5.068114
     98          1           0        1.062840    3.685516   -1.589572
     99          1           0        1.569460    7.527462    0.131608
    100          1           0        0.066028    7.709708   -0.690010
    101          1           0        1.462329    7.878176   -1.708756
    102          1           0       -4.935466    4.660981    2.780538
    103          1           0       -4.409699    3.004957    3.220856
    104          1           0       -6.373981    4.010551    1.335341
    105          1           0       -5.688167    0.228444    2.174718
    106          1           0       -4.131993    1.074800    1.706702
    107          1           0       -4.939691    0.097914    0.506027
    108          1           0       -6.949516    0.970819   -0.521145
    109          1           0       -7.479034    2.597596   -0.436457
    110          1           0       -8.128035    1.394032    2.021962
    111          1           0       -8.119226   -0.012892    1.133271
    112          1           0       -9.721657    1.785553   -0.565359
    113          1           0      -10.321421    1.837581    1.078092
    114          1           0       -9.954932   -0.698661    0.999928
    115          1           0      -12.310878   -1.035719    0.760684
    116          1           0      -12.194232   -0.505940   -0.874708
    117          1           0      -12.383574    0.683478    0.369612
    118          1           0       -8.786711   -0.296719   -1.468220
    119          1           0      -10.446698   -0.667176   -2.005809
    120          1           0      -10.265082   -2.995393   -1.003119
    121          1           0       -8.578776   -2.607364   -0.577550
    122          1           0       -9.328833   -2.093463   -3.333435
    123          1           0       -9.729378   -3.800245   -2.976920
    124          1           0       -7.041166   -2.866853   -2.096969
    125          1           0       -7.656405   -2.013309   -4.522331
    126          1           0       -7.264722   -3.661992   -4.970611
    127          1           0       -6.092008   -2.759463   -3.913817
    128          1           0       -6.667356   -5.328723   -3.325089
    129          1           0       -8.375296   -5.355505   -2.858337
    130          1           0       -6.826184   -6.367921   -1.086264
    131          1           0       -7.353124   -4.780351   -0.371414
    132          1           0       -4.960763   -4.499939   -2.126236
    133          1           0       -4.795249   -5.826356   -1.085429
    134          1           0       -5.885959   -3.572566    0.586901
    135          1           0       -3.998988   -2.563625   -1.496722
    136          1           0       -3.540924   -2.255916    0.209502
    137          1           0       -5.122399   -1.836091   -0.341688
    138          1           0       -4.603456   -4.320930    2.017427
    139          1           0       -3.155896   -4.313258    1.062140
    140          1           0       -4.234819   -5.750116    1.034264
 ---------------------------------------------------------------------

 SCF Done:  E(RZINDO/S) =  -473.970789497     A.U. after   19 cycles

 Excitation energies and oscillator strengths:

 Excited State   1:      Singlet-A      1.3266 eV  934.58 nm  f=0.5435  <S**2>=0.000
     175 ->178         0.19825
     176 ->177         0.66139
 This state for optimization and/or second-order correction.
 Total Energy, E(CIS/TDA) =  -473.922036719
 Copying the excited state density for this state as the 1-particle RhoCI density.

 Excited State   2:      Singlet-A      1.9401 eV  639.06 nm  f=0.0007  <S**2>=0.000
     175 ->177        -0.47503
     176 ->178         0.50201

 Excited State   3:      Singlet-A      2.9564 eV  419.38 nm  f=0.2906  <S**2>=0.000
     175 ->177        -0.22348
     176 ->178        -0.21651
     176 ->179         0.54586
     176 ->180        -0.12360
     176 ->183         0.14994

 Excited State   4:      Singlet-A      3.0155 eV  411.16 nm  f=0.0077  <S**2>=0.000
     168 ->177         0.25117
     168 ->178        -0.12979
     168 ->179        -0.37447
     168 ->180        -0.34235
     168 ->183         0.16832
     168 ->185        -0.24034
     168 ->190        -0.10469

 Excited State   5:      Singlet-A      3.0433 eV  407.39 nm  f=0.0122  <S**2>=0.000
     169 ->177         0.24113
     169 ->178        -0.11392
     169 ->179         0.31134
     169 ->180        -0.22905
     169 ->183         0.15589
     169 ->185         0.14950
     169 ->187         0.11574
     170 ->177        -0.17133
     170 ->179        -0.22136
     170 ->180         0.15148
     170 ->183        -0.10655
     170 ->185        -0.10103
     176 ->179         0.14304

 The electronic state is 1-A.
 Alpha  occ. eigenvalues --   -1.83851  -1.80608  -1.77700  -1.72294  -1.71445
 Alpha  occ. eigenvalues --   -1.69765  -1.65179  -1.60260  -1.58785  -1.57423
 Alpha  occ. eigenvalues --   -1.54354  -1.51285  -1.47840  -1.46814  -1.46763
 Alpha  occ. eigenvalues --   -1.43219  -1.42201  -1.39974  -1.39191  -1.38120
 Alpha  occ. eigenvalues --   -1.35652  -1.35502  -1.32475  -1.31394  -1.28415
 Alpha  occ. eigenvalues --   -1.28112  -1.27731  -1.22678  -1.21394  -1.18014
 Alpha  occ. eigenvalues --   -1.17295  -1.16122  -1.14768  -1.13739  -1.12708
 Alpha  occ. eigenvalues --   -1.12624  -1.09868  -1.08839  -1.03819  -1.03077
 Alpha  occ. eigenvalues --   -1.02007  -1.00036  -0.98336  -0.97903  -0.95594
 Alpha  occ. eigenvalues --   -0.95183  -0.94682  -0.94172  -0.93068  -0.92793
 Alpha  occ. eigenvalues --   -0.92269  -0.90970  -0.89207  -0.88325  -0.87748
 Alpha  occ. eigenvalues --   -0.86712  -0.84497  -0.83078  -0.81978  -0.80187
 Alpha  occ. eigenvalues --   -0.79050  -0.78697  -0.77313  -0.76964  -0.76715
 Alpha  occ. eigenvalues --   -0.76419  -0.75029  -0.74664  -0.74031  -0.73487
 Alpha  occ. eigenvalues --   -0.72812  -0.72131  -0.71253  -0.70939  -0.70838
 Alpha  occ. eigenvalues --   -0.70109  -0.69049  -0.68584  -0.68121  -0.68023
 Alpha  occ. eigenvalues --   -0.67588  -0.66996  -0.66583  -0.66402  -0.66228
 Alpha  occ. eigenvalues --   -0.65599  -0.65415  -0.64803  -0.64477  -0.63802
 Alpha  occ. eigenvalues --   -0.63007  -0.62835  -0.62580  -0.62496  -0.62138
 Alpha  occ. eigenvalues --   -0.61794  -0.61500  -0.61423  -0.60653  -0.60528
 Alpha  occ. eigenvalues --   -0.60077  -0.59802  -0.59488  -0.59149  -0.58538
 Alpha  occ. eigenvalues --   -0.58040  -0.57701  -0.57292  -0.56657  -0.56548
 Alpha  occ. eigenvalues --   -0.56215  -0.55910  -0.55759  -0.55131  -0.54707
 Alpha  occ. eigenvalues --   -0.54620  -0.53985  -0.53776  -0.53184  -0.52885
 Alpha  occ. eigenvalues --   -0.52532  -0.52392  -0.52150  -0.52003  -0.51538
 Alpha  occ. eigenvalues --   -0.51347  -0.50851  -0.50518  -0.50488  -0.50173
 Alpha  occ. eigenvalues --   -0.49784  -0.49706  -0.49495  -0.49197  -0.49083
 Alpha  occ. eigenvalues --   -0.48373  -0.48222  -0.47991  -0.47908  -0.47656
 Alpha  occ. eigenvalues --   -0.47458  -0.47137  -0.47061  -0.46933  -0.46629
 Alpha  occ. eigenvalues --   -0.46264  -0.46085  -0.45938  -0.45668  -0.45635
 Alpha  occ. eigenvalues --   -0.45314  -0.44698  -0.44635  -0.44516  -0.44249
 Alpha  occ. eigenvalues --   -0.43934  -0.43154  -0.42827  -0.42576  -0.42071
 Alpha  occ. eigenvalues --   -0.41658  -0.41609  -0.41292  -0.39310  -0.39018
 Alpha  occ. eigenvalues --   -0.38557  -0.37303  -0.35929  -0.35211  -0.34992
 Alpha  occ. eigenvalues --   -0.33994  -0.32913  -0.32689  -0.32603  -0.27102
 Alpha  occ. eigenvalues --   -0.21826
 Alpha virt. eigenvalues --   -0.07988  -0.02919  -0.00737   0.00955   0.01175
 Alpha virt. eigenvalues --    0.01587   0.02097   0.02788   0.03963   0.04702
 Alpha virt. eigenvalues --    0.05751   0.06504   0.06925   0.07427   0.07886

 Mulliken charges:
               1
     1  Mg   0.439979
     2  C   -0.024939
     3  C   -0.043760
     4  C   -0.116221
     5  C   -0.077545
     6  N   -0.271112
     7  C    0.098690
     8  C    0.000889
     9  C   -0.006975
    10  C    0.139038
    11  C   -0.047970
    12  C   -0.020161
    13  C    0.014464
    14  C    0.459961
    15  O   -0.529629
    16  O   -0.274285
    17  N   -0.324235
    18  C    0.117079
    19  C    0.056471
    20  C   -0.058739
    21  C    0.149037
    22  C   -0.035098
    23  C    0.328281
    24  O   -0.523676
    25  C   -0.023279
    26  N   -0.277647
    27  C    0.146477
    28  C   -0.004749
    29  C   -0.004525
    30  C    0.101695
    31  C   -0.059593
    32  C   -0.028567
    33  C   -0.058034
    34  N   -0.311489
    35  C    0.084259
    36  C    0.023100
    37  C   -0.048086
    38  C    0.081378
    39  C   -0.040798
    40  C    0.325356
    41  O   -0.523431
    42  C    0.059635
    43  C    0.488394
    44  O   -0.518863
    45  O   -0.273808
    46  C    0.078516
    47  C    0.111858
    48  C   -0.098772
    49  C    0.003018
    50  C   -0.049624
    51  C   -0.020832
    52  C   -0.038471
    53  C   -0.030102
    54  C   -0.014836
    55  C   -0.062997
    56  C   -0.036942
    57  C   -0.037616
    58  C   -0.034466
    59  C   -0.020952
    60  C   -0.065311
    61  C   -0.036747
    62  C   -0.042486
    63  C   -0.039888
    64  C   -0.014728
    65  C   -0.061627
    66  C   -0.060263
    67  H    0.026049
    68  H    0.023580
    69  H    0.035529
    70  H    0.033775
    71  H    0.026525
    72  H    0.038585
    73  H    0.028032
    74  H    0.025786
    75  H    0.032147
    76  H    0.025773
    77  H    0.034861
    78  H    0.053294
    79  H    0.050282
    80  H    0.036815
    81  H    0.018726
    82  H    0.042406
    83  H    0.038419
    84  H    0.039960
    85  H    0.035815
    86  H    0.035938
    87  H    0.019662
    88  H    0.033872
    89  H    0.021000
    90  H    0.031426
    91  H    0.017064
    92  H    0.012090
    93  H    0.022935
    94  H    0.022072
    95  H    0.033124
    96  H    0.040569
    97  H    0.022939
    98  H    0.045876
    99  H    0.047443
   100  H    0.014103
   101  H    0.056447
   102  H    0.035106
   103  H    0.058517
   104  H    0.018739
   105  H    0.038657
   106  H    0.025660
   107  H    0.030759
   108  H    0.009735
   109  H    0.033268
   110  H    0.017732
   111  H    0.021513
   112  H    0.021561
   113  H    0.021170
   114  H    0.018574
   115  H    0.020943
   116  H    0.012237
   117  H    0.020072
   118  H    0.021546
   119  H    0.021295
   120  H    0.015996
   121  H    0.024227
   122  H    0.018937
   123  H    0.026735
   124  H    0.017312
   125  H    0.019265
   126  H    0.020268
   127  H    0.019761
   128  H    0.022929
   129  H    0.013271
   130  H    0.018097
   131  H    0.031776
   132  H    0.022222
   133  H    0.013673
   134  H    0.024254
   135  H    0.026189
   136  H    0.018935
   137  H    0.011412
   138  H    0.008396
   139  H    0.018007
   140  H    0.024628
 Sum of Mulliken charges =  -0.00000

 Dipole moment (field-independent basis, Debye):
    X=             -0.1967    Y=             -6.3671    Z=             -0.5942  Tot=              6.3978
 N-N= 4.487433167791D+03 E-N= 0.000000000000D+00  KE=-9.648592367376D+03
 Leave Link  601 at Wed Apr 27 22:01:26 2022, MaxMem=  6710886400 cpu:               1.1 elap:               0.1
 (Enter /sw/apps/gaussian-16.0/g16/l9999.exe)
 1\1\GINC-BP1-COMPUTE183\SP\RZINDO CIS\STO-3G\C55H74Mg1N4O6\OF15641\27-
 Apr-2022\0\\#p ZINDO=(nstates=5)\\step_1301_chromophore_23 ZINDO\\0,1\
 Mg,0,-9.544,42.464,42.485\C,0,-8.321,39.126,41.728\C,0,-6.511,43.517,4
 0.944\C,0,-10.782,45.433,42.247\C,0,-12.539,40.964,43.48\N,0,-7.519,41
 .382,41.564\C,0,-7.301,40.06,41.4\C,0,-6.023,39.761,40.626\C,0,-5.329,
 41.238,40.637\C,0,-6.533,42.147,41.105\C,0,-4.046,41.365,41.411\C,0,-6
 .236,39.16,39.218\C,0,-5.392,37.922,38.827\C,0,-4.327,38.292,37.765\O,

 Normal termination of Gaussian 16 at Wed Apr 27 22:01:26 2022.
