 Gaussian 16, Revision A.03,
 Gaussian 16:  ES64L-G16RevA.03 25-Dec-2016

 ------------------------------
 #p blyp/Def2SVP td=(nstates=5)
 ------------------------------

 --------------------------------------------------
 step_901_chromophore_26 TDDFT with blyp functional
 --------------------------------------------------
 Symbolic Z-matrix:
 Charge =  0 Multiplicity = 1

                         Standard orientation:
 ---------------------------------------------------------------------
 Center     Atomic      Atomic             Coordinates (Angstroms)
 Number     Number       Type             X           Y           Z
 ---------------------------------------------------------------------
      1         12           0        3.912501    1.150858   -0.499732
      2          6           0        4.842693   -2.095991   -0.215473
      3          6           0        2.199366    0.406225   -3.409879
      4          6           0        2.789419    4.412103   -0.650907
      5          6           0        4.863017    1.662576    2.837414
      6          7           0        3.566343   -0.646559   -1.625217
      7          6           0        4.037612   -1.883048   -1.345033
      8          6           0        3.586607   -2.924756   -2.371393
      9          6           0        2.901390   -2.020378   -3.413927
     10          6           0        2.902650   -0.630462   -2.788093
     11          6           0        3.498462   -2.056323   -4.880505
     12          6           0        2.673627   -3.963061   -1.651713
     13          6           0        1.683814   -3.564811   -0.468423
     14          6           0        0.331456   -4.289847   -0.438087
     15          8           0        0.138062   -5.399464   -0.951856
     16          8           0       -0.543780   -3.608338    0.375271
     17          7           0        2.561221    2.294845   -1.839227
     18          6           0        2.041672    1.771556   -3.000385
     19          6           0        1.379798    2.850321   -3.701766
     20          6           0        1.663109    4.102518   -2.968653
     21          6           0        2.353679    3.619536   -1.727363
     22          6           0        0.433975    2.661740   -4.850203
     23          6           0        1.184634    5.423960   -3.406165
     24          8           0        0.545163    5.528271   -4.449364
     25          6           0        1.346078    6.755014   -2.581508
     26          7           0        3.587704    2.738864    0.992435
     27          6           0        3.329790    3.998637    0.587433
     28          6           0        3.620237    5.044331    1.695416
     29          6           0        3.959765    4.127310    2.960796
     30          6           0        4.138227    2.726170    2.282311
     31          6           0        4.747746    5.971213    1.302930
     32          6           0        2.852422    4.151059    4.135452
     33          6           0        3.344699    4.357232    5.547388
     34          7           0        4.724474    0.078054    0.978049
     35          6           0        5.132218    0.358504    2.273407
     36          6           0        5.837010   -0.665844    2.872599
     37          6           0        5.726087   -1.723349    1.897301
     38          6           0        5.006513   -1.201908    0.820694
     39          6           0        6.374503   -0.658037    4.240519
     40          6           0        6.123431   -3.069793    1.572444
     41          8           0        6.849007   -3.889276    2.183282
     42          6           0        5.597514   -3.371851    0.202298
     43          6           0        6.591224   -3.713828   -0.792790
     44          8           0        6.574569   -4.760825   -1.480099
     45          8           0        7.575550   -2.721092   -0.672758
     46          6           0        8.858656   -2.965354   -1.475716
     47          6           0       -1.787101   -4.325291    0.413577
     48          6           0       -2.867571   -3.488431    1.069037
     49          6           0       -2.897328   -3.099559    2.383930
     50          6           0       -1.883324   -3.568565    3.474381
     51          6           0       -4.037447   -2.096437    2.735041
     52          6           0       -3.766754   -0.646400    2.401450
     53          6           0       -4.727657    0.378847    3.058536
     54          6           0       -5.528694    1.295283    2.143257
     55          6           0       -5.706296    2.639353    2.799220
     56          6           0       -6.901260    0.817774    1.515393
     57          6           0       -7.034756    0.955517   -0.039354
     58          6           0       -7.585887   -0.315159   -0.756565
     59          6           0       -8.948668   -0.108482   -1.429979
     60          6           0       -9.048332   -0.865627   -2.704426
     61          6           0      -10.210138   -0.453870   -0.483752
     62          6           0      -11.609856    0.130096   -0.983151
     63          6           0      -12.794804   -0.812187   -0.606049
     64          6           0      -13.825362   -0.155902    0.330601
     65          6           0      -14.410752   -1.202863    1.405642
     66          6           0      -14.998554    0.262657   -0.511659
     67          1           0        1.813133    0.243330   -4.418524
     68          1           0        2.578250    5.480893   -0.725245
     69          1           0        5.363396    1.829986    3.793292
     70          1           0        4.530507   -3.389971   -2.658839
     71          1           0        1.866819   -2.277996   -3.645503
     72          1           0        2.693369   -2.319713   -5.567264
     73          1           0        4.273493   -2.816822   -4.976660
     74          1           0        3.938174   -1.084971   -5.108877
     75          1           0        3.242249   -4.823385   -1.300085
     76          1           0        2.062208   -4.454149   -2.408386
     77          1           0        1.371185   -2.522741   -0.518048
     78          1           0        2.117265   -3.633246    0.529725
     79          1           0       -0.541472    3.073696   -4.592576
     80          1           0        0.437118    1.584102   -5.012733
     81          1           0        0.901049    3.180143   -5.687223
     82          1           0        2.401433    6.945076   -2.385839
     83          1           0        0.976976    6.659650   -1.560300
     84          1           0        0.820178    7.523104   -3.149289
     85          1           0        2.715159    5.644899    1.781861
     86          1           0        4.894569    4.344323    3.476857
     87          1           0        4.536413    6.970276    1.684707
     88          1           0        4.893675    6.040937    0.224813
     89          1           0        5.739211    5.623836    1.592885
     90          1           0        2.347247    3.187090    4.081685
     91          1           0        2.071533    4.903633    4.021434
     92          1           0        2.760510    5.053044    6.148881
     93          1           0        4.417972    4.517457    5.652406
     94          1           0        3.038250    3.488068    6.129474
     95          1           0        6.363062   -1.656264    4.678237
     96          1           0        5.650467   -0.153237    4.879205
     97          1           0        7.340657   -0.197942    4.449576
     98          1           0        4.893198   -4.203244    0.178657
     99          1           0        8.862691   -4.029159   -1.713663
    100          1           0        9.738570   -2.755257   -0.868572
    101          1           0        8.791746   -2.505417   -2.461949
    102          1           0       -1.590838   -5.191802    1.044238
    103          1           0       -2.119992   -4.584733   -0.591169
    104          1           0       -3.705750   -3.157565    0.456353
    105          1           0       -2.289109   -4.249957    4.222273
    106          1           0       -1.680291   -2.696649    4.096700
    107          1           0       -0.989217   -4.102867    3.151770
    108          1           0       -4.097307   -2.096314    3.823274
    109          1           0       -5.015860   -2.412430    2.371278
    110          1           0       -3.864352   -0.514125    1.323942
    111          1           0       -2.741396   -0.398392    2.674963
    112          1           0       -4.176480    0.994355    3.770302
    113          1           0       -5.491141   -0.127001    3.648944
    114          1           0       -4.894890    1.453653    1.271136
    115          1           0       -4.789173    3.213426    2.659750
    116          1           0       -5.813073    2.445738    3.865843
    117          1           0       -6.403580    3.369161    2.387603
    118          1           0       -7.636873    1.412256    2.057155
    119          1           0       -7.072292   -0.218864    1.806810
    120          1           0       -6.044197    1.116752   -0.464181
    121          1           0       -7.624264    1.847545   -0.249718
    122          1           0       -7.687401   -1.212398   -0.146573
    123          1           0       -6.886502   -0.582496   -1.549502
    124          1           0       -9.206969    0.928558   -1.648995
    125          1           0       -8.139419   -1.194732   -3.209201
    126          1           0       -9.560948   -0.219392   -3.416916
    127          1           0       -9.690901   -1.736778   -2.580924
    128          1           0       -9.994529   -0.009717    0.487770
    129          1           0      -10.275287   -1.507725   -0.213175
    130          1           0      -11.431068    0.147160   -2.057914
    131          1           0      -11.721594    1.109530   -0.516176
    132          1           0      -12.344532   -1.743539   -0.261981
    133          1           0      -13.195213   -1.104894   -1.575928
    134          1           0      -13.503806    0.704213    0.918929
    135          1           0      -13.614029   -1.434066    2.113896
    136          1           0      -14.733445   -2.117477    0.909587
    137          1           0      -15.312337   -0.725569    1.788992
    138          1           0      -15.947617   -0.234626   -0.310960
    139          1           0      -14.843755    0.117161   -1.581065
    140          1           0      -15.202950    1.330917   -0.435838
 ---------------------------------------------------------------------

 SCF Done:  E(RB-LYP) =  -3007.37879152     A.U. after   22 cycles

 Excitation energies and oscillator strengths:

 Excited State   1:      Singlet-A      1.6459 eV  753.30 nm  f=0.0075  <S**2>=0.000
     243 -> 247       -0.13400
     244 -> 247        0.61785
     245 -> 247        0.29543
     246 -> 247        0.10815
 This state for optimization and/or second-order correction.
 Total Energy, E(TD-HF/TD-DFT) =  -3007.31830689
 Copying the excited state density for this state as the 1-particle RhoCI density.

 Excited State   2:      Singlet-A      1.6817 eV  737.24 nm  f=0.0004  <S**2>=0.000
     243 -> 247        0.67873
     244 -> 247        0.18072

 Excited State   3:      Singlet-A      1.8238 eV  679.82 nm  f=0.3203  <S**2>=0.000
     245 -> 248        0.17779
     246 -> 247        0.68227
     246 <- 247       -0.14988

 Excited State   4:      Singlet-A      2.0020 eV  619.30 nm  f=0.0887  <S**2>=0.000
     243 -> 247        0.13334
     244 -> 247       -0.26907
     245 -> 247        0.58445
     246 -> 248       -0.21029

 Excited State   5:      Singlet-A      2.1568 eV  574.85 nm  f=0.0007  <S**2>=0.000
     241 -> 247        0.70001

 The electronic state is 1-A.
 Alpha  occ. eigenvalues --  -46.28057 -18.82772 -18.82613 -18.77938 -18.77128
 Alpha  occ. eigenvalues --  -18.75117 -18.74879 -14.04176 -14.03587 -14.01385
 Alpha  occ. eigenvalues --  -14.00980 -10.04683 -10.04285  -9.99666  -9.99063
 Alpha  occ. eigenvalues --   -9.98334  -9.97281  -9.97236  -9.97235  -9.97198
 Alpha  occ. eigenvalues --   -9.97006  -9.96658  -9.96251  -9.95369  -9.94989
 Alpha  occ. eigenvalues --   -9.94633  -9.94626  -9.94298  -9.94274  -9.94249
 Alpha  occ. eigenvalues --   -9.93944  -9.93924  -9.93820  -9.93803  -9.93492
 Alpha  occ. eigenvalues --   -9.93440  -9.93433  -9.93382  -9.93294  -9.93019
 Alpha  occ. eigenvalues --   -9.92970  -9.92902  -9.92881  -9.92715  -9.92418
 Alpha  occ. eigenvalues --   -9.92275  -9.92212  -9.92162  -9.92000  -9.91957
 Alpha  occ. eigenvalues --   -9.91678  -9.91664  -9.91481  -9.91438  -9.91376
 Alpha  occ. eigenvalues --   -9.91298  -9.91297  -9.91291  -9.91111  -9.91017
 Alpha  occ. eigenvalues --   -9.90997  -9.90945  -9.90873  -9.90545  -9.90144
 Alpha  occ. eigenvalues --   -9.90127  -2.92675  -1.73080  -1.72539  -1.72415
 Alpha  occ. eigenvalues --   -0.98510  -0.96109  -0.91098  -0.89948  -0.89477
 Alpha  occ. eigenvalues --   -0.89243  -0.88020  -0.87080  -0.85833  -0.84996
 Alpha  occ. eigenvalues --   -0.76666  -0.73351  -0.72615  -0.72484  -0.72396
 Alpha  occ. eigenvalues --   -0.71840  -0.71721  -0.71278  -0.71147  -0.71011
 Alpha  occ. eigenvalues --   -0.69575  -0.69054  -0.68297  -0.68091  -0.67367
 Alpha  occ. eigenvalues --   -0.66497  -0.66124  -0.65198  -0.64905  -0.64568
 Alpha  occ. eigenvalues --   -0.64340  -0.62991  -0.62361  -0.61822  -0.61249
 Alpha  occ. eigenvalues --   -0.60661  -0.60333  -0.59484  -0.59267  -0.58702
 Alpha  occ. eigenvalues --   -0.58647  -0.58103  -0.57316  -0.55958  -0.54686
 Alpha  occ. eigenvalues --   -0.54451  -0.53574  -0.53062  -0.52294  -0.51939
 Alpha  occ. eigenvalues --   -0.51909  -0.51155  -0.51112  -0.50845  -0.49644
 Alpha  occ. eigenvalues --   -0.49623  -0.49331  -0.49100  -0.48892  -0.46920
 Alpha  occ. eigenvalues --   -0.46526  -0.46016  -0.45741  -0.45301  -0.44800
 Alpha  occ. eigenvalues --   -0.44358  -0.43752  -0.43297  -0.43142  -0.42463
 Alpha  occ. eigenvalues --   -0.42355  -0.42039  -0.41718  -0.41344  -0.41095
 Alpha  occ. eigenvalues --   -0.40906  -0.40823  -0.40343  -0.40183  -0.39875
 Alpha  occ. eigenvalues --   -0.39768  -0.39497  -0.39447  -0.39349  -0.39268
 Alpha  occ. eigenvalues --   -0.39087  -0.38865  -0.38745  -0.38567  -0.38339
 Alpha  occ. eigenvalues --   -0.38122  -0.38097  -0.37827  -0.37295  -0.37209
 Alpha  occ. eigenvalues --   -0.36994  -0.36696  -0.36616  -0.36567  -0.36493
 Alpha  occ. eigenvalues --   -0.36318  -0.36134  -0.35817  -0.35562  -0.35482
 Alpha  occ. eigenvalues --   -0.35357  -0.35328  -0.35184  -0.34952  -0.34824
 Alpha  occ. eigenvalues --   -0.34676  -0.34582  -0.34465  -0.34275  -0.34231
 Alpha  occ. eigenvalues --   -0.34024  -0.33810  -0.33716  -0.33473  -0.33280
 Alpha  occ. eigenvalues --   -0.33240  -0.33107  -0.32738  -0.32648  -0.32531
 Alpha  occ. eigenvalues --   -0.32315  -0.31989  -0.31819  -0.31467  -0.31249
 Alpha  occ. eigenvalues --   -0.30988  -0.30907  -0.30758  -0.30588  -0.30484
 Alpha  occ. eigenvalues --   -0.30296  -0.30282  -0.30167  -0.30130  -0.30016
 Alpha  occ. eigenvalues --   -0.29860  -0.29581  -0.29470  -0.29365  -0.29156
 Alpha  occ. eigenvalues --   -0.29100  -0.28844  -0.28730  -0.28484  -0.28075
 Alpha  occ. eigenvalues --   -0.27461  -0.27268  -0.27034  -0.26991  -0.26653
 Alpha  occ. eigenvalues --   -0.26431  -0.25896  -0.25850  -0.25693  -0.25459
 Alpha  occ. eigenvalues --   -0.25424  -0.25128  -0.24314  -0.24288  -0.23651
 Alpha  occ. eigenvalues --   -0.23596  -0.22884  -0.22336  -0.22123  -0.20857
 Alpha  occ. eigenvalues --   -0.20242  -0.20134  -0.18414  -0.18324  -0.17771
 Alpha  occ. eigenvalues --   -0.16607
 Alpha virt. eigenvalues --   -0.12319  -0.07082  -0.06523  -0.04844  -0.04204
 Alpha virt. eigenvalues --   -0.03780  -0.03438  -0.02941  -0.01841  -0.00045
 Alpha virt. eigenvalues --    0.00890   0.01448   0.02416   0.02617   0.03143

 Mulliken charges:
               1
     1  Mg   0.695584
     2  C   -0.089463
     3  C   -0.070419
     4  C   -0.047580
     5  C   -0.074302
     6  N   -0.200415
     7  C   -0.152067
     8  C    0.151718
     9  C   -0.026774
    10  C    0.073334
    11  C    0.104278
    12  C    0.087663
    13  C    0.095878
    14  C    0.086482
    15  O   -0.208409
    16  O   -0.252966
    17  N   -0.239628
    18  C    0.102101
    19  C   -0.177935
    20  C    0.057479
    21  C    0.115681
    22  C    0.221113
    23  C   -0.108243
    24  O   -0.180840
    25  C    0.112720
    26  N   -0.212333
    27  C    0.010020
    28  C    0.018981
    29  C    0.039226
    30  C    0.043420
    31  C    0.128314
    32  C    0.093676
    33  C    0.063987
    34  N   -0.268567
    35  C    0.104952
    36  C   -0.159514
    37  C    0.078437
    38  C    0.128292
    39  C    0.166965
    40  C   -0.043474
    41  O   -0.162364
    42  C    0.177727
    43  C    0.107836
    44  O   -0.187577
    45  O   -0.313177
    46  C    0.208081
    47  C    0.328575
    48  C   -0.115691
    49  C   -0.115717
    50  C    0.137691
    51  C    0.103658
    52  C    0.109534
    53  C    0.111549
    54  C   -0.096397
    55  C    0.106312
    56  C    0.107271
    57  C    0.094727
    58  C    0.123211
    59  C   -0.085447
    60  C    0.119778
    61  C    0.017995
    62  C    0.076310
    63  C    0.132531
    64  C   -0.074344
    65  C    0.078416
    66  C    0.102546
    67  H   -0.049815
    68  H   -0.087400
    69  H   -0.062270
    70  H   -0.015208
    71  H   -0.017848
    72  H   -0.002037
    73  H   -0.003691
    74  H   -0.001807
    75  H   -0.001473
    76  H   -0.015481
    77  H   -0.001220
    78  H    0.016712
    79  H    0.020839
    80  H   -0.031742
    81  H    0.012444
    82  H    0.004837
    83  H    0.006461
    84  H    0.002033
    85  H   -0.022163
    86  H   -0.029146
    87  H   -0.002375
    88  H   -0.019279
    89  H   -0.014914
    90  H   -0.016627
    91  H   -0.019294
    92  H   -0.019993
    93  H   -0.001886
    94  H   -0.022978
    95  H   -0.002093
    96  H   -0.015680
    97  H    0.005853
    98  H   -0.016565
    99  H    0.018305
   100  H    0.038937
   101  H    0.018230
   102  H   -0.008994
   103  H   -0.002754
   104  H   -0.034694
   105  H   -0.005338
   106  H   -0.010991
   107  H    0.000224
   108  H   -0.046748
   109  H   -0.012581
   110  H   -0.031709
   111  H   -0.031122
   112  H   -0.040326
   113  H   -0.039100
   114  H   -0.044219
   115  H   -0.031355
   116  H   -0.014402
   117  H   -0.021226
   118  H   -0.035204
   119  H   -0.043734
   120  H   -0.027667
   121  H   -0.021753
   122  H   -0.027710
   123  H   -0.043639
   124  H   -0.035169
   125  H   -0.019953
   126  H   -0.018985
   127  H   -0.022714
   128  H   -0.043413
   129  H   -0.034245
   130  H   -0.036130
   131  H   -0.017311
   132  H   -0.041380
   133  H   -0.035102
   134  H   -0.023278
   135  H   -0.007550
   136  H   -0.014768
   137  H   -0.010608
   138  H   -0.022278
   139  H   -0.026851
   140  H   -0.027302
 Sum of Mulliken charges =  -0.00000

 Dipole moment (field-independent basis, Debye):
    X=              0.4081    Y=              5.0071    Z=              1.9153  Tot=              5.3765
 Quadrupole moment (field-independent basis, Debye-Ang):
   XX=           -394.4049   YY=           -440.7077   ZZ=           -402.0100
   XY=             36.8574   XZ=            -14.1631   YZ=             26.6257

 Normal termination of Gaussian 16 at Thu May  5 14:04:49 2022.
