 Gaussian 16, Revision A.03,
 Gaussian 16:  ES64L-G16RevA.03 25-Dec-2016

 -----------------------------------
 #p cam-b3lyp/Def2SVP td=(nstates=5)
 -----------------------------------

 -------------------------------------------------------
 step_901_chromophore_26 TDDFT with cam-b3lyp functional
 -------------------------------------------------------
 Symbolic Z-matrix:
 Charge =  0 Multiplicity = 1

                         Standard orientation:
 ---------------------------------------------------------------------
 Center     Atomic      Atomic             Coordinates (Angstroms)
 Number     Number       Type             X           Y           Z
 ---------------------------------------------------------------------
      1         12           0        3.912501    1.150858   -0.499732
      2          6           0        4.842693   -2.095991   -0.215473
      3          6           0        2.199366    0.406225   -3.409879
      4          6           0        2.789419    4.412103   -0.650907
      5          6           0        4.863017    1.662576    2.837414
      6          7           0        3.566343   -0.646559   -1.625217
      7          6           0        4.037612   -1.883048   -1.345033
      8          6           0        3.586607   -2.924756   -2.371393
      9          6           0        2.901390   -2.020378   -3.413927
     10          6           0        2.902650   -0.630462   -2.788093
     11          6           0        3.498462   -2.056323   -4.880505
     12          6           0        2.673627   -3.963061   -1.651713
     13          6           0        1.683814   -3.564811   -0.468423
     14          6           0        0.331456   -4.289847   -0.438087
     15          8           0        0.138062   -5.399464   -0.951856
     16          8           0       -0.543780   -3.608338    0.375271
     17          7           0        2.561221    2.294845   -1.839227
     18          6           0        2.041672    1.771556   -3.000385
     19          6           0        1.379798    2.850321   -3.701766
     20          6           0        1.663109    4.102518   -2.968653
     21          6           0        2.353679    3.619536   -1.727363
     22          6           0        0.433975    2.661740   -4.850203
     23          6           0        1.184634    5.423960   -3.406165
     24          8           0        0.545163    5.528271   -4.449364
     25          6           0        1.346078    6.755014   -2.581508
     26          7           0        3.587704    2.738864    0.992435
     27          6           0        3.329790    3.998637    0.587433
     28          6           0        3.620237    5.044331    1.695416
     29          6           0        3.959765    4.127310    2.960796
     30          6           0        4.138227    2.726170    2.282311
     31          6           0        4.747746    5.971213    1.302930
     32          6           0        2.852422    4.151059    4.135452
     33          6           0        3.344699    4.357232    5.547388
     34          7           0        4.724474    0.078054    0.978049
     35          6           0        5.132218    0.358504    2.273407
     36          6           0        5.837010   -0.665844    2.872599
     37          6           0        5.726087   -1.723349    1.897301
     38          6           0        5.006513   -1.201908    0.820694
     39          6           0        6.374503   -0.658037    4.240519
     40          6           0        6.123431   -3.069793    1.572444
     41          8           0        6.849007   -3.889276    2.183282
     42          6           0        5.597514   -3.371851    0.202298
     43          6           0        6.591224   -3.713828   -0.792790
     44          8           0        6.574569   -4.760825   -1.480099
     45          8           0        7.575550   -2.721092   -0.672758
     46          6           0        8.858656   -2.965354   -1.475716
     47          6           0       -1.787101   -4.325291    0.413577
     48          6           0       -2.867571   -3.488431    1.069037
     49          6           0       -2.897328   -3.099559    2.383930
     50          6           0       -1.883324   -3.568565    3.474381
     51          6           0       -4.037447   -2.096437    2.735041
     52          6           0       -3.766754   -0.646400    2.401450
     53          6           0       -4.727657    0.378847    3.058536
     54          6           0       -5.528694    1.295283    2.143257
     55          6           0       -5.706296    2.639353    2.799220
     56          6           0       -6.901260    0.817774    1.515393
     57          6           0       -7.034756    0.955517   -0.039354
     58          6           0       -7.585887   -0.315159   -0.756565
     59          6           0       -8.948668   -0.108482   -1.429979
     60          6           0       -9.048332   -0.865627   -2.704426
     61          6           0      -10.210138   -0.453870   -0.483752
     62          6           0      -11.609856    0.130096   -0.983151
     63          6           0      -12.794804   -0.812187   -0.606049
     64          6           0      -13.825362   -0.155902    0.330601
     65          6           0      -14.410752   -1.202863    1.405642
     66          6           0      -14.998554    0.262657   -0.511659
     67          1           0        1.813133    0.243330   -4.418524
     68          1           0        2.578250    5.480893   -0.725245
     69          1           0        5.363396    1.829986    3.793292
     70          1           0        4.530507   -3.389971   -2.658839
     71          1           0        1.866819   -2.277996   -3.645503
     72          1           0        2.693369   -2.319713   -5.567264
     73          1           0        4.273493   -2.816822   -4.976660
     74          1           0        3.938174   -1.084971   -5.108877
     75          1           0        3.242249   -4.823385   -1.300085
     76          1           0        2.062208   -4.454149   -2.408386
     77          1           0        1.371185   -2.522741   -0.518048
     78          1           0        2.117265   -3.633246    0.529725
     79          1           0       -0.541472    3.073696   -4.592576
     80          1           0        0.437118    1.584102   -5.012733
     81          1           0        0.901049    3.180143   -5.687223
     82          1           0        2.401433    6.945076   -2.385839
     83          1           0        0.976976    6.659650   -1.560300
     84          1           0        0.820178    7.523104   -3.149289
     85          1           0        2.715159    5.644899    1.781861
     86          1           0        4.894569    4.344323    3.476857
     87          1           0        4.536413    6.970276    1.684707
     88          1           0        4.893675    6.040937    0.224813
     89          1           0        5.739211    5.623836    1.592885
     90          1           0        2.347247    3.187090    4.081685
     91          1           0        2.071533    4.903633    4.021434
     92          1           0        2.760510    5.053044    6.148881
     93          1           0        4.417972    4.517457    5.652406
     94          1           0        3.038250    3.488068    6.129474
     95          1           0        6.363062   -1.656264    4.678237
     96          1           0        5.650467   -0.153237    4.879205
     97          1           0        7.340657   -0.197942    4.449576
     98          1           0        4.893198   -4.203244    0.178657
     99          1           0        8.862691   -4.029159   -1.713663
    100          1           0        9.738570   -2.755257   -0.868572
    101          1           0        8.791746   -2.505417   -2.461949
    102          1           0       -1.590838   -5.191802    1.044238
    103          1           0       -2.119992   -4.584733   -0.591169
    104          1           0       -3.705750   -3.157565    0.456353
    105          1           0       -2.289109   -4.249957    4.222273
    106          1           0       -1.680291   -2.696649    4.096700
    107          1           0       -0.989217   -4.102867    3.151770
    108          1           0       -4.097307   -2.096314    3.823274
    109          1           0       -5.015860   -2.412430    2.371278
    110          1           0       -3.864352   -0.514125    1.323942
    111          1           0       -2.741396   -0.398392    2.674963
    112          1           0       -4.176480    0.994355    3.770302
    113          1           0       -5.491141   -0.127001    3.648944
    114          1           0       -4.894890    1.453653    1.271136
    115          1           0       -4.789173    3.213426    2.659750
    116          1           0       -5.813073    2.445738    3.865843
    117          1           0       -6.403580    3.369161    2.387603
    118          1           0       -7.636873    1.412256    2.057155
    119          1           0       -7.072292   -0.218864    1.806810
    120          1           0       -6.044197    1.116752   -0.464181
    121          1           0       -7.624264    1.847545   -0.249718
    122          1           0       -7.687401   -1.212398   -0.146573
    123          1           0       -6.886502   -0.582496   -1.549502
    124          1           0       -9.206969    0.928558   -1.648995
    125          1           0       -8.139419   -1.194732   -3.209201
    126          1           0       -9.560948   -0.219392   -3.416916
    127          1           0       -9.690901   -1.736778   -2.580924
    128          1           0       -9.994529   -0.009717    0.487770
    129          1           0      -10.275287   -1.507725   -0.213175
    130          1           0      -11.431068    0.147160   -2.057914
    131          1           0      -11.721594    1.109530   -0.516176
    132          1           0      -12.344532   -1.743539   -0.261981
    133          1           0      -13.195213   -1.104894   -1.575928
    134          1           0      -13.503806    0.704213    0.918929
    135          1           0      -13.614029   -1.434066    2.113896
    136          1           0      -14.733445   -2.117477    0.909587
    137          1           0      -15.312337   -0.725569    1.788992
    138          1           0      -15.947617   -0.234626   -0.310960
    139          1           0      -14.843755    0.117161   -1.581065
    140          1           0      -15.202950    1.330917   -0.435838
 ---------------------------------------------------------------------

 SCF Done:  E(RCAM-B3LYP) =  -3007.16469446     A.U. after   17 cycles

 Excitation energies and oscillator strengths:

 Excited State   1:      Singlet-A      1.7599 eV  704.48 nm  f=0.4039  <S**2>=0.000
     245 -> 248       -0.16811
     246 -> 247        0.68822
     245 <- 248       -0.10268
 This state for optimization and/or second-order correction.
 Total Energy, E(TD-HF/TD-DFT) =  -3007.10001796
 Copying the excited state density for this state as the 1-particle RhoCI density.

 Excited State   2:      Singlet-A      2.2082 eV  561.47 nm  f=0.1391  <S**2>=0.000
     245 -> 247        0.65520
     246 -> 248        0.24385

 Excited State   3:      Singlet-A      3.0788 eV  402.70 nm  f=0.0136  <S**2>=0.000
     243 -> 247        0.55776
     244 -> 247       -0.40263

 Excited State   4:      Singlet-A      3.3338 eV  371.90 nm  f=0.0007  <S**2>=0.000
     240 -> 247       -0.32391
     240 -> 249        0.15486
     240 -> 251        0.10070
     241 -> 247        0.42071
     241 -> 249        0.19734
     241 -> 251       -0.16752
     243 -> 247        0.14612
     244 -> 247        0.24346

 Excited State   5:      Singlet-A      3.3501 eV  370.09 nm  f=0.0005  <S**2>=0.000
     240 -> 247        0.47625
     240 -> 249       -0.22744
     240 -> 251       -0.14368
     241 -> 247        0.33899
     241 -> 249        0.15877
     241 -> 251       -0.13536

 The electronic state is 1-A.
 Alpha  occ. eigenvalues --  -46.89689 -19.25553 -19.25422 -19.20912 -19.20013
 Alpha  occ. eigenvalues --  -19.18735 -19.17562 -14.43153 -14.42424 -14.40122
 Alpha  occ. eigenvalues --  -14.39090 -10.40103 -10.39524 -10.35279 -10.33960
 Alpha  occ. eigenvalues --  -10.32324 -10.32135 -10.32124 -10.31754 -10.31322
 Alpha  occ. eigenvalues --  -10.31307 -10.31237 -10.31234 -10.29676 -10.28964
 Alpha  occ. eigenvalues --  -10.28952 -10.28702 -10.28591 -10.28345 -10.28245
 Alpha  occ. eigenvalues --  -10.28114 -10.28095 -10.27980 -10.27875 -10.27813
 Alpha  occ. eigenvalues --  -10.27536 -10.27508 -10.27331 -10.27212 -10.27170
 Alpha  occ. eigenvalues --  -10.26739 -10.26652 -10.26617 -10.26485 -10.26460
 Alpha  occ. eigenvalues --  -10.26229 -10.25939 -10.25912 -10.25719 -10.25544
 Alpha  occ. eigenvalues --  -10.25486 -10.25248 -10.25175 -10.25168 -10.25064
 Alpha  occ. eigenvalues --  -10.25018 -10.24928 -10.24832 -10.24792 -10.24718
 Alpha  occ. eigenvalues --  -10.24640 -10.24628 -10.24616 -10.24112 -10.23717
 Alpha  occ. eigenvalues --  -10.23688  -3.18204  -1.93084  -1.92636  -1.92528
 Alpha  occ. eigenvalues --   -1.16860  -1.14431  -1.09892  -1.07742  -1.07330
 Alpha  occ. eigenvalues --   -1.06999  -1.05794  -1.04413  -1.03786  -1.02684
 Alpha  occ. eigenvalues --   -0.93593  -0.90148  -0.89413  -0.89312  -0.89156
 Alpha  occ. eigenvalues --   -0.88434  -0.88373  -0.87872  -0.87605  -0.87427
 Alpha  occ. eigenvalues --   -0.86466  -0.85495  -0.84586  -0.84175  -0.83539
 Alpha  occ. eigenvalues --   -0.82557  -0.82169  -0.81142  -0.80861  -0.80660
 Alpha  occ. eigenvalues --   -0.80042  -0.78514  -0.77889  -0.77574  -0.76704
 Alpha  occ. eigenvalues --   -0.75948  -0.75673  -0.74794  -0.74560  -0.73898
 Alpha  occ. eigenvalues --   -0.73767  -0.73113  -0.72267  -0.70759  -0.69160
 Alpha  occ. eigenvalues --   -0.69091  -0.68127  -0.67786  -0.66624  -0.66087
 Alpha  occ. eigenvalues --   -0.65997  -0.65345  -0.65238  -0.64838  -0.63645
 Alpha  occ. eigenvalues --   -0.63346  -0.63064  -0.62865  -0.62839  -0.60524
 Alpha  occ. eigenvalues --   -0.59998  -0.59488  -0.59339  -0.58721  -0.58322
 Alpha  occ. eigenvalues --   -0.57742  -0.56965  -0.56529  -0.56333  -0.55940
 Alpha  occ. eigenvalues --   -0.55552  -0.54961  -0.54580  -0.54376  -0.53895
 Alpha  occ. eigenvalues --   -0.53681  -0.53547  -0.53243  -0.52752  -0.52708
 Alpha  occ. eigenvalues --   -0.52292  -0.52104  -0.51983  -0.51934  -0.51808
 Alpha  occ. eigenvalues --   -0.51700  -0.51539  -0.51209  -0.50966  -0.50640
 Alpha  occ. eigenvalues --   -0.50457  -0.50344  -0.50102  -0.49710  -0.49443
 Alpha  occ. eigenvalues --   -0.49202  -0.49059  -0.48857  -0.48756  -0.48710
 Alpha  occ. eigenvalues --   -0.48618  -0.48365  -0.48238  -0.48024  -0.47648
 Alpha  occ. eigenvalues --   -0.47514  -0.47457  -0.47321  -0.47032  -0.46923
 Alpha  occ. eigenvalues --   -0.46534  -0.46280  -0.46245  -0.46170  -0.45966
 Alpha  occ. eigenvalues --   -0.45834  -0.45557  -0.45340  -0.45301  -0.45080
 Alpha  occ. eigenvalues --   -0.44893  -0.44724  -0.44650  -0.44358  -0.44076
 Alpha  occ. eigenvalues --   -0.43827  -0.43522  -0.43335  -0.42967  -0.42685
 Alpha  occ. eigenvalues --   -0.42586  -0.42371  -0.42256  -0.42173  -0.42111
 Alpha  occ. eigenvalues --   -0.41869  -0.41707  -0.41474  -0.41341  -0.41284
 Alpha  occ. eigenvalues --   -0.41207  -0.40874  -0.40538  -0.40487  -0.40319
 Alpha  occ. eigenvalues --   -0.40185  -0.39888  -0.39720  -0.39445  -0.39031
 Alpha  occ. eigenvalues --   -0.38354  -0.38347  -0.37946  -0.37828  -0.37583
 Alpha  occ. eigenvalues --   -0.37340  -0.37054  -0.36801  -0.36554  -0.36512
 Alpha  occ. eigenvalues --   -0.36092  -0.35736  -0.35020  -0.34777  -0.34548
 Alpha  occ. eigenvalues --   -0.34269  -0.34016  -0.33642  -0.31525  -0.31174
 Alpha  occ. eigenvalues --   -0.30224  -0.29882  -0.29845  -0.29672  -0.24617
 Alpha  occ. eigenvalues --   -0.22089
 Alpha virt. eigenvalues --   -0.09589  -0.01831  -0.00213   0.01055   0.02161
 Alpha virt. eigenvalues --    0.03890   0.04159   0.04967   0.05217   0.06964
 Alpha virt. eigenvalues --    0.07510   0.08216   0.08662   0.08801   0.09288

 Mulliken charges:
               1
     1  Mg   0.826756
     2  C   -0.112820
     3  C   -0.081191
     4  C   -0.073432
     5  C   -0.076328
     6  N   -0.273595
     7  C   -0.110831
     8  C    0.097594
     9  C   -0.083663
    10  C    0.093844
    11  C    0.047457
    12  C    0.036525
    13  C    0.030201
    14  C    0.167520
    15  O   -0.250395
    16  O   -0.313746
    17  N   -0.328515
    18  C    0.113019
    19  C   -0.170845
    20  C   -0.013948
    21  C    0.156320
    22  C    0.162766
    23  C   -0.035300
    24  O   -0.220109
    25  C    0.039250
    26  N   -0.282199
    27  C    0.037770
    28  C   -0.038528
    29  C   -0.011121
    30  C    0.054028
    31  C    0.067049
    32  C    0.041353
    33  C   -0.002692
    34  N   -0.359982
    35  C    0.100499
    36  C   -0.151421
    37  C   -0.003804
    38  C    0.159027
    39  C    0.109518
    40  C    0.057690
    41  O   -0.205637
    42  C    0.091855
    43  C    0.202324
    44  O   -0.230435
    45  O   -0.376855
    46  C    0.172624
    47  C    0.287283
    48  C   -0.134031
    49  C   -0.138012
    50  C    0.078392
    51  C    0.044295
    52  C    0.058138
    53  C    0.052744
    54  C   -0.146299
    55  C    0.043278
    56  C    0.053778
    57  C    0.039285
    58  C    0.066202
    59  C   -0.139679
    60  C    0.054049
    61  C   -0.021725
    62  C    0.023065
    63  C    0.073278
    64  C   -0.138761
    65  C    0.024495
    66  C    0.040497
    67  H   -0.014906
    68  H   -0.053355
    69  H   -0.027007
    70  H    0.020957
    71  H    0.018255
    72  H    0.021737
    73  H    0.022923
    74  H    0.022883
    75  H    0.028620
    76  H    0.017831
    77  H    0.029605
    78  H    0.047005
    79  H    0.050534
    80  H   -0.004815
    81  H    0.042498
    82  H    0.031486
    83  H    0.033750
    84  H    0.038583
    85  H    0.012305
    86  H    0.005027
    87  H    0.023052
    88  H    0.006511
    89  H    0.012509
    90  H    0.013722
    91  H    0.007215
    92  H    0.005642
    93  H    0.020327
    94  H    0.002290
    95  H    0.025138
    96  H    0.007839
    97  H    0.030751
    98  H    0.024984
    99  H    0.043734
   100  H    0.061080
   101  H    0.039363
   102  H    0.020431
   103  H    0.027377
   104  H   -0.003055
   105  H    0.019394
   106  H    0.011797
   107  H    0.025518
   108  H   -0.016072
   109  H    0.015288
   110  H   -0.005818
   111  H   -0.001086
   112  H   -0.007623
   113  H   -0.010714
   114  H   -0.013354
   115  H   -0.005624
   116  H    0.009222
   117  H    0.004743
   118  H   -0.006202
   119  H   -0.016874
   120  H    0.000699
   121  H    0.005623
   122  H   -0.000549
   123  H   -0.012455
   124  H   -0.003897
   125  H    0.006648
   126  H    0.004934
   127  H    0.001918
   128  H   -0.016316
   129  H   -0.008465
   130  H   -0.008226
   131  H    0.009556
   132  H   -0.011733
   133  H   -0.005028
   134  H    0.008097
   135  H    0.015918
   136  H    0.007791
   137  H    0.012673
   138  H    0.003049
   139  H   -0.001728
   140  H   -0.001799
 Sum of Mulliken charges =  -0.00000

 Dipole moment (field-independent basis, Debye):
    X=             -0.0721    Y=              6.1403    Z=              1.0114  Tot=              6.2235
 Quadrupole moment (field-independent basis, Debye-Ang):
   XX=           -397.2808   YY=           -437.0195   ZZ=           -399.1631
   XY=             39.9505   XZ=            -17.0767   YZ=             26.1861

 Normal termination of Gaussian 16 at Thu May  5 13:06:50 2022.
