 Gaussian 16, Revision A.03,
 Gaussian 16:  ES64L-G16RevA.03 25-Dec-2016

 ---------------------------------
 #p PBE1PBE/Def2SVP td=(nstates=5)
 ---------------------------------

 -----------------------------------------------------
 step_901_chromophore_26 TDDFT with PBE1PBE functional
 -----------------------------------------------------
 Symbolic Z-matrix:
 Charge =  0 Multiplicity = 1

                         Standard orientation:
 ---------------------------------------------------------------------
 Center     Atomic      Atomic             Coordinates (Angstroms)
 Number     Number       Type             X           Y           Z
 ---------------------------------------------------------------------
      1         12           0        3.912501    1.150858   -0.499732
      2          6           0        4.842693   -2.095991   -0.215473
      3          6           0        2.199366    0.406225   -3.409879
      4          6           0        2.789419    4.412103   -0.650907
      5          6           0        4.863017    1.662576    2.837414
      6          7           0        3.566343   -0.646559   -1.625217
      7          6           0        4.037612   -1.883048   -1.345033
      8          6           0        3.586607   -2.924756   -2.371393
      9          6           0        2.901390   -2.020378   -3.413927
     10          6           0        2.902650   -0.630462   -2.788093
     11          6           0        3.498462   -2.056323   -4.880505
     12          6           0        2.673627   -3.963061   -1.651713
     13          6           0        1.683814   -3.564811   -0.468423
     14          6           0        0.331456   -4.289847   -0.438087
     15          8           0        0.138062   -5.399464   -0.951856
     16          8           0       -0.543780   -3.608338    0.375271
     17          7           0        2.561221    2.294845   -1.839227
     18          6           0        2.041672    1.771556   -3.000385
     19          6           0        1.379798    2.850321   -3.701766
     20          6           0        1.663109    4.102518   -2.968653
     21          6           0        2.353679    3.619536   -1.727363
     22          6           0        0.433975    2.661740   -4.850203
     23          6           0        1.184634    5.423960   -3.406165
     24          8           0        0.545163    5.528271   -4.449364
     25          6           0        1.346078    6.755014   -2.581508
     26          7           0        3.587704    2.738864    0.992435
     27          6           0        3.329790    3.998637    0.587433
     28          6           0        3.620237    5.044331    1.695416
     29          6           0        3.959765    4.127310    2.960796
     30          6           0        4.138227    2.726170    2.282311
     31          6           0        4.747746    5.971213    1.302930
     32          6           0        2.852422    4.151059    4.135452
     33          6           0        3.344699    4.357232    5.547388
     34          7           0        4.724474    0.078054    0.978049
     35          6           0        5.132218    0.358504    2.273407
     36          6           0        5.837010   -0.665844    2.872599
     37          6           0        5.726087   -1.723349    1.897301
     38          6           0        5.006513   -1.201908    0.820694
     39          6           0        6.374503   -0.658037    4.240519
     40          6           0        6.123431   -3.069793    1.572444
     41          8           0        6.849007   -3.889276    2.183282
     42          6           0        5.597514   -3.371851    0.202298
     43          6           0        6.591224   -3.713828   -0.792790
     44          8           0        6.574569   -4.760825   -1.480099
     45          8           0        7.575550   -2.721092   -0.672758
     46          6           0        8.858656   -2.965354   -1.475716
     47          6           0       -1.787101   -4.325291    0.413577
     48          6           0       -2.867571   -3.488431    1.069037
     49          6           0       -2.897328   -3.099559    2.383930
     50          6           0       -1.883324   -3.568565    3.474381
     51          6           0       -4.037447   -2.096437    2.735041
     52          6           0       -3.766754   -0.646400    2.401450
     53          6           0       -4.727657    0.378847    3.058536
     54          6           0       -5.528694    1.295283    2.143257
     55          6           0       -5.706296    2.639353    2.799220
     56          6           0       -6.901260    0.817774    1.515393
     57          6           0       -7.034756    0.955517   -0.039354
     58          6           0       -7.585887   -0.315159   -0.756565
     59          6           0       -8.948668   -0.108482   -1.429979
     60          6           0       -9.048332   -0.865627   -2.704426
     61          6           0      -10.210138   -0.453870   -0.483752
     62          6           0      -11.609856    0.130096   -0.983151
     63          6           0      -12.794804   -0.812187   -0.606049
     64          6           0      -13.825362   -0.155902    0.330601
     65          6           0      -14.410752   -1.202863    1.405642
     66          6           0      -14.998554    0.262657   -0.511659
     67          1           0        1.813133    0.243330   -4.418524
     68          1           0        2.578250    5.480893   -0.725245
     69          1           0        5.363396    1.829986    3.793292
     70          1           0        4.530507   -3.389971   -2.658839
     71          1           0        1.866819   -2.277996   -3.645503
     72          1           0        2.693369   -2.319713   -5.567264
     73          1           0        4.273493   -2.816822   -4.976660
     74          1           0        3.938174   -1.084971   -5.108877
     75          1           0        3.242249   -4.823385   -1.300085
     76          1           0        2.062208   -4.454149   -2.408386
     77          1           0        1.371185   -2.522741   -0.518048
     78          1           0        2.117265   -3.633246    0.529725
     79          1           0       -0.541472    3.073696   -4.592576
     80          1           0        0.437118    1.584102   -5.012733
     81          1           0        0.901049    3.180143   -5.687223
     82          1           0        2.401433    6.945076   -2.385839
     83          1           0        0.976976    6.659650   -1.560300
     84          1           0        0.820178    7.523104   -3.149289
     85          1           0        2.715159    5.644899    1.781861
     86          1           0        4.894569    4.344323    3.476857
     87          1           0        4.536413    6.970276    1.684707
     88          1           0        4.893675    6.040937    0.224813
     89          1           0        5.739211    5.623836    1.592885
     90          1           0        2.347247    3.187090    4.081685
     91          1           0        2.071533    4.903633    4.021434
     92          1           0        2.760510    5.053044    6.148881
     93          1           0        4.417972    4.517457    5.652406
     94          1           0        3.038250    3.488068    6.129474
     95          1           0        6.363062   -1.656264    4.678237
     96          1           0        5.650467   -0.153237    4.879205
     97          1           0        7.340657   -0.197942    4.449576
     98          1           0        4.893198   -4.203244    0.178657
     99          1           0        8.862691   -4.029159   -1.713663
    100          1           0        9.738570   -2.755257   -0.868572
    101          1           0        8.791746   -2.505417   -2.461949
    102          1           0       -1.590838   -5.191802    1.044238
    103          1           0       -2.119992   -4.584733   -0.591169
    104          1           0       -3.705750   -3.157565    0.456353
    105          1           0       -2.289109   -4.249957    4.222273
    106          1           0       -1.680291   -2.696649    4.096700
    107          1           0       -0.989217   -4.102867    3.151770
    108          1           0       -4.097307   -2.096314    3.823274
    109          1           0       -5.015860   -2.412430    2.371278
    110          1           0       -3.864352   -0.514125    1.323942
    111          1           0       -2.741396   -0.398392    2.674963
    112          1           0       -4.176480    0.994355    3.770302
    113          1           0       -5.491141   -0.127001    3.648944
    114          1           0       -4.894890    1.453653    1.271136
    115          1           0       -4.789173    3.213426    2.659750
    116          1           0       -5.813073    2.445738    3.865843
    117          1           0       -6.403580    3.369161    2.387603
    118          1           0       -7.636873    1.412256    2.057155
    119          1           0       -7.072292   -0.218864    1.806810
    120          1           0       -6.044197    1.116752   -0.464181
    121          1           0       -7.624264    1.847545   -0.249718
    122          1           0       -7.687401   -1.212398   -0.146573
    123          1           0       -6.886502   -0.582496   -1.549502
    124          1           0       -9.206969    0.928558   -1.648995
    125          1           0       -8.139419   -1.194732   -3.209201
    126          1           0       -9.560948   -0.219392   -3.416916
    127          1           0       -9.690901   -1.736778   -2.580924
    128          1           0       -9.994529   -0.009717    0.487770
    129          1           0      -10.275287   -1.507725   -0.213175
    130          1           0      -11.431068    0.147160   -2.057914
    131          1           0      -11.721594    1.109530   -0.516176
    132          1           0      -12.344532   -1.743539   -0.261981
    133          1           0      -13.195213   -1.104894   -1.575928
    134          1           0      -13.503806    0.704213    0.918929
    135          1           0      -13.614029   -1.434066    2.113896
    136          1           0      -14.733445   -2.117477    0.909587
    137          1           0      -15.312337   -0.725569    1.788992
    138          1           0      -15.947617   -0.234626   -0.310960
    139          1           0      -14.843755    0.117161   -1.581065
    140          1           0      -15.202950    1.330917   -0.435838
 ---------------------------------------------------------------------

 SCF Done:  E(RPBE1PBE) =  -3005.35357642     A.U. after   16 cycles

 Excitation energies and oscillator strengths:

 Excited State   1:      Singlet-A      1.8736 eV  661.73 nm  f=0.3889  <S**2>=0.000
     245 -> 248        0.16778
     246 -> 247        0.69396
     246 <- 247       -0.10750
 This state for optimization and/or second-order correction.
 Total Energy, E(TD-HF/TD-DFT) =  -3005.28472149
 Copying the excited state density for this state as the 1-particle RhoCI density.

 Excited State   2:      Singlet-A      2.2016 eV  563.15 nm  f=0.1265  <S**2>=0.000
     245 -> 247        0.66311
     246 -> 248       -0.22228

 Excited State   3:      Singlet-A      2.7309 eV  454.00 nm  f=0.0056  <S**2>=0.000
     240 -> 247       -0.17077
     241 -> 247       -0.12523
     242 -> 247       -0.23851
     244 -> 247        0.61113

 Excited State   4:      Singlet-A      2.7523 eV  450.47 nm  f=0.0042  <S**2>=0.000
     240 -> 247       -0.10608
     242 -> 247        0.63188
     242 -> 249        0.14087
     244 -> 247        0.20373

 Excited State   5:      Singlet-A      2.8601 eV  433.49 nm  f=0.0042  <S**2>=0.000
     240 -> 247        0.42938
     241 -> 247        0.46756
     244 -> 247        0.25950

 The electronic state is 1-A.
 Alpha  occ. eigenvalues --  -46.93063 -19.26320 -19.26105 -19.21296 -19.20343
 Alpha  occ. eigenvalues --  -19.18682 -19.18164 -14.42595 -14.41972 -14.39577
 Alpha  occ. eigenvalues --  -14.38931 -10.37234 -10.36601 -10.32158 -10.31384
 Alpha  occ. eigenvalues --  -10.29596 -10.29595 -10.29536 -10.29333 -10.29197
 Alpha  occ. eigenvalues --  -10.29001 -10.28617 -10.28536 -10.27097 -10.26887
 Alpha  occ. eigenvalues --  -10.26877 -10.26453 -10.26448 -10.26066 -10.26059
 Alpha  occ. eigenvalues --  -10.25886 -10.25814 -10.25721 -10.25351 -10.25282
 Alpha  occ. eigenvalues --  -10.25271 -10.25262 -10.25137 -10.25117 -10.24939
 Alpha  occ. eigenvalues --  -10.24345 -10.24151 -10.23892 -10.23875 -10.23728
 Alpha  occ. eigenvalues --  -10.23577 -10.23478 -10.23411 -10.23367 -10.23120
 Alpha  occ. eigenvalues --  -10.22971 -10.22965 -10.22836 -10.22762 -10.22735
 Alpha  occ. eigenvalues --  -10.22687 -10.22552 -10.22481 -10.22330 -10.22258
 Alpha  occ. eigenvalues --  -10.22219 -10.22174 -10.22032 -10.21486 -10.21072
 Alpha  occ. eigenvalues --  -10.21056  -3.15159  -1.87978  -1.87508  -1.87407
 Alpha  occ. eigenvalues --   -1.11695  -1.09247  -1.04357  -1.02619  -1.02312
 Alpha  occ. eigenvalues --   -1.01955  -1.00442  -0.99334  -0.98199  -0.97230
 Alpha  occ. eigenvalues --   -0.88151  -0.84242  -0.83631  -0.83517  -0.83272
 Alpha  occ. eigenvalues --   -0.82696  -0.82496  -0.82184  -0.81983  -0.81712
 Alpha  occ. eigenvalues --   -0.80511  -0.79666  -0.78791  -0.78581  -0.77717
 Alpha  occ. eigenvalues --   -0.76769  -0.76392  -0.75377  -0.75039  -0.74822
 Alpha  occ. eigenvalues --   -0.74286  -0.72837  -0.72164  -0.71724  -0.71024
 Alpha  occ. eigenvalues --   -0.70180  -0.69952  -0.68866  -0.68682  -0.68222
 Alpha  occ. eigenvalues --   -0.68031  -0.67452  -0.66694  -0.65067  -0.63736
 Alpha  occ. eigenvalues --   -0.63463  -0.62349  -0.62093  -0.60908  -0.60481
 Alpha  occ. eigenvalues --   -0.60412  -0.59786  -0.59557  -0.59409  -0.57894
 Alpha  occ. eigenvalues --   -0.57773  -0.57528  -0.57194  -0.56983  -0.55135
 Alpha  occ. eigenvalues --   -0.54653  -0.53923  -0.53852  -0.53283  -0.52870
 Alpha  occ. eigenvalues --   -0.52122  -0.51406  -0.51077  -0.50893  -0.50373
 Alpha  occ. eigenvalues --   -0.50167  -0.49484  -0.49123  -0.49010  -0.48455
 Alpha  occ. eigenvalues --   -0.48234  -0.47961  -0.47700  -0.47339  -0.47175
 Alpha  occ. eigenvalues --   -0.46781  -0.46707  -0.46483  -0.46404  -0.46308
 Alpha  occ. eigenvalues --   -0.46274  -0.45852  -0.45817  -0.45590  -0.45103
 Alpha  occ. eigenvalues --   -0.45069  -0.44994  -0.44719  -0.44285  -0.44056
 Alpha  occ. eigenvalues --   -0.43860  -0.43497  -0.43407  -0.43359  -0.43237
 Alpha  occ. eigenvalues --   -0.43127  -0.42928  -0.42912  -0.42615  -0.42275
 Alpha  occ. eigenvalues --   -0.42132  -0.42065  -0.41939  -0.41611  -0.41542
 Alpha  occ. eigenvalues --   -0.41152  -0.41124  -0.41054  -0.40909  -0.40630
 Alpha  occ. eigenvalues --   -0.40590  -0.40359  -0.40275  -0.39974  -0.39843
 Alpha  occ. eigenvalues --   -0.39461  -0.39413  -0.39299  -0.39227  -0.38796
 Alpha  occ. eigenvalues --   -0.38734  -0.38398  -0.38119  -0.37751  -0.37383
 Alpha  occ. eigenvalues --   -0.37331  -0.37221  -0.37105  -0.37024  -0.36781
 Alpha  occ. eigenvalues --   -0.36641  -0.36601  -0.36275  -0.36219  -0.36161
 Alpha  occ. eigenvalues --   -0.36001  -0.35766  -0.35408  -0.35293  -0.35286
 Alpha  occ. eigenvalues --   -0.34919  -0.34791  -0.34445  -0.34193  -0.33787
 Alpha  occ. eigenvalues --   -0.33309  -0.33044  -0.32909  -0.32643  -0.32621
 Alpha  occ. eigenvalues --   -0.32210  -0.32070  -0.31791  -0.31602  -0.31367
 Alpha  occ. eigenvalues --   -0.30903  -0.30530  -0.29995  -0.29682  -0.29663
 Alpha  occ. eigenvalues --   -0.29256  -0.29082  -0.28977  -0.27206  -0.25751
 Alpha  occ. eigenvalues --   -0.25664  -0.25281  -0.25191  -0.25042  -0.21524
 Alpha  occ. eigenvalues --   -0.19642
 Alpha virt. eigenvalues --   -0.12017  -0.05399  -0.04322  -0.02314  -0.01705
 Alpha virt. eigenvalues --   -0.00880  -0.00351   0.00423   0.00952   0.02972
 Alpha virt. eigenvalues --    0.03868   0.04082   0.05251   0.05527   0.06039

 Mulliken charges:
               1
     1  Mg   0.968141
     2  C   -0.119838
     3  C   -0.065882
     4  C   -0.062532
     5  C   -0.066175
     6  N   -0.387518
     7  C   -0.025786
     8  C    0.016023
     9  C   -0.153782
    10  C    0.123721
    11  C   -0.009154
    12  C   -0.007075
    13  C   -0.047251
    14  C    0.228233
    15  O   -0.280056
    16  O   -0.342100
    17  N   -0.440254
    18  C    0.137999
    19  C   -0.196067
    20  C   -0.057360
    21  C    0.181998
    22  C    0.097586
    23  C    0.010404
    24  O   -0.254802
    25  C   -0.034796
    26  N   -0.379583
    27  C    0.071377
    28  C   -0.118585
    29  C   -0.081928
    30  C    0.086938
    31  C    0.014000
    32  C   -0.013369
    33  C   -0.074171
    34  N   -0.490721
    35  C    0.113737
    36  C   -0.154930
    37  C   -0.055759
    38  C    0.207180
    39  C    0.056085
    40  C    0.156925
    41  O   -0.249299
    42  C   -0.031234
    43  C    0.293646
    44  O   -0.267808
    45  O   -0.401454
    46  C    0.118681
    47  C    0.239840
    48  C   -0.138303
    49  C   -0.177474
    50  C    0.014793
    51  C   -0.028509
    52  C   -0.003020
    53  C   -0.001831
    54  C   -0.228643
    55  C   -0.022001
    56  C    0.001117
    57  C   -0.024209
    58  C    0.008687
    59  C   -0.226263
    60  C   -0.005385
    61  C   -0.069034
    62  C   -0.043052
    63  C    0.020433
    64  C   -0.236068
    65  C   -0.039545
    66  C   -0.014044
    67  H    0.015203
    68  H   -0.018868
    69  H    0.005047
    70  H    0.061229
    71  H    0.054843
    72  H    0.047916
    73  H    0.049563
    74  H    0.050902
    75  H    0.059365
    76  H    0.051297
    77  H    0.065186
    78  H    0.078261
    79  H    0.076379
    80  H    0.022975
    81  H    0.069316
    82  H    0.056852
    83  H    0.059070
    84  H    0.065065
    85  H    0.047445
    86  H    0.041244
    87  H    0.050360
    88  H    0.034537
    89  H    0.039006
    90  H    0.046482
    91  H    0.039690
    92  H    0.033731
    93  H    0.046291
    94  H    0.029937
    95  H    0.054338
    96  H    0.036034
    97  H    0.059455
    98  H    0.065775
    99  H    0.064127
   100  H    0.081685
   101  H    0.061591
   102  H    0.048165
   103  H    0.054269
   104  H    0.026381
   105  H    0.047243
   106  H    0.039486
   107  H    0.051566
   108  H    0.018962
   109  H    0.047123
   110  H    0.028059
   111  H    0.031795
   112  H    0.025069
   113  H    0.022014
   114  H    0.026619
   115  H    0.023863
   116  H    0.037468
   117  H    0.032626
   118  H    0.026428
   119  H    0.016023
   120  H    0.032714
   121  H    0.036893
   122  H    0.030418
   123  H    0.020758
   124  H    0.035123
   125  H    0.033920
   126  H    0.031783
   127  H    0.030277
   128  H    0.019477
   129  H    0.021898
   130  H    0.027086
   131  H    0.041303
   132  H    0.020011
   133  H    0.026769
   134  H    0.043912
   135  H    0.044313
   136  H    0.035855
   137  H    0.041036
   138  H    0.029446
   139  H    0.025474
   140  H    0.026150
 Sum of Mulliken charges =  -0.00000

 Dipole moment (field-independent basis, Debye):
    X=              0.2576    Y=              5.7449    Z=              1.6497  Tot=              5.9826
 Quadrupole moment (field-independent basis, Debye-Ang):
   XX=           -391.7218   YY=           -434.8000   ZZ=           -395.3436
   XY=             38.8912   XZ=            -14.5132   YZ=             28.2568

 Normal termination of Gaussian 16 at Thu May  5 13:24:03 2022.
