 Gaussian 16, Revision A.03,
 Gaussian 16:  ES64L-G16RevA.03 25-Dec-2016

 --------------------------------
 #p wB97XD/Def2SVP td=(nstates=5)
 --------------------------------

 ----------------------------------------------------
 step_901_chromophore_26 TDDFT with wB97XD functional
 ----------------------------------------------------
 Symbolic Z-matrix:
 Charge =  0 Multiplicity = 1

                         Standard orientation:
 ---------------------------------------------------------------------
 Center     Atomic      Atomic             Coordinates (Angstroms)
 Number     Number       Type             X           Y           Z
 ---------------------------------------------------------------------
      1         12           0        3.912501    1.150858   -0.499732
      2          6           0        4.842693   -2.095991   -0.215473
      3          6           0        2.199366    0.406225   -3.409879
      4          6           0        2.789419    4.412103   -0.650907
      5          6           0        4.863017    1.662576    2.837414
      6          7           0        3.566343   -0.646559   -1.625217
      7          6           0        4.037612   -1.883048   -1.345033
      8          6           0        3.586607   -2.924756   -2.371393
      9          6           0        2.901390   -2.020378   -3.413927
     10          6           0        2.902650   -0.630462   -2.788093
     11          6           0        3.498462   -2.056323   -4.880505
     12          6           0        2.673627   -3.963061   -1.651713
     13          6           0        1.683814   -3.564811   -0.468423
     14          6           0        0.331456   -4.289847   -0.438087
     15          8           0        0.138062   -5.399464   -0.951856
     16          8           0       -0.543780   -3.608338    0.375271
     17          7           0        2.561221    2.294845   -1.839227
     18          6           0        2.041672    1.771556   -3.000385
     19          6           0        1.379798    2.850321   -3.701766
     20          6           0        1.663109    4.102518   -2.968653
     21          6           0        2.353679    3.619536   -1.727363
     22          6           0        0.433975    2.661740   -4.850203
     23          6           0        1.184634    5.423960   -3.406165
     24          8           0        0.545163    5.528271   -4.449364
     25          6           0        1.346078    6.755014   -2.581508
     26          7           0        3.587704    2.738864    0.992435
     27          6           0        3.329790    3.998637    0.587433
     28          6           0        3.620237    5.044331    1.695416
     29          6           0        3.959765    4.127310    2.960796
     30          6           0        4.138227    2.726170    2.282311
     31          6           0        4.747746    5.971213    1.302930
     32          6           0        2.852422    4.151059    4.135452
     33          6           0        3.344699    4.357232    5.547388
     34          7           0        4.724474    0.078054    0.978049
     35          6           0        5.132218    0.358504    2.273407
     36          6           0        5.837010   -0.665844    2.872599
     37          6           0        5.726087   -1.723349    1.897301
     38          6           0        5.006513   -1.201908    0.820694
     39          6           0        6.374503   -0.658037    4.240519
     40          6           0        6.123431   -3.069793    1.572444
     41          8           0        6.849007   -3.889276    2.183282
     42          6           0        5.597514   -3.371851    0.202298
     43          6           0        6.591224   -3.713828   -0.792790
     44          8           0        6.574569   -4.760825   -1.480099
     45          8           0        7.575550   -2.721092   -0.672758
     46          6           0        8.858656   -2.965354   -1.475716
     47          6           0       -1.787101   -4.325291    0.413577
     48          6           0       -2.867571   -3.488431    1.069037
     49          6           0       -2.897328   -3.099559    2.383930
     50          6           0       -1.883324   -3.568565    3.474381
     51          6           0       -4.037447   -2.096437    2.735041
     52          6           0       -3.766754   -0.646400    2.401450
     53          6           0       -4.727657    0.378847    3.058536
     54          6           0       -5.528694    1.295283    2.143257
     55          6           0       -5.706296    2.639353    2.799220
     56          6           0       -6.901260    0.817774    1.515393
     57          6           0       -7.034756    0.955517   -0.039354
     58          6           0       -7.585887   -0.315159   -0.756565
     59          6           0       -8.948668   -0.108482   -1.429979
     60          6           0       -9.048332   -0.865627   -2.704426
     61          6           0      -10.210138   -0.453870   -0.483752
     62          6           0      -11.609856    0.130096   -0.983151
     63          6           0      -12.794804   -0.812187   -0.606049
     64          6           0      -13.825362   -0.155902    0.330601
     65          6           0      -14.410752   -1.202863    1.405642
     66          6           0      -14.998554    0.262657   -0.511659
     67          1           0        1.813133    0.243330   -4.418524
     68          1           0        2.578250    5.480893   -0.725245
     69          1           0        5.363396    1.829986    3.793292
     70          1           0        4.530507   -3.389971   -2.658839
     71          1           0        1.866819   -2.277996   -3.645503
     72          1           0        2.693369   -2.319713   -5.567264
     73          1           0        4.273493   -2.816822   -4.976660
     74          1           0        3.938174   -1.084971   -5.108877
     75          1           0        3.242249   -4.823385   -1.300085
     76          1           0        2.062208   -4.454149   -2.408386
     77          1           0        1.371185   -2.522741   -0.518048
     78          1           0        2.117265   -3.633246    0.529725
     79          1           0       -0.541472    3.073696   -4.592576
     80          1           0        0.437118    1.584102   -5.012733
     81          1           0        0.901049    3.180143   -5.687223
     82          1           0        2.401433    6.945076   -2.385839
     83          1           0        0.976976    6.659650   -1.560300
     84          1           0        0.820178    7.523104   -3.149289
     85          1           0        2.715159    5.644899    1.781861
     86          1           0        4.894569    4.344323    3.476857
     87          1           0        4.536413    6.970276    1.684707
     88          1           0        4.893675    6.040937    0.224813
     89          1           0        5.739211    5.623836    1.592885
     90          1           0        2.347247    3.187090    4.081685
     91          1           0        2.071533    4.903633    4.021434
     92          1           0        2.760510    5.053044    6.148881
     93          1           0        4.417972    4.517457    5.652406
     94          1           0        3.038250    3.488068    6.129474
     95          1           0        6.363062   -1.656264    4.678237
     96          1           0        5.650467   -0.153237    4.879205
     97          1           0        7.340657   -0.197942    4.449576
     98          1           0        4.893198   -4.203244    0.178657
     99          1           0        8.862691   -4.029159   -1.713663
    100          1           0        9.738570   -2.755257   -0.868572
    101          1           0        8.791746   -2.505417   -2.461949
    102          1           0       -1.590838   -5.191802    1.044238
    103          1           0       -2.119992   -4.584733   -0.591169
    104          1           0       -3.705750   -3.157565    0.456353
    105          1           0       -2.289109   -4.249957    4.222273
    106          1           0       -1.680291   -2.696649    4.096700
    107          1           0       -0.989217   -4.102867    3.151770
    108          1           0       -4.097307   -2.096314    3.823274
    109          1           0       -5.015860   -2.412430    2.371278
    110          1           0       -3.864352   -0.514125    1.323942
    111          1           0       -2.741396   -0.398392    2.674963
    112          1           0       -4.176480    0.994355    3.770302
    113          1           0       -5.491141   -0.127001    3.648944
    114          1           0       -4.894890    1.453653    1.271136
    115          1           0       -4.789173    3.213426    2.659750
    116          1           0       -5.813073    2.445738    3.865843
    117          1           0       -6.403580    3.369161    2.387603
    118          1           0       -7.636873    1.412256    2.057155
    119          1           0       -7.072292   -0.218864    1.806810
    120          1           0       -6.044197    1.116752   -0.464181
    121          1           0       -7.624264    1.847545   -0.249718
    122          1           0       -7.687401   -1.212398   -0.146573
    123          1           0       -6.886502   -0.582496   -1.549502
    124          1           0       -9.206969    0.928558   -1.648995
    125          1           0       -8.139419   -1.194732   -3.209201
    126          1           0       -9.560948   -0.219392   -3.416916
    127          1           0       -9.690901   -1.736778   -2.580924
    128          1           0       -9.994529   -0.009717    0.487770
    129          1           0      -10.275287   -1.507725   -0.213175
    130          1           0      -11.431068    0.147160   -2.057914
    131          1           0      -11.721594    1.109530   -0.516176
    132          1           0      -12.344532   -1.743539   -0.261981
    133          1           0      -13.195213   -1.104894   -1.575928
    134          1           0      -13.503806    0.704213    0.918929
    135          1           0      -13.614029   -1.434066    2.113896
    136          1           0      -14.733445   -2.117477    0.909587
    137          1           0      -15.312337   -0.725569    1.788992
    138          1           0      -15.947617   -0.234626   -0.310960
    139          1           0      -14.843755    0.117161   -1.581065
    140          1           0      -15.202950    1.330917   -0.435838
 ---------------------------------------------------------------------

 SCF Done:  E(RwB97XD) =  -3007.86079396     A.U. after   17 cycles

 Excitation energies and oscillator strengths:

 Excited State   1:      Singlet-A      1.7268 eV  718.00 nm  f=0.4044  <S**2>=0.000
     245 -> 248        0.17070
     246 -> 247        0.68640
     245 <- 248        0.10953
 This state for optimization and/or second-order correction.
 Total Energy, E(TD-HF/TD-DFT) =  -3007.79733564
 Copying the excited state density for this state as the 1-particle RhoCI density.

 Excited State   2:      Singlet-A      2.1607 eV  573.82 nm  f=0.1339  <S**2>=0.000
     245 -> 247        0.65186
     246 -> 248       -0.24733

 Excited State   3:      Singlet-A      3.0969 eV  400.34 nm  f=0.0130  <S**2>=0.000
     242 -> 247        0.63115
     244 -> 247       -0.23611

 Excited State   4:      Singlet-A      3.3408 eV  371.12 nm  f=0.0002  <S**2>=0.000
     240 -> 247        0.56838
     240 -> 249       -0.30066
     240 -> 251        0.14912
     244 -> 247       -0.13000

 Excited State   5:      Singlet-A      3.4084 eV  363.76 nm  f=0.0011  <S**2>=0.000
     241 -> 247        0.48744
     241 -> 249        0.26801
     241 -> 250       -0.18042
     241 -> 251        0.14590
     244 -> 247        0.29170

 The electronic state is 1-A.
 Alpha  occ. eigenvalues --  -46.96031 -19.30739 -19.30631 -19.25850 -19.24938
 Alpha  occ. eigenvalues --  -19.23835 -19.22559 -14.47733 -14.47019 -14.44760
 Alpha  occ. eigenvalues --  -14.43640 -10.43935 -10.43315 -10.39327 -10.37905
 Alpha  occ. eigenvalues --  -10.36225 -10.36220 -10.36027 -10.35913 -10.35488
 Alpha  occ. eigenvalues --  -10.35302 -10.35190 -10.35094 -10.33959 -10.33015
 Alpha  occ. eigenvalues --  -10.32864 -10.32757 -10.32648 -10.32414 -10.32358
 Alpha  occ. eigenvalues --  -10.32116 -10.32107 -10.32071 -10.31982 -10.31707
 Alpha  occ. eigenvalues --  -10.31639 -10.31480 -10.31320 -10.31205 -10.31155
 Alpha  occ. eigenvalues --  -10.30636 -10.30556 -10.30549 -10.30359 -10.30272
 Alpha  occ. eigenvalues --  -10.30235 -10.29860 -10.29853 -10.29520 -10.29464
 Alpha  occ. eigenvalues --  -10.29274 -10.29144 -10.29136 -10.29085 -10.29029
 Alpha  occ. eigenvalues --  -10.28934 -10.28851 -10.28772 -10.28717 -10.28640
 Alpha  occ. eigenvalues --  -10.28578 -10.28539 -10.28460 -10.27936 -10.27531
 Alpha  occ. eigenvalues --  -10.27488  -3.22000  -1.95567  -1.95096  -1.94987
 Alpha  occ. eigenvalues --   -1.19023  -1.16544  -1.12181  -1.09912  -1.09475
 Alpha  occ. eigenvalues --   -1.09168  -1.07796  -1.06402  -1.05882  -1.04721
 Alpha  occ. eigenvalues --   -0.95529  -0.91909  -0.91394  -0.91143  -0.90943
 Alpha  occ. eigenvalues --   -0.90294  -0.90159  -0.89787  -0.89382  -0.89321
 Alpha  occ. eigenvalues --   -0.88485  -0.87376  -0.86467  -0.86050  -0.85379
 Alpha  occ. eigenvalues --   -0.84412  -0.84054  -0.83080  -0.82816  -0.82502
 Alpha  occ. eigenvalues --   -0.81890  -0.80397  -0.79833  -0.79507  -0.78606
 Alpha  occ. eigenvalues --   -0.77806  -0.77596  -0.76579  -0.76374  -0.75732
 Alpha  occ. eigenvalues --   -0.75711  -0.75043  -0.74252  -0.72682  -0.71166
 Alpha  occ. eigenvalues --   -0.70992  -0.70009  -0.69811  -0.68507  -0.68023
 Alpha  occ. eigenvalues --   -0.67895  -0.67262  -0.67197  -0.66831  -0.65449
 Alpha  occ. eigenvalues --   -0.65302  -0.64873  -0.64821  -0.64653  -0.62538
 Alpha  occ. eigenvalues --   -0.61955  -0.61390  -0.61326  -0.60704  -0.60322
 Alpha  occ. eigenvalues --   -0.59615  -0.58808  -0.58444  -0.58311  -0.57944
 Alpha  occ. eigenvalues --   -0.57488  -0.56868  -0.56453  -0.56319  -0.55802
 Alpha  occ. eigenvalues --   -0.55601  -0.55414  -0.55127  -0.54660  -0.54596
 Alpha  occ. eigenvalues --   -0.54166  -0.54030  -0.53915  -0.53804  -0.53746
 Alpha  occ. eigenvalues --   -0.53600  -0.53471  -0.53098  -0.52857  -0.52488
 Alpha  occ. eigenvalues --   -0.52348  -0.52216  -0.51988  -0.51675  -0.51369
 Alpha  occ. eigenvalues --   -0.51100  -0.51064  -0.50774  -0.50633  -0.50616
 Alpha  occ. eigenvalues --   -0.50532  -0.50280  -0.50163  -0.49948  -0.49571
 Alpha  occ. eigenvalues --   -0.49511  -0.49375  -0.49243  -0.48905  -0.48838
 Alpha  occ. eigenvalues --   -0.48387  -0.48204  -0.48158  -0.48108  -0.47831
 Alpha  occ. eigenvalues --   -0.47749  -0.47491  -0.47193  -0.47160  -0.46987
 Alpha  occ. eigenvalues --   -0.46719  -0.46634  -0.46523  -0.46246  -0.45944
 Alpha  occ. eigenvalues --   -0.45787  -0.45424  -0.45226  -0.44919  -0.44564
 Alpha  occ. eigenvalues --   -0.44509  -0.44285  -0.44187  -0.44158  -0.44103
 Alpha  occ. eigenvalues --   -0.43784  -0.43584  -0.43327  -0.43221  -0.43158
 Alpha  occ. eigenvalues --   -0.43108  -0.42781  -0.42413  -0.42395  -0.42227
 Alpha  occ. eigenvalues --   -0.42025  -0.41778  -0.41552  -0.41283  -0.40872
 Alpha  occ. eigenvalues --   -0.40252  -0.40166  -0.39961  -0.39650  -0.39570
 Alpha  occ. eigenvalues --   -0.39183  -0.39023  -0.38801  -0.38543  -0.38361
 Alpha  occ. eigenvalues --   -0.37919  -0.37571  -0.36955  -0.36613  -0.36531
 Alpha  occ. eigenvalues --   -0.36159  -0.35873  -0.35850  -0.33743  -0.33187
 Alpha  occ. eigenvalues --   -0.32114  -0.32104  -0.31899  -0.31781  -0.26555
 Alpha  occ. eigenvalues --   -0.23907
 Alpha virt. eigenvalues --   -0.07927   0.00096   0.01881   0.04125   0.04358
 Alpha virt. eigenvalues --    0.06060   0.06393   0.07353   0.07650   0.09606
 Alpha virt. eigenvalues --    0.10284   0.10905   0.11856   0.12232   0.12653

 Mulliken charges:
               1
     1  Mg   0.960753
     2  C   -0.120596
     3  C   -0.089420
     4  C   -0.083739
     5  C   -0.080685
     6  N   -0.348193
     7  C   -0.064722
     8  C    0.045009
     9  C   -0.134731
    10  C    0.116553
    11  C    0.000793
    12  C    0.000657
    13  C   -0.027872
    14  C    0.221953
    15  O   -0.279245
    16  O   -0.342092
    17  N   -0.408210
    18  C    0.133683
    19  C   -0.183629
    20  C   -0.055251
    21  C    0.184595
    22  C    0.110662
    23  C    0.007383
    24  O   -0.248943
    25  C   -0.020120
    26  N   -0.349779
    27  C    0.065056
    28  C   -0.092971
    29  C   -0.055074
    30  C    0.071935
    31  C    0.020628
    32  C   -0.002623
    33  C   -0.058976
    34  N   -0.452712
    35  C    0.106499
    36  C   -0.157492
    37  C   -0.053736
    38  C    0.187438
    39  C    0.065464
    40  C    0.135810
    41  O   -0.242654
    42  C    0.018044
    43  C    0.268311
    44  O   -0.262173
    45  O   -0.404027
    46  C    0.135050
    47  C    0.254030
    48  C   -0.149158
    49  C   -0.167798
    50  C    0.028893
    51  C   -0.004661
    52  C    0.013279
    53  C    0.010698
    54  C   -0.196829
    55  C   -0.007565
    56  C    0.014143
    57  C   -0.007365
    58  C    0.024503
    59  C   -0.193208
    60  C    0.003914
    61  C   -0.055115
    62  C   -0.024726
    63  C    0.034837
    64  C   -0.207358
    65  C   -0.024419
    66  C   -0.005615
    67  H    0.009049
    68  H   -0.032224
    69  H   -0.001289
    70  H    0.049026
    71  H    0.045494
    72  H    0.043405
    73  H    0.045883
    74  H    0.043679
    75  H    0.053445
    76  H    0.042965
    77  H    0.054048
    78  H    0.072332
    79  H    0.074752
    80  H    0.018525
    81  H    0.066991
    82  H    0.052146
    83  H    0.054529
    84  H    0.065269
    85  H    0.039006
    86  H    0.028866
    87  H    0.046275
    88  H    0.027062
    89  H    0.034678
    90  H    0.038467
    91  H    0.031425
    92  H    0.027944
    93  H    0.040534
    94  H    0.023819
    95  H    0.049426
    96  H    0.027807
    97  H    0.054032
    98  H    0.054684
    99  H    0.059231
   100  H    0.078919
   101  H    0.057236
   102  H    0.042521
   103  H    0.049591
   104  H    0.023003
   105  H    0.041779
   106  H    0.033100
   107  H    0.047659
   108  H    0.008926
   109  H    0.039883
   110  H    0.016277
   111  H    0.024942
   112  H    0.017876
   113  H    0.011602
   114  H    0.009625
   115  H    0.017111
   116  H    0.030097
   117  H    0.027246
   118  H    0.017749
   119  H    0.004568
   120  H    0.024017
   121  H    0.029295
   122  H    0.021406
   123  H    0.012248
   124  H    0.020422
   125  H    0.028945
   126  H    0.025899
   127  H    0.023148
   128  H    0.008182
   129  H    0.011294
   130  H    0.015207
   131  H    0.033179
   132  H    0.010543
   133  H    0.018335
   134  H    0.034860
   135  H    0.038850
   136  H    0.028772
   137  H    0.034225
   138  H    0.023565
   139  H    0.018520
   140  H    0.021005
 Sum of Mulliken charges =  -0.00000

 Dipole moment (field-independent basis, Debye):
    X=             -0.1705    Y=              6.3992    Z=              0.8628  Tot=              6.4594
 Quadrupole moment (field-independent basis, Debye-Ang):
   XX=           -394.1876   YY=           -433.1933   ZZ=           -394.5095
   XY=             40.5680   XZ=            -17.2934   YZ=             26.3615

 Normal termination of Gaussian 16 at Thu May  5 13:51:24 2022.
