 Gaussian 16, Revision A.03,
 Gaussian 16:  ES64L-G16RevA.03 25-Dec-2016

 --------------------
 #p ZINDO=(nstates=5)
 --------------------

 -----------------------------
 step_901_chromophore_26 ZINDO
 -----------------------------
 Symbolic Z-matrix:
 Charge =  0 Multiplicity = 1

                         Standard orientation:
 ---------------------------------------------------------------------
 Center     Atomic      Atomic             Coordinates (Angstroms)
 Number     Number       Type             X           Y           Z
 ---------------------------------------------------------------------
      1         12           0        3.912501    1.150858   -0.499732
      2          6           0        4.842693   -2.095991   -0.215473
      3          6           0        2.199366    0.406225   -3.409879
      4          6           0        2.789419    4.412103   -0.650907
      5          6           0        4.863017    1.662576    2.837414
      6          7           0        3.566343   -0.646559   -1.625217
      7          6           0        4.037612   -1.883048   -1.345033
      8          6           0        3.586607   -2.924756   -2.371393
      9          6           0        2.901390   -2.020378   -3.413927
     10          6           0        2.902650   -0.630462   -2.788093
     11          6           0        3.498462   -2.056323   -4.880505
     12          6           0        2.673627   -3.963061   -1.651713
     13          6           0        1.683814   -3.564811   -0.468423
     14          6           0        0.331456   -4.289847   -0.438087
     15          8           0        0.138062   -5.399464   -0.951856
     16          8           0       -0.543780   -3.608338    0.375271
     17          7           0        2.561221    2.294845   -1.839227
     18          6           0        2.041672    1.771556   -3.000385
     19          6           0        1.379798    2.850321   -3.701766
     20          6           0        1.663109    4.102518   -2.968653
     21          6           0        2.353679    3.619536   -1.727363
     22          6           0        0.433975    2.661740   -4.850203
     23          6           0        1.184634    5.423960   -3.406165
     24          8           0        0.545163    5.528271   -4.449364
     25          6           0        1.346078    6.755014   -2.581508
     26          7           0        3.587704    2.738864    0.992435
     27          6           0        3.329790    3.998637    0.587433
     28          6           0        3.620237    5.044331    1.695416
     29          6           0        3.959765    4.127310    2.960796
     30          6           0        4.138227    2.726170    2.282311
     31          6           0        4.747746    5.971213    1.302930
     32          6           0        2.852422    4.151059    4.135452
     33          6           0        3.344699    4.357232    5.547388
     34          7           0        4.724474    0.078054    0.978049
     35          6           0        5.132218    0.358504    2.273407
     36          6           0        5.837010   -0.665844    2.872599
     37          6           0        5.726087   -1.723349    1.897301
     38          6           0        5.006513   -1.201908    0.820694
     39          6           0        6.374503   -0.658037    4.240519
     40          6           0        6.123431   -3.069793    1.572444
     41          8           0        6.849007   -3.889276    2.183282
     42          6           0        5.597514   -3.371851    0.202298
     43          6           0        6.591224   -3.713828   -0.792790
     44          8           0        6.574569   -4.760825   -1.480099
     45          8           0        7.575550   -2.721092   -0.672758
     46          6           0        8.858656   -2.965354   -1.475716
     47          6           0       -1.787101   -4.325291    0.413577
     48          6           0       -2.867571   -3.488431    1.069037
     49          6           0       -2.897328   -3.099559    2.383930
     50          6           0       -1.883324   -3.568565    3.474381
     51          6           0       -4.037447   -2.096437    2.735041
     52          6           0       -3.766754   -0.646400    2.401450
     53          6           0       -4.727657    0.378847    3.058536
     54          6           0       -5.528694    1.295283    2.143257
     55          6           0       -5.706296    2.639353    2.799220
     56          6           0       -6.901260    0.817774    1.515393
     57          6           0       -7.034756    0.955517   -0.039354
     58          6           0       -7.585887   -0.315159   -0.756565
     59          6           0       -8.948668   -0.108482   -1.429979
     60          6           0       -9.048332   -0.865627   -2.704426
     61          6           0      -10.210138   -0.453870   -0.483752
     62          6           0      -11.609856    0.130096   -0.983151
     63          6           0      -12.794804   -0.812187   -0.606049
     64          6           0      -13.825362   -0.155902    0.330601
     65          6           0      -14.410752   -1.202863    1.405642
     66          6           0      -14.998554    0.262657   -0.511659
     67          1           0        1.813133    0.243330   -4.418524
     68          1           0        2.578250    5.480893   -0.725245
     69          1           0        5.363396    1.829986    3.793292
     70          1           0        4.530507   -3.389971   -2.658839
     71          1           0        1.866819   -2.277996   -3.645503
     72          1           0        2.693369   -2.319713   -5.567264
     73          1           0        4.273493   -2.816822   -4.976660
     74          1           0        3.938174   -1.084971   -5.108877
     75          1           0        3.242249   -4.823385   -1.300085
     76          1           0        2.062208   -4.454149   -2.408386
     77          1           0        1.371185   -2.522741   -0.518048
     78          1           0        2.117265   -3.633246    0.529725
     79          1           0       -0.541472    3.073696   -4.592576
     80          1           0        0.437118    1.584102   -5.012733
     81          1           0        0.901049    3.180143   -5.687223
     82          1           0        2.401433    6.945076   -2.385839
     83          1           0        0.976976    6.659650   -1.560300
     84          1           0        0.820178    7.523104   -3.149289
     85          1           0        2.715159    5.644899    1.781861
     86          1           0        4.894569    4.344323    3.476857
     87          1           0        4.536413    6.970276    1.684707
     88          1           0        4.893675    6.040937    0.224813
     89          1           0        5.739211    5.623836    1.592885
     90          1           0        2.347247    3.187090    4.081685
     91          1           0        2.071533    4.903633    4.021434
     92          1           0        2.760510    5.053044    6.148881
     93          1           0        4.417972    4.517457    5.652406
     94          1           0        3.038250    3.488068    6.129474
     95          1           0        6.363062   -1.656264    4.678237
     96          1           0        5.650467   -0.153237    4.879205
     97          1           0        7.340657   -0.197942    4.449576
     98          1           0        4.893198   -4.203244    0.178657
     99          1           0        8.862691   -4.029159   -1.713663
    100          1           0        9.738570   -2.755257   -0.868572
    101          1           0        8.791746   -2.505417   -2.461949
    102          1           0       -1.590838   -5.191802    1.044238
    103          1           0       -2.119992   -4.584733   -0.591169
    104          1           0       -3.705750   -3.157565    0.456353
    105          1           0       -2.289109   -4.249957    4.222273
    106          1           0       -1.680291   -2.696649    4.096700
    107          1           0       -0.989217   -4.102867    3.151770
    108          1           0       -4.097307   -2.096314    3.823274
    109          1           0       -5.015860   -2.412430    2.371278
    110          1           0       -3.864352   -0.514125    1.323942
    111          1           0       -2.741396   -0.398392    2.674963
    112          1           0       -4.176480    0.994355    3.770302
    113          1           0       -5.491141   -0.127001    3.648944
    114          1           0       -4.894890    1.453653    1.271136
    115          1           0       -4.789173    3.213426    2.659750
    116          1           0       -5.813073    2.445738    3.865843
    117          1           0       -6.403580    3.369161    2.387603
    118          1           0       -7.636873    1.412256    2.057155
    119          1           0       -7.072292   -0.218864    1.806810
    120          1           0       -6.044197    1.116752   -0.464181
    121          1           0       -7.624264    1.847545   -0.249718
    122          1           0       -7.687401   -1.212398   -0.146573
    123          1           0       -6.886502   -0.582496   -1.549502
    124          1           0       -9.206969    0.928558   -1.648995
    125          1           0       -8.139419   -1.194732   -3.209201
    126          1           0       -9.560948   -0.219392   -3.416916
    127          1           0       -9.690901   -1.736778   -2.580924
    128          1           0       -9.994529   -0.009717    0.487770
    129          1           0      -10.275287   -1.507725   -0.213175
    130          1           0      -11.431068    0.147160   -2.057914
    131          1           0      -11.721594    1.109530   -0.516176
    132          1           0      -12.344532   -1.743539   -0.261981
    133          1           0      -13.195213   -1.104894   -1.575928
    134          1           0      -13.503806    0.704213    0.918929
    135          1           0      -13.614029   -1.434066    2.113896
    136          1           0      -14.733445   -2.117477    0.909587
    137          1           0      -15.312337   -0.725569    1.788992
    138          1           0      -15.947617   -0.234626   -0.310960
    139          1           0      -14.843755    0.117161   -1.581065
    140          1           0      -15.202950    1.330917   -0.435838
 ---------------------------------------------------------------------

 SCF Done:  E(RZINDO/S) =  -474.149676256     A.U. after   19 cycles

 Excitation energies and oscillator strengths:

 Excited State   1:      Singlet-A      1.3567 eV  913.86 nm  f=0.5674  <S**2>=0.000
     175 ->178         0.15008
     176 ->177         0.67523
 This state for optimization and/or second-order correction.
 Total Energy, E(CIS/TDA) =  -474.099818305
 Copying the excited state density for this state as the 1-particle RhoCI density.

 Excited State   2:      Singlet-A      1.9304 eV  642.28 nm  f=0.1126  <S**2>=0.000
     175 ->177         0.58475
     176 ->178        -0.35178

 Excited State   3:      Singlet-A      2.8490 eV  435.18 nm  f=0.0012  <S**2>=0.000
     167 ->179        -0.14096
     168 ->177         0.32956
     168 ->178        -0.11836
     168 ->179        -0.37060
     168 ->181         0.20440
     168 ->185        -0.19906
     168 ->193        -0.10917
     171 ->177         0.23732

 Excited State   4:      Singlet-A      2.9794 eV  416.14 nm  f=0.0142  <S**2>=0.000
     168 ->177        -0.15659
     168 ->179         0.13057
     170 ->181         0.10257
     171 ->177         0.58493
     174 ->177        -0.18445

 Excited State   5:      Singlet-A      2.9979 eV  413.57 nm  f=0.0039  <S**2>=0.000
     170 ->177         0.32393
     170 ->178        -0.12642
     170 ->179         0.26443
     170 ->180        -0.11457
     170 ->181         0.33056
     170 ->183        -0.13875
     170 ->185         0.19363
     170 ->187         0.13814
     170 ->188        -0.16034
     170 ->203        -0.12831
     171 ->177        -0.12088

 The electronic state is 1-A.
 Alpha  occ. eigenvalues --   -1.87721  -1.81597  -1.79495  -1.75093  -1.71791
 Alpha  occ. eigenvalues --   -1.70101  -1.64021  -1.60652  -1.59856  -1.55376
 Alpha  occ. eigenvalues --   -1.54946  -1.51375  -1.47962  -1.46495  -1.45875
 Alpha  occ. eigenvalues --   -1.45540  -1.42011  -1.40469  -1.40125  -1.38302
 Alpha  occ. eigenvalues --   -1.37097  -1.34903  -1.33032  -1.31262  -1.29544
 Alpha  occ. eigenvalues --   -1.28582  -1.26399  -1.22530  -1.21588  -1.19469
 Alpha  occ. eigenvalues --   -1.17267  -1.14921  -1.14355  -1.13667  -1.12769
 Alpha  occ. eigenvalues --   -1.12105  -1.10838  -1.10463  -1.05510  -1.04304
 Alpha  occ. eigenvalues --   -1.02860  -1.02268  -0.99550  -0.98298  -0.97014
 Alpha  occ. eigenvalues --   -0.95858  -0.94527  -0.93446  -0.92740  -0.91479
 Alpha  occ. eigenvalues --   -0.91116  -0.90786  -0.89201  -0.88992  -0.88703
 Alpha  occ. eigenvalues --   -0.86441  -0.84333  -0.83495  -0.82352  -0.80698
 Alpha  occ. eigenvalues --   -0.79311  -0.78783  -0.78051  -0.77531  -0.76855
 Alpha  occ. eigenvalues --   -0.76682  -0.75769  -0.74542  -0.74063  -0.73752
 Alpha  occ. eigenvalues --   -0.73037  -0.72170  -0.71949  -0.71343  -0.70976
 Alpha  occ. eigenvalues --   -0.70428  -0.69677  -0.69417  -0.68952  -0.67894
 Alpha  occ. eigenvalues --   -0.67582  -0.67466  -0.66625  -0.66074  -0.65677
 Alpha  occ. eigenvalues --   -0.65082  -0.65044  -0.64790  -0.64594  -0.63467
 Alpha  occ. eigenvalues --   -0.62983  -0.62724  -0.62274  -0.61929  -0.61511
 Alpha  occ. eigenvalues --   -0.61406  -0.61069  -0.60851  -0.60484  -0.59919
 Alpha  occ. eigenvalues --   -0.59732  -0.59515  -0.59256  -0.58717  -0.58312
 Alpha  occ. eigenvalues --   -0.57782  -0.57527  -0.57323  -0.57134  -0.56569
 Alpha  occ. eigenvalues --   -0.56441  -0.56088  -0.55968  -0.54944  -0.54745
 Alpha  occ. eigenvalues --   -0.54576  -0.54301  -0.54076  -0.53875  -0.53249
 Alpha  occ. eigenvalues --   -0.52645  -0.52195  -0.52137  -0.51921  -0.51897
 Alpha  occ. eigenvalues --   -0.51698  -0.51186  -0.51182  -0.51020  -0.50586
 Alpha  occ. eigenvalues --   -0.50439  -0.50058  -0.49833  -0.49788  -0.49639
 Alpha  occ. eigenvalues --   -0.49293  -0.48744  -0.48627  -0.48219  -0.47819
 Alpha  occ. eigenvalues --   -0.47688  -0.47230  -0.47051  -0.46980  -0.46747
 Alpha  occ. eigenvalues --   -0.46730  -0.46350  -0.46297  -0.45978  -0.45315
 Alpha  occ. eigenvalues --   -0.45110  -0.45096  -0.44566  -0.44482  -0.43901
 Alpha  occ. eigenvalues --   -0.43525  -0.43281  -0.42723  -0.42519  -0.42477
 Alpha  occ. eigenvalues --   -0.42182  -0.41910  -0.41598  -0.39574  -0.39064
 Alpha  occ. eigenvalues --   -0.38366  -0.37652  -0.36352  -0.35283  -0.33978
 Alpha  occ. eigenvalues --   -0.33823  -0.33028  -0.32302  -0.31788  -0.27372
 Alpha  occ. eigenvalues --   -0.23015
 Alpha virt. eigenvalues --   -0.09411  -0.02422  -0.01384   0.00370   0.01067
 Alpha virt. eigenvalues --    0.01368   0.02097   0.02546   0.04120   0.04312
 Alpha virt. eigenvalues --    0.05541   0.06160   0.06910   0.07089   0.07393

 Mulliken charges:
               1
     1  Mg   0.437187
     2  C   -0.043504
     3  C   -0.087308
     4  C   -0.105075
     5  C   -0.062824
     6  N   -0.269939
     7  C    0.096055
     8  C    0.012344
     9  C    0.003290
    10  C    0.179959
    11  C   -0.053228
    12  C   -0.023459
    13  C    0.003579
    14  C    0.461837
    15  O   -0.517454
    16  O   -0.257166
    17  N   -0.341107
    18  C    0.141621
    19  C    0.071578
    20  C   -0.063529
    21  C    0.168012
    22  C   -0.031665
    23  C    0.321146
    24  O   -0.525656
    25  C   -0.033184
    26  N   -0.283161
    27  C    0.186774
    28  C    0.010761
    29  C   -0.002807
    30  C    0.072505
    31  C   -0.046272
    32  C   -0.030060
    33  C   -0.061439
    34  N   -0.322851
    35  C    0.063778
    36  C    0.011180
    37  C   -0.078048
    38  C    0.116711
    39  C   -0.035857
    40  C    0.331292
    41  O   -0.554685
    42  C    0.061536
    43  C    0.496130
    44  O   -0.532223
    45  O   -0.272443
    46  C    0.062756
    47  C    0.109466
    48  C   -0.098379
    49  C   -0.011744
    50  C   -0.041906
    51  C   -0.015808
    52  C   -0.023182
    53  C   -0.029920
    54  C   -0.010958
    55  C   -0.056926
    56  C   -0.037841
    57  C   -0.032345
    58  C   -0.029036
    59  C   -0.009671
    60  C   -0.052731
    61  C   -0.053692
    62  C   -0.047108
    63  C   -0.030275
    64  C   -0.006771
    65  C   -0.065965
    66  C   -0.054752
    67  H    0.032284
    68  H    0.027013
    69  H    0.025805
    70  H    0.052132
    71  H    0.033313
    72  H    0.024287
    73  H    0.027002
    74  H    0.024333
    75  H    0.032877
    76  H    0.023990
    77  H    0.031975
    78  H    0.053363
    79  H    0.054229
    80  H    0.022406
    81  H    0.050016
    82  H    0.033623
    83  H    0.032961
    84  H    0.047690
    85  H    0.034460
    86  H    0.032535
    87  H    0.020963
    88  H    0.016036
    89  H    0.024959
    90  H    0.022440
    91  H    0.019597
    92  H    0.019561
    93  H    0.027710
    94  H    0.012426
    95  H    0.024915
    96  H    0.013787
    97  H    0.036622
    98  H    0.050508
    99  H    0.044257
   100  H    0.052061
   101  H    0.042608
   102  H    0.049037
   103  H    0.047571
   104  H    0.030318
   105  H    0.025911
   106  H    0.023582
   107  H    0.034508
   108  H    0.007444
   109  H    0.030042
   110  H    0.016764
   111  H    0.021021
   112  H    0.017949
   113  H    0.014171
   114  H    0.008569
   115  H    0.002267
   116  H    0.021632
   117  H    0.021101
   118  H    0.019239
   119  H    0.015862
   120  H    0.018143
   121  H    0.024852
   122  H    0.025874
   123  H    0.013757
   124  H    0.019509
   125  H    0.019202
   126  H    0.008290
   127  H    0.015234
   128  H    0.002457
   129  H    0.021604
   130  H    0.025887
   131  H    0.027418
   132  H    0.018907
   133  H    0.018835
   134  H    0.031771
   135  H    0.020697
   136  H    0.019631
   137  H    0.022654
   138  H    0.017680
   139  H    0.012331
   140  H    0.007990
 Sum of Mulliken charges =   0.00000

 Dipole moment (field-independent basis, Debye):
    X=             -2.6115    Y=             10.5705    Z=             -1.0226  Tot=             10.9363
 N-N= 4.475691104574D+03 E-N= 0.000000000000D+00  KE=-9.624747708165D+03
 Leave Link  601 at Thu May  5 14:04:56 2022, MaxMem=  6710886400 cpu:               0.8 elap:               0.0
 (Enter /sw/apps/gaussian-16.0/g16/l9999.exe)
 1\1\GINC-BP1-COMPUTE069\SP\RZINDO CIS\STO-3G\C55H74Mg1N4O6\OF15641\05-
 May-2022\0\\#p ZINDO=(nstates=5)\\step_901_chromophore_26 ZINDO\\0,1\M
 g,0,-8.989,19.048,42.666\C,0,-5.622,18.709,42.857\C,0,-8.609,22.398,41
 .897\C,0,-12.406,19.322,42.255\C,0,-9.283,15.555,42.546\N,0,-7.3,20.34
 8,42.393\C,0,-5.994,20.019,42.518\C,0,-5.066,21.206,42.25\C,0,-6.093,2
 2.347,42.117\C,0,-7.452,21.658,42.161\C,0,-5.955,23.544,43.145\C,0,-4.
 216,20.891,40.982\C,0,-4.787,20.062,39.747\C,0,-4.334,20.517,38.353\O,

 Normal termination of Gaussian 16 at Thu May  5 14:04:57 2022.
