 Gaussian 16, Revision A.03,
 Gaussian 16:  ES64L-G16RevA.03 25-Dec-2016

 ------------------------------
 #p blyp/Def2SVP td=(nstates=5)
 ------------------------------

 --------------------------------------------------
 step_1401_chromophore_4 TDDFT with blyp functional
 --------------------------------------------------
 Symbolic Z-matrix:
 Charge =  0 Multiplicity = 1

                         Standard orientation:
 ---------------------------------------------------------------------
 Center     Atomic      Atomic             Coordinates (Angstroms)
 Number     Number       Type             X           Y           Z
 ---------------------------------------------------------------------
      1         12           0        5.858990    0.604451    0.184149
      2          6           0        3.655340   -2.186593    0.235597
      3          6           0        3.253060    2.561987   -0.608006
      4          6           0        7.992796    2.983668   -0.136334
      5          6           0        8.622644   -1.715008    0.565471
      6          7           0        3.730692    0.141574   -0.313778
      7          6           0        3.003240   -0.995504   -0.017127
      8          6           0        1.450119   -0.671564   -0.070869
      9          6           0        1.404344    0.800797   -0.472568
     10          6           0        2.876037    1.191932   -0.455474
     11          6           0        0.857476    1.082446   -1.916189
     12          6           0        0.654156   -1.067603    1.289022
     13          6           0       -0.624686   -1.995451    1.180993
     14          6           0       -1.649641   -1.623486    0.098691
     15          8           0       -1.844063   -0.496918   -0.305972
     16          8           0       -2.206373   -2.711104   -0.508895
     17          7           0        5.629914    2.518176   -0.280170
     18          6           0        4.507621    3.172910   -0.563841
     19          6           0        4.795733    4.536939   -0.719287
     20          6           0        6.244459    4.771553   -0.565803
     21          6           0        6.715026    3.417138   -0.266561
     22          6           0        3.648275    5.539623   -0.983574
     23          6           0        6.995439    6.028424   -0.504835
     24          8           0        8.230259    6.096167   -0.459715
     25          6           0        6.233015    7.357524   -0.530611
     26          7           0        8.040431    0.622754    0.260451
     27          6           0        8.618129    1.775231    0.075346
     28          6           0       10.182924    1.599747    0.098320
     29          6           0       10.359292    0.094536    0.427886
     30          6           0        8.939572   -0.395381    0.429417
     31          6           0       10.895138    2.086785   -1.193715
     32          6           0       11.046946   -0.014805    1.824887
     33          6           0       12.042007   -1.208686    1.796122
     34          7           0        6.160016   -1.479354    0.329315
     35          6           0        7.306515   -2.231508    0.549445
     36          6           0        6.890294   -3.634216    0.710886
     37          6           0        5.500242   -3.584021    0.622547
     38          6           0        5.073129   -2.305915    0.351900
     39          6           0        7.767697   -4.769585    0.915998
     40          6           0        4.331339   -4.432524    0.691908
     41          8           0        4.325080   -5.603301    0.929543
     42          6           0        2.994726   -3.539817    0.462921
     43          6           0        2.332076   -4.008750   -0.809865
     44          8           0        2.897356   -3.999532   -1.876512
     45          8           0        0.928084   -4.181601   -0.658111
     46          6           0        0.226989   -4.677051   -1.888332
     47          6           0       -3.325268   -2.452707   -1.427919
     48          6           0       -4.575058   -2.039413   -0.735980
     49          6           0       -5.650586   -2.683855   -0.230727
     50          6           0       -5.882453   -4.261637   -0.153037
     51          6           0       -6.841149   -1.861340    0.399054
     52          6           0       -7.617037   -1.161727   -0.638430
     53          6           0       -7.734687    0.336158   -0.569098
     54          6           0       -9.161354    0.877856   -0.313130
     55          6           0       -9.841129    0.928113   -1.727794
     56          6           0       -9.045590    2.230378    0.467583
     57          6           0       -9.624140    2.145228    1.874093
     58          6           0      -10.858767    3.034579    2.070122
     59          6           0      -12.157984    2.238528    2.366073
     60          6           0      -12.975125    2.699953    3.591866
     61          6           0      -13.119568    2.206297    1.087703
     62          6           0      -13.610502    0.818811    0.728209
     63          6           0      -15.091717    0.913616    0.142143
     64          6           0      -15.047715    0.061576   -1.230261
     65          6           0      -15.961646    0.795234   -2.232654
     66          6           0      -15.593774   -1.405563   -0.973654
     67          1           0        2.396975    3.185044   -0.878251
     68          1           0        8.719278    3.798048   -0.179357
     69          1           0        9.416461   -2.431626    0.784667
     70          1           0        0.996021   -1.313768   -0.825222
     71          1           0        0.943460    1.369058    0.334185
     72          1           0        0.097922    0.381394   -2.260791
     73          1           0        1.725888    0.973228   -2.565559
     74          1           0        0.537673    2.125054   -1.931112
     75          1           0        0.389628   -0.219254    1.919999
     76          1           0        1.392712   -1.623818    1.867358
     77          1           0       -1.195490   -1.721490    2.069012
     78          1           0       -0.446830   -3.066011    1.075833
     79          1           0        3.585971    6.183142   -0.105657
     80          1           0        2.664222    5.079358   -1.076494
     81          1           0        3.774127    6.203111   -1.839176
     82          1           0        5.655916    7.225634    0.385086
     83          1           0        5.663632    7.382242   -1.459060
     84          1           0        6.848237    8.257629   -0.519206
     85          1           0       10.624731    2.300113    0.806456
     86          1           0       10.953799   -0.344001   -0.373531
     87          1           0       11.254111    1.339347   -1.902036
     88          1           0       11.817528    2.585225   -0.898810
     89          1           0       10.356400    2.840068   -1.769567
     90          1           0       10.376933   -0.342088    2.620361
     91          1           0       11.574655    0.865504    2.190493
     92          1           0       13.047293   -0.787389    1.759710
     93          1           0       11.952170   -1.886861    0.947356
     94          1           0       11.937979   -1.794015    2.709248
     95          1           0        7.269649   -5.587715    1.434403
     96          1           0        8.573911   -4.415799    1.558554
     97          1           0        8.166922   -4.970309   -0.078808
     98          1           0        2.377347   -3.570075    1.361054
     99          1           0       -0.373842   -3.891960   -2.347816
    100          1           0       -0.408819   -5.461256   -1.478058
    101          1           0        0.960239   -5.124543   -2.559630
    102          1           0       -3.576814   -3.381584   -1.941547
    103          1           0       -2.985219   -1.707086   -2.146794
    104          1           0       -4.615140   -0.955589   -0.627942
    105          1           0       -6.241227   -4.686614    0.784575
    106          1           0       -4.919266   -4.708068   -0.398233
    107          1           0       -6.524344   -4.575873   -0.975923
    108          1           0       -6.365151   -1.198853    1.122392
    109          1           0       -7.481874   -2.458086    1.047992
    110          1           0       -8.581484   -1.668158   -0.619859
    111          1           0       -7.202351   -1.501976   -1.587173
    112          1           0       -7.297842    0.726850   -1.488094
    113          1           0       -7.099076    0.620191    0.269357
    114          1           0       -9.738033    0.117266    0.213304
    115          1           0       -9.490704    1.736155   -2.368669
    116          1           0      -10.917091    0.990148   -1.558569
    117          1           0       -9.547154    0.009230   -2.235601
    118          1           0       -9.546118    3.020344   -0.092606
    119          1           0       -8.039621    2.623610    0.608360
    120          1           0       -8.782039    2.316011    2.544864
    121          1           0       -9.871327    1.107097    2.097932
    122          1           0      -11.033913    3.784100    1.298094
    123          1           0      -10.667477    3.602889    2.979903
    124          1           0      -11.946099    1.198036    2.609991
    125          1           0      -12.971158    3.788441    3.533645
    126          1           0      -12.585890    2.398368    4.563461
    127          1           0      -13.985249    2.290782    3.609448
    128          1           0      -12.522311    2.546747    0.241602
    129          1           0      -13.926888    2.915725    1.267569
    130          1           0      -13.662630    0.198850    1.623222
    131          1           0      -12.883793    0.387220    0.041057
    132          1           0      -15.401711    1.944495   -0.030442
    133          1           0      -15.842572    0.488462    0.808796
    134          1           0      -14.055178   -0.074359   -1.660378
    135          1           0      -15.284734    0.854049   -3.084199
    136          1           0      -16.202063    1.804053   -1.896046
    137          1           0      -16.941868    0.394776   -2.491714
    138          1           0      -16.259181   -1.398579   -0.109937
    139          1           0      -14.847212   -2.182266   -0.806448
    140          1           0      -16.220309   -1.796291   -1.775394
 ---------------------------------------------------------------------

 SCF Done:  E(RB-LYP) =  -3007.37411937     A.U. after   21 cycles

 Excitation energies and oscillator strengths:

 Excited State   1:      Singlet-A      1.8337 eV  676.14 nm  f=0.0981  <S**2>=0.000
     244 -> 247        0.58241
     245 -> 248       -0.10267
     246 -> 247       -0.38980
 This state for optimization and/or second-order correction.
 Total Energy, E(TD-HF/TD-DFT) =  -3007.30673235
 Copying the excited state density for this state as the 1-particle RhoCI density.

 Excited State   2:      Singlet-A      1.8448 eV  672.08 nm  f=0.2131  <S**2>=0.000
     244 -> 247        0.39989
     245 -> 248        0.15421
     246 -> 247        0.56683
     246 <- 247       -0.12130

 Excited State   3:      Singlet-A      1.9400 eV  639.10 nm  f=0.0025  <S**2>=0.000
     243 -> 247        0.70523

 Excited State   4:      Singlet-A      2.0729 eV  598.13 nm  f=0.0813  <S**2>=0.000
     245 -> 247        0.65115
     246 -> 248       -0.23572
     246 -> 249       -0.10378

 Excited State   5:      Singlet-A      2.4565 eV  504.71 nm  f=0.0056  <S**2>=0.000
     242 -> 247        0.69738

 The electronic state is 1-A.
 Alpha  occ. eigenvalues --  -46.26544 -18.82110 -18.81766 -18.77169 -18.76768
 Alpha  occ. eigenvalues --  -18.75522 -18.74979 -14.03029 -14.02547 -14.00642
 Alpha  occ. eigenvalues --  -14.00379 -10.04117 -10.04082  -9.99482  -9.99160
 Alpha  occ. eigenvalues --   -9.98339  -9.97372  -9.96289  -9.96231  -9.95726
 Alpha  occ. eigenvalues --   -9.95714  -9.95701  -9.95058  -9.95019  -9.94673
 Alpha  occ. eigenvalues --   -9.94312  -9.94255  -9.94197  -9.93992  -9.93944
 Alpha  occ. eigenvalues --   -9.93762  -9.93655  -9.93367  -9.93362  -9.93197
 Alpha  occ. eigenvalues --   -9.93156  -9.93034  -9.92981  -9.92684  -9.92607
 Alpha  occ. eigenvalues --   -9.92548  -9.92468  -9.92389  -9.92249  -9.91981
 Alpha  occ. eigenvalues --   -9.91959  -9.91956  -9.91760  -9.91677  -9.91607
 Alpha  occ. eigenvalues --   -9.91542  -9.91490  -9.91476  -9.91226  -9.91126
 Alpha  occ. eigenvalues --   -9.91049  -9.91017  -9.90914  -9.90873  -9.90825
 Alpha  occ. eigenvalues --   -9.90796  -9.90792  -9.90790  -9.90661  -9.90394
 Alpha  occ. eigenvalues --   -9.89763  -2.91263  -1.71684  -1.71177  -1.70949
 Alpha  occ. eigenvalues --   -0.98333  -0.96635  -0.92520  -0.90382  -0.90102
 Alpha  occ. eigenvalues --   -0.89568  -0.86964  -0.85897  -0.85381  -0.84507
 Alpha  occ. eigenvalues --   -0.75087  -0.73943  -0.72736  -0.72638  -0.71813
 Alpha  occ. eigenvalues --   -0.71560  -0.71437  -0.70635  -0.70353  -0.70123
 Alpha  occ. eigenvalues --   -0.69857  -0.69231  -0.68330  -0.67139  -0.67115
 Alpha  occ. eigenvalues --   -0.66453  -0.65802  -0.65024  -0.64965  -0.64244
 Alpha  occ. eigenvalues --   -0.64044  -0.62426  -0.61913  -0.61656  -0.60659
 Alpha  occ. eigenvalues --   -0.60342  -0.59818  -0.59738  -0.59510  -0.58745
 Alpha  occ. eigenvalues --   -0.58303  -0.57481  -0.56574  -0.55890  -0.54044
 Alpha  occ. eigenvalues --   -0.53943  -0.53693  -0.52995  -0.52031  -0.51761
 Alpha  occ. eigenvalues --   -0.51018  -0.50780  -0.50552  -0.50309  -0.50186
 Alpha  occ. eigenvalues --   -0.49831  -0.49617  -0.48888  -0.47894  -0.46642
 Alpha  occ. eigenvalues --   -0.45848  -0.45754  -0.45151  -0.44864  -0.44642
 Alpha  occ. eigenvalues --   -0.44115  -0.43779  -0.42881  -0.42579  -0.41899
 Alpha  occ. eigenvalues --   -0.41730  -0.41389  -0.41125  -0.40954  -0.40726
 Alpha  occ. eigenvalues --   -0.40420  -0.40382  -0.40344  -0.39971  -0.39890
 Alpha  occ. eigenvalues --   -0.39641  -0.39576  -0.39508  -0.39241  -0.39150
 Alpha  occ. eigenvalues --   -0.38859  -0.38713  -0.38418  -0.38308  -0.38163
 Alpha  occ. eigenvalues --   -0.37827  -0.37746  -0.37475  -0.37357  -0.37209
 Alpha  occ. eigenvalues --   -0.36857  -0.36632  -0.36482  -0.36432  -0.36153
 Alpha  occ. eigenvalues --   -0.36127  -0.35946  -0.35787  -0.35678  -0.35582
 Alpha  occ. eigenvalues --   -0.35377  -0.35196  -0.35139  -0.34779  -0.34546
 Alpha  occ. eigenvalues --   -0.34322  -0.34229  -0.34174  -0.33964  -0.33830
 Alpha  occ. eigenvalues --   -0.33719  -0.33660  -0.33525  -0.33277  -0.33228
 Alpha  occ. eigenvalues --   -0.32924  -0.32738  -0.32551  -0.32469  -0.32282
 Alpha  occ. eigenvalues --   -0.32172  -0.31950  -0.31758  -0.31518  -0.31469
 Alpha  occ. eigenvalues --   -0.31349  -0.31220  -0.30995  -0.30783  -0.30621
 Alpha  occ. eigenvalues --   -0.30463  -0.30150  -0.30004  -0.29800  -0.29627
 Alpha  occ. eigenvalues --   -0.29552  -0.29468  -0.29026  -0.28887  -0.28722
 Alpha  occ. eigenvalues --   -0.28668  -0.28411  -0.28192  -0.28117  -0.27668
 Alpha  occ. eigenvalues --   -0.27492  -0.27360  -0.27308  -0.26947  -0.26396
 Alpha  occ. eigenvalues --   -0.26342  -0.26011  -0.25763  -0.25363  -0.25170
 Alpha  occ. eigenvalues --   -0.24961  -0.24907  -0.24071  -0.23984  -0.22750
 Alpha  occ. eigenvalues --   -0.22640  -0.22450  -0.22192  -0.21803  -0.21112
 Alpha  occ. eigenvalues --   -0.20586  -0.19891  -0.18402  -0.17992  -0.17187
 Alpha  occ. eigenvalues --   -0.15733
 Alpha virt. eigenvalues --   -0.11343  -0.06760  -0.05373  -0.04097  -0.03645
 Alpha virt. eigenvalues --   -0.03171  -0.02660  -0.02094  -0.00847   0.00712
 Alpha virt. eigenvalues --    0.01723   0.01963   0.01971   0.02597   0.02886

 Mulliken charges:
               1
     1  Mg   0.689027
     2  C   -0.087303
     3  C   -0.078443
     4  C   -0.036596
     5  C   -0.093704
     6  N   -0.207835
     7  C   -0.091252
     8  C    0.053058
     9  C    0.050538
    10  C   -0.035613
    11  C    0.131082
    12  C    0.110559
    13  C    0.131905
    14  C    0.036424
    15  O   -0.194007
    16  O   -0.264468
    17  N   -0.341958
    18  C    0.194621
    19  C   -0.135173
    20  C    0.068814
    21  C    0.113633
    22  C    0.162010
    23  C   -0.106625
    24  O   -0.175907
    25  C    0.134233
    26  N   -0.169374
    27  C    0.017823
    28  C   -0.000925
    29  C    0.081743
    30  C    0.040555
    31  C    0.093460
    32  C    0.090616
    33  C    0.034289
    34  N   -0.258175
    35  C    0.103505
    36  C   -0.216219
    37  C    0.125424
    38  C    0.147713
    39  C    0.198376
    40  C   -0.110182
    41  O   -0.100598
    42  C    0.102037
    43  C    0.136566
    44  O   -0.159567
    45  O   -0.315134
    46  C    0.202004
    47  C    0.368546
    48  C   -0.133873
    49  C   -0.150574
    50  C    0.112617
    51  C    0.121108
    52  C    0.080479
    53  C    0.113172
    54  C   -0.070154
    55  C    0.087999
    56  C    0.123338
    57  C    0.069223
    58  C    0.151887
    59  C   -0.096863
    60  C    0.096122
    61  C    0.085592
    62  C    0.067712
    63  C    0.082677
    64  C   -0.104722
    65  C    0.104516
    66  C    0.083039
    67  H   -0.080661
    68  H   -0.051065
    69  H   -0.069660
    70  H   -0.015922
    71  H   -0.024210
    72  H    0.005861
    73  H   -0.005089
    74  H    0.001192
    75  H   -0.020219
    76  H   -0.026438
    77  H   -0.002499
    78  H    0.017439
    79  H   -0.004902
    80  H   -0.018318
    81  H    0.004436
    82  H    0.008443
    83  H    0.008202
    84  H   -0.008294
    85  H   -0.018875
    86  H   -0.016089
    87  H   -0.016965
    88  H   -0.022438
    89  H    0.001583
    90  H   -0.017480
    91  H   -0.011097
    92  H   -0.010101
    93  H    0.000032
    94  H   -0.012460
    95  H    0.009602
    96  H   -0.012759
    97  H    0.011680
    98  H   -0.001861
    99  H    0.026640
   100  H    0.015557
   101  H    0.028909
   102  H   -0.014965
   103  H   -0.012604
   104  H   -0.021033
   105  H    0.012412
   106  H   -0.013442
   107  H    0.000066
   108  H   -0.021653
   109  H   -0.042698
   110  H   -0.040264
   111  H   -0.032818
   112  H   -0.028397
   113  H   -0.038811
   114  H   -0.027269
   115  H   -0.015266
   116  H   -0.007741
   117  H   -0.019244
   118  H   -0.044594
   119  H   -0.031835
   120  H   -0.038276
   121  H   -0.039427
   122  H   -0.025344
   123  H   -0.053705
   124  H   -0.038758
   125  H   -0.015070
   126  H   -0.020953
   127  H   -0.018956
   128  H   -0.037869
   129  H   -0.030939
   130  H   -0.028926
   131  H   -0.012377
   132  H   -0.015668
   133  H   -0.023861
   134  H   -0.017157
   135  H   -0.016019
   136  H   -0.027921
   137  H   -0.012026
   138  H   -0.023131
   139  H   -0.017466
   140  H   -0.020969
 Sum of Mulliken charges =  -0.00000

 Dipole moment (field-independent basis, Debye):
    X=             -3.7768    Y=              0.7586    Z=              1.4829  Tot=              4.1278
 Quadrupole moment (field-independent basis, Debye-Ang):
   XX=           -387.9492   YY=           -428.3651   ZZ=           -401.6507
   XY=              2.2934   XZ=             10.8710   YZ=              2.7705

 Normal termination of Gaussian 16 at Wed May  4 06:36:40 2022.
