 Gaussian 16, Revision A.03,
 Gaussian 16:  ES64L-G16RevA.03 25-Dec-2016

 -----------------------------------
 #p cam-b3lyp/Def2SVP td=(nstates=5)
 -----------------------------------

 -------------------------------------------------------
 step_1401_chromophore_4 TDDFT with cam-b3lyp functional
 -------------------------------------------------------
 Symbolic Z-matrix:
 Charge =  0 Multiplicity = 1

                         Standard orientation:
 ---------------------------------------------------------------------
 Center     Atomic      Atomic             Coordinates (Angstroms)
 Number     Number       Type             X           Y           Z
 ---------------------------------------------------------------------
      1         12           0        5.858990    0.604451    0.184149
      2          6           0        3.655340   -2.186593    0.235597
      3          6           0        3.253060    2.561987   -0.608006
      4          6           0        7.992796    2.983668   -0.136334
      5          6           0        8.622644   -1.715008    0.565471
      6          7           0        3.730692    0.141574   -0.313778
      7          6           0        3.003240   -0.995504   -0.017127
      8          6           0        1.450119   -0.671564   -0.070869
      9          6           0        1.404344    0.800797   -0.472568
     10          6           0        2.876037    1.191932   -0.455474
     11          6           0        0.857476    1.082446   -1.916189
     12          6           0        0.654156   -1.067603    1.289022
     13          6           0       -0.624686   -1.995451    1.180993
     14          6           0       -1.649641   -1.623486    0.098691
     15          8           0       -1.844063   -0.496918   -0.305972
     16          8           0       -2.206373   -2.711104   -0.508895
     17          7           0        5.629914    2.518176   -0.280170
     18          6           0        4.507621    3.172910   -0.563841
     19          6           0        4.795733    4.536939   -0.719287
     20          6           0        6.244459    4.771553   -0.565803
     21          6           0        6.715026    3.417138   -0.266561
     22          6           0        3.648275    5.539623   -0.983574
     23          6           0        6.995439    6.028424   -0.504835
     24          8           0        8.230259    6.096167   -0.459715
     25          6           0        6.233015    7.357524   -0.530611
     26          7           0        8.040431    0.622754    0.260451
     27          6           0        8.618129    1.775231    0.075346
     28          6           0       10.182924    1.599747    0.098320
     29          6           0       10.359292    0.094536    0.427886
     30          6           0        8.939572   -0.395381    0.429417
     31          6           0       10.895138    2.086785   -1.193715
     32          6           0       11.046946   -0.014805    1.824887
     33          6           0       12.042007   -1.208686    1.796122
     34          7           0        6.160016   -1.479354    0.329315
     35          6           0        7.306515   -2.231508    0.549445
     36          6           0        6.890294   -3.634216    0.710886
     37          6           0        5.500242   -3.584021    0.622547
     38          6           0        5.073129   -2.305915    0.351900
     39          6           0        7.767697   -4.769585    0.915998
     40          6           0        4.331339   -4.432524    0.691908
     41          8           0        4.325080   -5.603301    0.929543
     42          6           0        2.994726   -3.539817    0.462921
     43          6           0        2.332076   -4.008750   -0.809865
     44          8           0        2.897356   -3.999532   -1.876512
     45          8           0        0.928084   -4.181601   -0.658111
     46          6           0        0.226989   -4.677051   -1.888332
     47          6           0       -3.325268   -2.452707   -1.427919
     48          6           0       -4.575058   -2.039413   -0.735980
     49          6           0       -5.650586   -2.683855   -0.230727
     50          6           0       -5.882453   -4.261637   -0.153037
     51          6           0       -6.841149   -1.861340    0.399054
     52          6           0       -7.617037   -1.161727   -0.638430
     53          6           0       -7.734687    0.336158   -0.569098
     54          6           0       -9.161354    0.877856   -0.313130
     55          6           0       -9.841129    0.928113   -1.727794
     56          6           0       -9.045590    2.230378    0.467583
     57          6           0       -9.624140    2.145228    1.874093
     58          6           0      -10.858767    3.034579    2.070122
     59          6           0      -12.157984    2.238528    2.366073
     60          6           0      -12.975125    2.699953    3.591866
     61          6           0      -13.119568    2.206297    1.087703
     62          6           0      -13.610502    0.818811    0.728209
     63          6           0      -15.091717    0.913616    0.142143
     64          6           0      -15.047715    0.061576   -1.230261
     65          6           0      -15.961646    0.795234   -2.232654
     66          6           0      -15.593774   -1.405563   -0.973654
     67          1           0        2.396975    3.185044   -0.878251
     68          1           0        8.719278    3.798048   -0.179357
     69          1           0        9.416461   -2.431626    0.784667
     70          1           0        0.996021   -1.313768   -0.825222
     71          1           0        0.943460    1.369058    0.334185
     72          1           0        0.097922    0.381394   -2.260791
     73          1           0        1.725888    0.973228   -2.565559
     74          1           0        0.537673    2.125054   -1.931112
     75          1           0        0.389628   -0.219254    1.919999
     76          1           0        1.392712   -1.623818    1.867358
     77          1           0       -1.195490   -1.721490    2.069012
     78          1           0       -0.446830   -3.066011    1.075833
     79          1           0        3.585971    6.183142   -0.105657
     80          1           0        2.664222    5.079358   -1.076494
     81          1           0        3.774127    6.203111   -1.839176
     82          1           0        5.655916    7.225634    0.385086
     83          1           0        5.663632    7.382242   -1.459060
     84          1           0        6.848237    8.257629   -0.519206
     85          1           0       10.624731    2.300113    0.806456
     86          1           0       10.953799   -0.344001   -0.373531
     87          1           0       11.254111    1.339347   -1.902036
     88          1           0       11.817528    2.585225   -0.898810
     89          1           0       10.356400    2.840068   -1.769567
     90          1           0       10.376933   -0.342088    2.620361
     91          1           0       11.574655    0.865504    2.190493
     92          1           0       13.047293   -0.787389    1.759710
     93          1           0       11.952170   -1.886861    0.947356
     94          1           0       11.937979   -1.794015    2.709248
     95          1           0        7.269649   -5.587715    1.434403
     96          1           0        8.573911   -4.415799    1.558554
     97          1           0        8.166922   -4.970309   -0.078808
     98          1           0        2.377347   -3.570075    1.361054
     99          1           0       -0.373842   -3.891960   -2.347816
    100          1           0       -0.408819   -5.461256   -1.478058
    101          1           0        0.960239   -5.124543   -2.559630
    102          1           0       -3.576814   -3.381584   -1.941547
    103          1           0       -2.985219   -1.707086   -2.146794
    104          1           0       -4.615140   -0.955589   -0.627942
    105          1           0       -6.241227   -4.686614    0.784575
    106          1           0       -4.919266   -4.708068   -0.398233
    107          1           0       -6.524344   -4.575873   -0.975923
    108          1           0       -6.365151   -1.198853    1.122392
    109          1           0       -7.481874   -2.458086    1.047992
    110          1           0       -8.581484   -1.668158   -0.619859
    111          1           0       -7.202351   -1.501976   -1.587173
    112          1           0       -7.297842    0.726850   -1.488094
    113          1           0       -7.099076    0.620191    0.269357
    114          1           0       -9.738033    0.117266    0.213304
    115          1           0       -9.490704    1.736155   -2.368669
    116          1           0      -10.917091    0.990148   -1.558569
    117          1           0       -9.547154    0.009230   -2.235601
    118          1           0       -9.546118    3.020344   -0.092606
    119          1           0       -8.039621    2.623610    0.608360
    120          1           0       -8.782039    2.316011    2.544864
    121          1           0       -9.871327    1.107097    2.097932
    122          1           0      -11.033913    3.784100    1.298094
    123          1           0      -10.667477    3.602889    2.979903
    124          1           0      -11.946099    1.198036    2.609991
    125          1           0      -12.971158    3.788441    3.533645
    126          1           0      -12.585890    2.398368    4.563461
    127          1           0      -13.985249    2.290782    3.609448
    128          1           0      -12.522311    2.546747    0.241602
    129          1           0      -13.926888    2.915725    1.267569
    130          1           0      -13.662630    0.198850    1.623222
    131          1           0      -12.883793    0.387220    0.041057
    132          1           0      -15.401711    1.944495   -0.030442
    133          1           0      -15.842572    0.488462    0.808796
    134          1           0      -14.055178   -0.074359   -1.660378
    135          1           0      -15.284734    0.854049   -3.084199
    136          1           0      -16.202063    1.804053   -1.896046
    137          1           0      -16.941868    0.394776   -2.491714
    138          1           0      -16.259181   -1.398579   -0.109937
    139          1           0      -14.847212   -2.182266   -0.806448
    140          1           0      -16.220309   -1.796291   -1.775394
 ---------------------------------------------------------------------

 SCF Done:  E(RCAM-B3LYP) =  -3007.17154742     A.U. after   18 cycles

 Excitation energies and oscillator strengths:

 Excited State   1:      Singlet-A      1.7560 eV  706.06 nm  f=0.3827  <S**2>=0.000
     245 -> 248        0.17471
     246 -> 247        0.68548
     245 <- 248        0.10234
 This state for optimization and/or second-order correction.
 Total Energy, E(TD-HF/TD-DFT) =  -3007.10701524
 Copying the excited state density for this state as the 1-particle RhoCI density.

 Excited State   2:      Singlet-A      2.2781 eV  544.24 nm  f=0.1218  <S**2>=0.000
     245 -> 247        0.64134
     246 -> 248       -0.27900

 Excited State   3:      Singlet-A      3.3488 eV  370.24 nm  f=0.0195  <S**2>=0.000
     242 -> 247       -0.21409
     244 -> 247        0.64825

 Excited State   4:      Singlet-A      3.4207 eV  362.45 nm  f=0.0001  <S**2>=0.000
     241 -> 247        0.55308
     241 -> 248       -0.21048
     241 -> 249        0.29230
     241 -> 251       -0.12277
     242 -> 247       -0.13148

 Excited State   5:      Singlet-A      3.4924 eV  355.01 nm  f=0.1577  <S**2>=0.000
     241 -> 247        0.11565
     242 -> 247        0.44797
     243 -> 247        0.12995
     244 -> 247        0.22389
     245 -> 247        0.12783
     246 -> 248        0.43272

 The electronic state is 1-A.
 Alpha  occ. eigenvalues --  -46.88030 -19.24964 -19.24646 -19.20252 -19.19705
 Alpha  occ. eigenvalues --  -19.18465 -19.18392 -14.41835 -14.41443 -14.39185
 Alpha  occ. eigenvalues --  -14.38556 -10.39585 -10.39303 -10.34967 -10.34180
 Alpha  occ. eigenvalues --  -10.32458 -10.31357 -10.30984 -10.30538 -10.30428
 Alpha  occ. eigenvalues --  -10.30322 -10.29732 -10.29613 -10.29397 -10.28953
 Alpha  occ. eigenvalues --  -10.28821 -10.28619 -10.28254 -10.27920 -10.27915
 Alpha  occ. eigenvalues --  -10.27889 -10.27739 -10.27688 -10.27332 -10.27204
 Alpha  occ. eigenvalues --  -10.27187 -10.27138 -10.26754 -10.26623 -10.26511
 Alpha  occ. eigenvalues --  -10.26438 -10.26324 -10.26213 -10.26018 -10.25990
 Alpha  occ. eigenvalues --  -10.25845 -10.25701 -10.25663 -10.25363 -10.25244
 Alpha  occ. eigenvalues --  -10.25200 -10.25176 -10.25106 -10.25084 -10.24843
 Alpha  occ. eigenvalues --  -10.24796 -10.24687 -10.24523 -10.24497 -10.24465
 Alpha  occ. eigenvalues --  -10.24411 -10.24385 -10.24355 -10.24337 -10.23962
 Alpha  occ. eigenvalues --  -10.23361  -3.16658  -1.91554  -1.91133  -1.90947
 Alpha  occ. eigenvalues --   -1.16782  -1.15146  -1.10713  -1.09027  -1.07923
 Alpha  occ. eigenvalues --   -1.07372  -1.04734  -1.03687  -1.02965  -1.01802
 Alpha  occ. eigenvalues --   -0.92018  -0.90803  -0.89467  -0.89407  -0.88474
 Alpha  occ. eigenvalues --   -0.88243  -0.88097  -0.87183  -0.86907  -0.86868
 Alpha  occ. eigenvalues --   -0.86327  -0.85561  -0.84619  -0.83250  -0.83232
 Alpha  occ. eigenvalues --   -0.82534  -0.81950  -0.81111  -0.80814  -0.80048
 Alpha  occ. eigenvalues --   -0.79866  -0.78196  -0.77506  -0.77115  -0.76001
 Alpha  occ. eigenvalues --   -0.75646  -0.75152  -0.75029  -0.74771  -0.73817
 Alpha  occ. eigenvalues --   -0.73490  -0.72371  -0.71466  -0.70721  -0.68819
 Alpha  occ. eigenvalues --   -0.68458  -0.68308  -0.67358  -0.66353  -0.65847
 Alpha  occ. eigenvalues --   -0.65140  -0.64932  -0.64622  -0.64239  -0.64176
 Alpha  occ. eigenvalues --   -0.63829  -0.63413  -0.62819  -0.61542  -0.60449
 Alpha  occ. eigenvalues --   -0.59310  -0.59216  -0.58605  -0.58311  -0.58078
 Alpha  occ. eigenvalues --   -0.57379  -0.57058  -0.56166  -0.55859  -0.54893
 Alpha  occ. eigenvalues --   -0.54805  -0.54389  -0.54101  -0.53769  -0.53602
 Alpha  occ. eigenvalues --   -0.53300  -0.53137  -0.52967  -0.52924  -0.52725
 Alpha  occ. eigenvalues --   -0.52478  -0.52291  -0.52105  -0.52073  -0.51567
 Alpha  occ. eigenvalues --   -0.51483  -0.51332  -0.51006  -0.50596  -0.50485
 Alpha  occ. eigenvalues --   -0.50198  -0.50121  -0.50045  -0.49890  -0.49436
 Alpha  occ. eigenvalues --   -0.49284  -0.48892  -0.48784  -0.48720  -0.48455
 Alpha  occ. eigenvalues --   -0.48360  -0.48133  -0.47941  -0.47692  -0.47641
 Alpha  occ. eigenvalues --   -0.47596  -0.47383  -0.47109  -0.46623  -0.46481
 Alpha  occ. eigenvalues --   -0.46249  -0.46206  -0.45971  -0.45881  -0.45750
 Alpha  occ. eigenvalues --   -0.45433  -0.45412  -0.45240  -0.45003  -0.44914
 Alpha  occ. eigenvalues --   -0.44679  -0.44345  -0.44260  -0.44120  -0.43940
 Alpha  occ. eigenvalues --   -0.43813  -0.43581  -0.43408  -0.43178  -0.43111
 Alpha  occ. eigenvalues --   -0.42741  -0.42620  -0.42419  -0.42333  -0.42164
 Alpha  occ. eigenvalues --   -0.42032  -0.41839  -0.41324  -0.41169  -0.40965
 Alpha  occ. eigenvalues --   -0.40797  -0.40587  -0.40213  -0.40065  -0.39755
 Alpha  occ. eigenvalues --   -0.39674  -0.39453  -0.39250  -0.39089  -0.38624
 Alpha  occ. eigenvalues --   -0.38477  -0.38193  -0.38174  -0.37765  -0.37362
 Alpha  occ. eigenvalues --   -0.37194  -0.36943  -0.36825  -0.36442  -0.36382
 Alpha  occ. eigenvalues --   -0.35932  -0.35655  -0.34783  -0.34437  -0.34041
 Alpha  occ. eigenvalues --   -0.33623  -0.33426  -0.32685  -0.31118  -0.31013
 Alpha  occ. eigenvalues --   -0.30568  -0.30139  -0.29946  -0.28818  -0.23939
 Alpha  occ. eigenvalues --   -0.21058
 Alpha virt. eigenvalues --   -0.08429  -0.01499   0.01042   0.02710   0.03163
 Alpha virt. eigenvalues --    0.03737   0.04709   0.05252   0.06507   0.07237
 Alpha virt. eigenvalues --    0.07839   0.08379   0.08858   0.08978   0.09286

 Mulliken charges:
               1
     1  Mg   0.822480
     2  C   -0.112990
     3  C   -0.093968
     4  C   -0.064249
     5  C   -0.089153
     6  N   -0.277022
     7  C   -0.050509
     8  C    0.008820
     9  C   -0.009811
    10  C   -0.010673
    11  C    0.075507
    12  C    0.066499
    13  C    0.057289
    14  C    0.119553
    15  O   -0.235252
    16  O   -0.328843
    17  N   -0.436553
    18  C    0.204712
    19  C   -0.141869
    20  C    0.005255
    21  C    0.143205
    22  C    0.107836
    23  C   -0.030061
    24  O   -0.215935
    25  C    0.057899
    26  N   -0.241948
    27  C    0.043579
    28  C   -0.048993
    29  C    0.020237
    30  C    0.051075
    31  C    0.035563
    32  C    0.036822
    33  C   -0.025789
    34  N   -0.345562
    35  C    0.102622
    36  C   -0.208339
    37  C    0.037013
    38  C    0.180260
    39  C    0.139503
    40  C   -0.007868
    41  O   -0.142394
    42  C    0.027771
    43  C    0.225172
    44  O   -0.194897
    45  O   -0.381401
    46  C    0.169277
    47  C    0.330406
    48  C   -0.158780
    49  C   -0.173563
    50  C    0.058092
    51  C    0.064695
    52  C    0.020850
    53  C    0.057573
    54  C   -0.125257
    55  C    0.041390
    56  C    0.065053
    57  C    0.017831
    58  C    0.086171
    59  C   -0.148762
    60  C    0.040196
    61  C    0.035423
    62  C    0.020318
    63  C    0.031472
    64  C   -0.163885
    65  C    0.044887
    66  C    0.028131
    67  H   -0.047206
    68  H   -0.009835
    69  H   -0.033388
    70  H    0.015764
    71  H    0.011685
    72  H    0.030314
    73  H    0.021059
    74  H    0.023481
    75  H    0.009759
    76  H    0.003431
    77  H    0.029410
    78  H    0.050299
    79  H    0.022587
    80  H    0.012731
    81  H    0.031473
    82  H    0.033841
    83  H    0.033942
    84  H    0.028208
    85  H    0.015102
    86  H    0.018686
    87  H    0.008832
    88  H    0.002891
    89  H    0.026740
    90  H    0.012441
    91  H    0.016247
    92  H    0.013421
    93  H    0.020193
    94  H    0.011735
    95  H    0.037046
    96  H    0.009349
    97  H    0.037091
    98  H    0.038931
    99  H    0.043758
   100  H    0.037739
   101  H    0.054229
   102  H    0.013188
   103  H    0.022099
   104  H    0.009376
   105  H    0.036071
   106  H    0.010249
   107  H    0.023554
   108  H    0.008905
   109  H   -0.010553
   110  H   -0.011062
   111  H   -0.000753
   112  H    0.000961
   113  H   -0.010890
   114  H    0.001169
   115  H    0.008628
   116  H    0.009986
   117  H    0.003524
   118  H   -0.015510
   119  H   -0.001218
   120  H   -0.008128
   121  H   -0.011194
   122  H    0.003227
   123  H   -0.020366
   124  H   -0.008088
   125  H    0.007193
   126  H    0.003937
   127  H    0.004764
   128  H   -0.011899
   129  H   -0.003109
   130  H   -0.001433
   131  H    0.008414
   132  H    0.010622
   133  H    0.003615
   134  H    0.011934
   135  H    0.007700
   136  H   -0.004009
   137  H    0.012180
   138  H   -0.000903
   139  H    0.006388
   140  H    0.003333
 Sum of Mulliken charges =  -0.00000

 Dipole moment (field-independent basis, Debye):
    X=             -4.0265    Y=              1.8138    Z=              1.4305  Tot=              4.6421
 Quadrupole moment (field-independent basis, Debye-Ang):
   XX=           -387.3340   YY=           -422.9487   ZZ=           -401.3121
   XY=              9.2973   XZ=             10.4377   YZ=              2.3666

 Normal termination of Gaussian 16 at Wed May  4 05:41:48 2022.
