 Gaussian 16, Revision A.03,
 Gaussian 16:  ES64L-G16RevA.03 25-Dec-2016

 ---------------------------------
 #p PBE1PBE/Def2SVP td=(nstates=5)
 ---------------------------------

 -----------------------------------------------------
 step_1401_chromophore_4 TDDFT with PBE1PBE functional
 -----------------------------------------------------
 Symbolic Z-matrix:
 Charge =  0 Multiplicity = 1

                         Standard orientation:
 ---------------------------------------------------------------------
 Center     Atomic      Atomic             Coordinates (Angstroms)
 Number     Number       Type             X           Y           Z
 ---------------------------------------------------------------------
      1         12           0        5.858990    0.604451    0.184149
      2          6           0        3.655340   -2.186593    0.235597
      3          6           0        3.253060    2.561987   -0.608006
      4          6           0        7.992796    2.983668   -0.136334
      5          6           0        8.622644   -1.715008    0.565471
      6          7           0        3.730692    0.141574   -0.313778
      7          6           0        3.003240   -0.995504   -0.017127
      8          6           0        1.450119   -0.671564   -0.070869
      9          6           0        1.404344    0.800797   -0.472568
     10          6           0        2.876037    1.191932   -0.455474
     11          6           0        0.857476    1.082446   -1.916189
     12          6           0        0.654156   -1.067603    1.289022
     13          6           0       -0.624686   -1.995451    1.180993
     14          6           0       -1.649641   -1.623486    0.098691
     15          8           0       -1.844063   -0.496918   -0.305972
     16          8           0       -2.206373   -2.711104   -0.508895
     17          7           0        5.629914    2.518176   -0.280170
     18          6           0        4.507621    3.172910   -0.563841
     19          6           0        4.795733    4.536939   -0.719287
     20          6           0        6.244459    4.771553   -0.565803
     21          6           0        6.715026    3.417138   -0.266561
     22          6           0        3.648275    5.539623   -0.983574
     23          6           0        6.995439    6.028424   -0.504835
     24          8           0        8.230259    6.096167   -0.459715
     25          6           0        6.233015    7.357524   -0.530611
     26          7           0        8.040431    0.622754    0.260451
     27          6           0        8.618129    1.775231    0.075346
     28          6           0       10.182924    1.599747    0.098320
     29          6           0       10.359292    0.094536    0.427886
     30          6           0        8.939572   -0.395381    0.429417
     31          6           0       10.895138    2.086785   -1.193715
     32          6           0       11.046946   -0.014805    1.824887
     33          6           0       12.042007   -1.208686    1.796122
     34          7           0        6.160016   -1.479354    0.329315
     35          6           0        7.306515   -2.231508    0.549445
     36          6           0        6.890294   -3.634216    0.710886
     37          6           0        5.500242   -3.584021    0.622547
     38          6           0        5.073129   -2.305915    0.351900
     39          6           0        7.767697   -4.769585    0.915998
     40          6           0        4.331339   -4.432524    0.691908
     41          8           0        4.325080   -5.603301    0.929543
     42          6           0        2.994726   -3.539817    0.462921
     43          6           0        2.332076   -4.008750   -0.809865
     44          8           0        2.897356   -3.999532   -1.876512
     45          8           0        0.928084   -4.181601   -0.658111
     46          6           0        0.226989   -4.677051   -1.888332
     47          6           0       -3.325268   -2.452707   -1.427919
     48          6           0       -4.575058   -2.039413   -0.735980
     49          6           0       -5.650586   -2.683855   -0.230727
     50          6           0       -5.882453   -4.261637   -0.153037
     51          6           0       -6.841149   -1.861340    0.399054
     52          6           0       -7.617037   -1.161727   -0.638430
     53          6           0       -7.734687    0.336158   -0.569098
     54          6           0       -9.161354    0.877856   -0.313130
     55          6           0       -9.841129    0.928113   -1.727794
     56          6           0       -9.045590    2.230378    0.467583
     57          6           0       -9.624140    2.145228    1.874093
     58          6           0      -10.858767    3.034579    2.070122
     59          6           0      -12.157984    2.238528    2.366073
     60          6           0      -12.975125    2.699953    3.591866
     61          6           0      -13.119568    2.206297    1.087703
     62          6           0      -13.610502    0.818811    0.728209
     63          6           0      -15.091717    0.913616    0.142143
     64          6           0      -15.047715    0.061576   -1.230261
     65          6           0      -15.961646    0.795234   -2.232654
     66          6           0      -15.593774   -1.405563   -0.973654
     67          1           0        2.396975    3.185044   -0.878251
     68          1           0        8.719278    3.798048   -0.179357
     69          1           0        9.416461   -2.431626    0.784667
     70          1           0        0.996021   -1.313768   -0.825222
     71          1           0        0.943460    1.369058    0.334185
     72          1           0        0.097922    0.381394   -2.260791
     73          1           0        1.725888    0.973228   -2.565559
     74          1           0        0.537673    2.125054   -1.931112
     75          1           0        0.389628   -0.219254    1.919999
     76          1           0        1.392712   -1.623818    1.867358
     77          1           0       -1.195490   -1.721490    2.069012
     78          1           0       -0.446830   -3.066011    1.075833
     79          1           0        3.585971    6.183142   -0.105657
     80          1           0        2.664222    5.079358   -1.076494
     81          1           0        3.774127    6.203111   -1.839176
     82          1           0        5.655916    7.225634    0.385086
     83          1           0        5.663632    7.382242   -1.459060
     84          1           0        6.848237    8.257629   -0.519206
     85          1           0       10.624731    2.300113    0.806456
     86          1           0       10.953799   -0.344001   -0.373531
     87          1           0       11.254111    1.339347   -1.902036
     88          1           0       11.817528    2.585225   -0.898810
     89          1           0       10.356400    2.840068   -1.769567
     90          1           0       10.376933   -0.342088    2.620361
     91          1           0       11.574655    0.865504    2.190493
     92          1           0       13.047293   -0.787389    1.759710
     93          1           0       11.952170   -1.886861    0.947356
     94          1           0       11.937979   -1.794015    2.709248
     95          1           0        7.269649   -5.587715    1.434403
     96          1           0        8.573911   -4.415799    1.558554
     97          1           0        8.166922   -4.970309   -0.078808
     98          1           0        2.377347   -3.570075    1.361054
     99          1           0       -0.373842   -3.891960   -2.347816
    100          1           0       -0.408819   -5.461256   -1.478058
    101          1           0        0.960239   -5.124543   -2.559630
    102          1           0       -3.576814   -3.381584   -1.941547
    103          1           0       -2.985219   -1.707086   -2.146794
    104          1           0       -4.615140   -0.955589   -0.627942
    105          1           0       -6.241227   -4.686614    0.784575
    106          1           0       -4.919266   -4.708068   -0.398233
    107          1           0       -6.524344   -4.575873   -0.975923
    108          1           0       -6.365151   -1.198853    1.122392
    109          1           0       -7.481874   -2.458086    1.047992
    110          1           0       -8.581484   -1.668158   -0.619859
    111          1           0       -7.202351   -1.501976   -1.587173
    112          1           0       -7.297842    0.726850   -1.488094
    113          1           0       -7.099076    0.620191    0.269357
    114          1           0       -9.738033    0.117266    0.213304
    115          1           0       -9.490704    1.736155   -2.368669
    116          1           0      -10.917091    0.990148   -1.558569
    117          1           0       -9.547154    0.009230   -2.235601
    118          1           0       -9.546118    3.020344   -0.092606
    119          1           0       -8.039621    2.623610    0.608360
    120          1           0       -8.782039    2.316011    2.544864
    121          1           0       -9.871327    1.107097    2.097932
    122          1           0      -11.033913    3.784100    1.298094
    123          1           0      -10.667477    3.602889    2.979903
    124          1           0      -11.946099    1.198036    2.609991
    125          1           0      -12.971158    3.788441    3.533645
    126          1           0      -12.585890    2.398368    4.563461
    127          1           0      -13.985249    2.290782    3.609448
    128          1           0      -12.522311    2.546747    0.241602
    129          1           0      -13.926888    2.915725    1.267569
    130          1           0      -13.662630    0.198850    1.623222
    131          1           0      -12.883793    0.387220    0.041057
    132          1           0      -15.401711    1.944495   -0.030442
    133          1           0      -15.842572    0.488462    0.808796
    134          1           0      -14.055178   -0.074359   -1.660378
    135          1           0      -15.284734    0.854049   -3.084199
    136          1           0      -16.202063    1.804053   -1.896046
    137          1           0      -16.941868    0.394776   -2.491714
    138          1           0      -16.259181   -1.398579   -0.109937
    139          1           0      -14.847212   -2.182266   -0.806448
    140          1           0      -16.220309   -1.796291   -1.775394
 ---------------------------------------------------------------------

 SCF Done:  E(RPBE1PBE) =  -3005.35735398     A.U. after   15 cycles

 Excitation energies and oscillator strengths:

 Excited State   1:      Singlet-A      1.8947 eV  654.37 nm  f=0.3712  <S**2>=0.000
     245 -> 248        0.16848
     246 -> 247        0.69228
     246 <- 247       -0.10448
 This state for optimization and/or second-order correction.
 Total Energy, E(TD-HF/TD-DFT) =  -3005.28772434
 Copying the excited state density for this state as the 1-particle RhoCI density.

 Excited State   2:      Singlet-A      2.2838 eV  542.89 nm  f=0.1163  <S**2>=0.000
     245 -> 247        0.65127
     246 -> 248       -0.25537

 Excited State   3:      Singlet-A      2.9149 eV  425.35 nm  f=0.0002  <S**2>=0.000
     242 -> 247        0.61093
     242 -> 248       -0.12251
     242 -> 249        0.13458
     243 -> 247       -0.27270

 Excited State   4:      Singlet-A      2.9603 eV  418.83 nm  f=0.0045  <S**2>=0.000
     243 -> 247        0.12028
     244 -> 247        0.68448

 Excited State   5:      Singlet-A      3.0479 eV  406.78 nm  f=0.0023  <S**2>=0.000
     242 -> 247        0.27726
     243 -> 247        0.61799
     244 -> 247       -0.12959

 The electronic state is 1-A.
 Alpha  occ. eigenvalues --  -46.91431 -19.25639 -19.25345 -19.20495 -19.19964
 Alpha  occ. eigenvalues --  -19.18806 -19.18497 -14.41402 -14.40860 -14.38750
 Alpha  occ. eigenvalues --  -14.38387 -10.36651 -10.36345 -10.31892 -10.31534
 Alpha  occ. eigenvalues --  -10.29826 -10.28617 -10.28570 -10.28445 -10.27896
 Alpha  occ. eigenvalues --  -10.27848 -10.27642 -10.26976 -10.26901 -10.26758
 Alpha  occ. eigenvalues --  -10.26688 -10.26357 -10.26108 -10.25862 -10.25678
 Alpha  occ. eigenvalues --  -10.25591 -10.25380 -10.25249 -10.25085 -10.25024
 Alpha  occ. eigenvalues --  -10.24976 -10.24602 -10.24463 -10.24162 -10.24150
 Alpha  occ. eigenvalues --  -10.24099 -10.24052 -10.23931 -10.23710 -10.23417
 Alpha  occ. eigenvalues --  -10.23216 -10.23160 -10.23126 -10.23077 -10.22866
 Alpha  occ. eigenvalues --  -10.22724 -10.22681 -10.22629 -10.22586 -10.22339
 Alpha  occ. eigenvalues --  -10.22250 -10.22244 -10.22061 -10.22060 -10.22031
 Alpha  occ. eigenvalues --  -10.21893 -10.21892 -10.21815 -10.21765 -10.21366
 Alpha  occ. eigenvalues --  -10.21346  -3.13637  -1.86474  -1.86030  -1.85850
 Alpha  occ. eigenvalues --   -1.11589  -1.09908  -1.05674  -1.03557  -1.02786
 Alpha  occ. eigenvalues --   -1.02243  -0.99322  -0.98220  -0.97629  -0.96626
 Alpha  occ. eigenvalues --   -0.86498  -0.84922  -0.83787  -0.83501  -0.82694
 Alpha  occ. eigenvalues --   -0.82496  -0.82265  -0.81511  -0.81014  -0.80952
 Alpha  occ. eigenvalues --   -0.80816  -0.79799  -0.78830  -0.77561  -0.77485
 Alpha  occ. eigenvalues --   -0.76750  -0.76158  -0.75293  -0.75025  -0.74265
 Alpha  occ. eigenvalues --   -0.74105  -0.72453  -0.71752  -0.71453  -0.70344
 Alpha  occ. eigenvalues --   -0.69834  -0.69235  -0.69190  -0.69098  -0.68094
 Alpha  occ. eigenvalues --   -0.67667  -0.66912  -0.65874  -0.65062  -0.63106
 Alpha  occ. eigenvalues --   -0.62836  -0.62553  -0.61899  -0.60579  -0.60261
 Alpha  occ. eigenvalues --   -0.59596  -0.59239  -0.59158  -0.58803  -0.58378
 Alpha  occ. eigenvalues --   -0.58057  -0.57833  -0.56999  -0.56168  -0.54873
 Alpha  occ. eigenvalues --   -0.53921  -0.53714  -0.53045  -0.52830  -0.52662
 Alpha  occ. eigenvalues --   -0.52085  -0.51454  -0.50664  -0.50389  -0.49499
 Alpha  occ. eigenvalues --   -0.49352  -0.48914  -0.48576  -0.48319  -0.48090
 Alpha  occ. eigenvalues --   -0.47871  -0.47608  -0.47394  -0.47364  -0.47199
 Alpha  occ. eigenvalues --   -0.47055  -0.46799  -0.46690  -0.46528  -0.46177
 Alpha  occ. eigenvalues --   -0.46065  -0.45918  -0.45537  -0.45310  -0.45039
 Alpha  occ. eigenvalues --   -0.44790  -0.44673  -0.44612  -0.44427  -0.43962
 Alpha  occ. eigenvalues --   -0.43770  -0.43474  -0.43417  -0.43332  -0.43015
 Alpha  occ. eigenvalues --   -0.42930  -0.42704  -0.42609  -0.42348  -0.42304
 Alpha  occ. eigenvalues --   -0.42201  -0.41924  -0.41727  -0.41246  -0.41153
 Alpha  occ. eigenvalues --   -0.40990  -0.40962  -0.40585  -0.40533  -0.40432
 Alpha  occ. eigenvalues --   -0.40179  -0.40015  -0.39928  -0.39785  -0.39734
 Alpha  occ. eigenvalues --   -0.39427  -0.39161  -0.39055  -0.38916  -0.38661
 Alpha  occ. eigenvalues --   -0.38508  -0.38352  -0.38205  -0.38060  -0.37932
 Alpha  occ. eigenvalues --   -0.37505  -0.37413  -0.37212  -0.37140  -0.37047
 Alpha  occ. eigenvalues --   -0.36802  -0.36638  -0.36171  -0.35945  -0.35816
 Alpha  occ. eigenvalues --   -0.35613  -0.35326  -0.35041  -0.34790  -0.34748
 Alpha  occ. eigenvalues --   -0.34418  -0.34369  -0.34080  -0.33969  -0.33449
 Alpha  occ. eigenvalues --   -0.33282  -0.33192  -0.32956  -0.32527  -0.32372
 Alpha  occ. eigenvalues --   -0.32028  -0.31983  -0.31728  -0.31436  -0.31395
 Alpha  occ. eigenvalues --   -0.30816  -0.30534  -0.29645  -0.29400  -0.29077
 Alpha  occ. eigenvalues --   -0.28934  -0.28760  -0.27698  -0.26766  -0.26315
 Alpha  occ. eigenvalues --   -0.25624  -0.25101  -0.25083  -0.24649  -0.20867
 Alpha  occ. eigenvalues --   -0.18671
 Alpha virt. eigenvalues --   -0.10916  -0.05057  -0.03117  -0.01438  -0.00724
 Alpha virt. eigenvalues --   -0.00100   0.00187   0.00649   0.02116   0.03647
 Alpha virt. eigenvalues --    0.04587   0.04592   0.05115   0.05450   0.05864

 Mulliken charges:
               1
     1  Mg   0.970965
     2  C   -0.124320
     3  C   -0.080445
     4  C   -0.065641
     5  C   -0.075304
     6  N   -0.375282
     7  C    0.025625
     8  C   -0.054093
     9  C   -0.090505
    10  C    0.022619
    11  C    0.016787
    12  C    0.019401
    13  C   -0.028360
    14  C    0.193602
    15  O   -0.267839
    16  O   -0.361449
    17  N   -0.558623
    18  C    0.229354
    19  C   -0.173856
    20  C   -0.038279
    21  C    0.175182
    22  C    0.051913
    23  C    0.015349
    24  O   -0.254565
    25  C   -0.016642
    26  N   -0.354393
    27  C    0.084677
    28  C   -0.118600
    29  C   -0.066829
    30  C    0.088108
    31  C   -0.018607
    32  C   -0.015953
    33  C   -0.096832
    34  N   -0.476062
    35  C    0.134823
    36  C   -0.229323
    37  C   -0.024184
    38  C    0.234170
    39  C    0.079971
    40  C    0.105969
    41  O   -0.187440
    42  C   -0.090855
    43  C    0.315037
    44  O   -0.227267
    45  O   -0.412545
    46  C    0.115168
    47  C    0.279209
    48  C   -0.167292
    49  C   -0.219835
    50  C   -0.003920
    51  C    0.010035
    52  C   -0.038594
    53  C   -0.001221
    54  C   -0.212332
    55  C   -0.024547
    56  C    0.012566
    57  C   -0.039357
    58  C    0.024213
    59  C   -0.228169
    60  C   -0.023038
    61  C   -0.019553
    62  C   -0.046923
    63  C   -0.019552
    64  C   -0.259909
    65  C   -0.013185
    66  C   -0.027479
    67  H   -0.012513
    68  H    0.021939
    69  H   -0.000259
    70  H    0.058377
    71  H    0.048046
    72  H    0.057653
    73  H    0.050267
    74  H    0.050613
    75  H    0.040399
    76  H    0.038359
    77  H    0.064459
    78  H    0.081923
    79  H    0.049990
    80  H    0.038732
    81  H    0.057326
    82  H    0.061173
    83  H    0.060489
    84  H    0.054969
    85  H    0.050805
    86  H    0.055381
    87  H    0.035267
    88  H    0.030414
    89  H    0.054210
    90  H    0.045034
    91  H    0.047836
    92  H    0.042534
    93  H    0.045482
    94  H    0.039481
    95  H    0.065312
    96  H    0.038064
    97  H    0.066996
    98  H    0.074509
    99  H    0.066126
   100  H    0.059323
   101  H    0.074729
   102  H    0.039996
   103  H    0.049513
   104  H    0.039863
   105  H    0.061752
   106  H    0.038561
   107  H    0.051683
   108  H    0.040564
   109  H    0.020803
   110  H    0.021022
   111  H    0.033325
   112  H    0.033515
   113  H    0.022744
   114  H    0.038331
   115  H    0.036260
   116  H    0.042175
   117  H    0.033033
   118  H    0.017250
   119  H    0.029798
   120  H    0.023899
   121  H    0.020295
   122  H    0.033357
   123  H    0.014784
   124  H    0.029513
   125  H    0.035369
   126  H    0.032278
   127  H    0.032850
   128  H    0.023730
   129  H    0.028415
   130  H    0.031490
   131  H    0.043931
   132  H    0.040945
   133  H    0.034748
   134  H    0.047698
   135  H    0.035353
   136  H    0.023410
   137  H    0.038282
   138  H    0.026023
   139  H    0.033726
   140  H    0.030533
 Sum of Mulliken charges =  -0.00000

 Dipole moment (field-independent basis, Debye):
    X=             -3.9497    Y=              1.2700    Z=              1.5472  Tot=              4.4280
 Quadrupole moment (field-independent basis, Debye-Ang):
   XX=           -380.4120   YY=           -421.1192   ZZ=           -398.9119
   XY=              5.4856   XZ=             11.3091   YZ=              2.2502

 Normal termination of Gaussian 16 at Wed May  4 05:57:19 2022.
