 Gaussian 16, Revision A.03,
 Gaussian 16:  ES64L-G16RevA.03 25-Dec-2016

 --------------------------------
 #p wB97XD/Def2SVP td=(nstates=5)
 --------------------------------

 ----------------------------------------------------
 step_1401_chromophore_4 TDDFT with wB97XD functional
 ----------------------------------------------------
 Symbolic Z-matrix:
 Charge =  0 Multiplicity = 1

                         Standard orientation:
 ---------------------------------------------------------------------
 Center     Atomic      Atomic             Coordinates (Angstroms)
 Number     Number       Type             X           Y           Z
 ---------------------------------------------------------------------
      1         12           0        5.858990    0.604451    0.184149
      2          6           0        3.655340   -2.186593    0.235597
      3          6           0        3.253060    2.561987   -0.608006
      4          6           0        7.992796    2.983668   -0.136334
      5          6           0        8.622644   -1.715008    0.565471
      6          7           0        3.730692    0.141574   -0.313778
      7          6           0        3.003240   -0.995504   -0.017127
      8          6           0        1.450119   -0.671564   -0.070869
      9          6           0        1.404344    0.800797   -0.472568
     10          6           0        2.876037    1.191932   -0.455474
     11          6           0        0.857476    1.082446   -1.916189
     12          6           0        0.654156   -1.067603    1.289022
     13          6           0       -0.624686   -1.995451    1.180993
     14          6           0       -1.649641   -1.623486    0.098691
     15          8           0       -1.844063   -0.496918   -0.305972
     16          8           0       -2.206373   -2.711104   -0.508895
     17          7           0        5.629914    2.518176   -0.280170
     18          6           0        4.507621    3.172910   -0.563841
     19          6           0        4.795733    4.536939   -0.719287
     20          6           0        6.244459    4.771553   -0.565803
     21          6           0        6.715026    3.417138   -0.266561
     22          6           0        3.648275    5.539623   -0.983574
     23          6           0        6.995439    6.028424   -0.504835
     24          8           0        8.230259    6.096167   -0.459715
     25          6           0        6.233015    7.357524   -0.530611
     26          7           0        8.040431    0.622754    0.260451
     27          6           0        8.618129    1.775231    0.075346
     28          6           0       10.182924    1.599747    0.098320
     29          6           0       10.359292    0.094536    0.427886
     30          6           0        8.939572   -0.395381    0.429417
     31          6           0       10.895138    2.086785   -1.193715
     32          6           0       11.046946   -0.014805    1.824887
     33          6           0       12.042007   -1.208686    1.796122
     34          7           0        6.160016   -1.479354    0.329315
     35          6           0        7.306515   -2.231508    0.549445
     36          6           0        6.890294   -3.634216    0.710886
     37          6           0        5.500242   -3.584021    0.622547
     38          6           0        5.073129   -2.305915    0.351900
     39          6           0        7.767697   -4.769585    0.915998
     40          6           0        4.331339   -4.432524    0.691908
     41          8           0        4.325080   -5.603301    0.929543
     42          6           0        2.994726   -3.539817    0.462921
     43          6           0        2.332076   -4.008750   -0.809865
     44          8           0        2.897356   -3.999532   -1.876512
     45          8           0        0.928084   -4.181601   -0.658111
     46          6           0        0.226989   -4.677051   -1.888332
     47          6           0       -3.325268   -2.452707   -1.427919
     48          6           0       -4.575058   -2.039413   -0.735980
     49          6           0       -5.650586   -2.683855   -0.230727
     50          6           0       -5.882453   -4.261637   -0.153037
     51          6           0       -6.841149   -1.861340    0.399054
     52          6           0       -7.617037   -1.161727   -0.638430
     53          6           0       -7.734687    0.336158   -0.569098
     54          6           0       -9.161354    0.877856   -0.313130
     55          6           0       -9.841129    0.928113   -1.727794
     56          6           0       -9.045590    2.230378    0.467583
     57          6           0       -9.624140    2.145228    1.874093
     58          6           0      -10.858767    3.034579    2.070122
     59          6           0      -12.157984    2.238528    2.366073
     60          6           0      -12.975125    2.699953    3.591866
     61          6           0      -13.119568    2.206297    1.087703
     62          6           0      -13.610502    0.818811    0.728209
     63          6           0      -15.091717    0.913616    0.142143
     64          6           0      -15.047715    0.061576   -1.230261
     65          6           0      -15.961646    0.795234   -2.232654
     66          6           0      -15.593774   -1.405563   -0.973654
     67          1           0        2.396975    3.185044   -0.878251
     68          1           0        8.719278    3.798048   -0.179357
     69          1           0        9.416461   -2.431626    0.784667
     70          1           0        0.996021   -1.313768   -0.825222
     71          1           0        0.943460    1.369058    0.334185
     72          1           0        0.097922    0.381394   -2.260791
     73          1           0        1.725888    0.973228   -2.565559
     74          1           0        0.537673    2.125054   -1.931112
     75          1           0        0.389628   -0.219254    1.919999
     76          1           0        1.392712   -1.623818    1.867358
     77          1           0       -1.195490   -1.721490    2.069012
     78          1           0       -0.446830   -3.066011    1.075833
     79          1           0        3.585971    6.183142   -0.105657
     80          1           0        2.664222    5.079358   -1.076494
     81          1           0        3.774127    6.203111   -1.839176
     82          1           0        5.655916    7.225634    0.385086
     83          1           0        5.663632    7.382242   -1.459060
     84          1           0        6.848237    8.257629   -0.519206
     85          1           0       10.624731    2.300113    0.806456
     86          1           0       10.953799   -0.344001   -0.373531
     87          1           0       11.254111    1.339347   -1.902036
     88          1           0       11.817528    2.585225   -0.898810
     89          1           0       10.356400    2.840068   -1.769567
     90          1           0       10.376933   -0.342088    2.620361
     91          1           0       11.574655    0.865504    2.190493
     92          1           0       13.047293   -0.787389    1.759710
     93          1           0       11.952170   -1.886861    0.947356
     94          1           0       11.937979   -1.794015    2.709248
     95          1           0        7.269649   -5.587715    1.434403
     96          1           0        8.573911   -4.415799    1.558554
     97          1           0        8.166922   -4.970309   -0.078808
     98          1           0        2.377347   -3.570075    1.361054
     99          1           0       -0.373842   -3.891960   -2.347816
    100          1           0       -0.408819   -5.461256   -1.478058
    101          1           0        0.960239   -5.124543   -2.559630
    102          1           0       -3.576814   -3.381584   -1.941547
    103          1           0       -2.985219   -1.707086   -2.146794
    104          1           0       -4.615140   -0.955589   -0.627942
    105          1           0       -6.241227   -4.686614    0.784575
    106          1           0       -4.919266   -4.708068   -0.398233
    107          1           0       -6.524344   -4.575873   -0.975923
    108          1           0       -6.365151   -1.198853    1.122392
    109          1           0       -7.481874   -2.458086    1.047992
    110          1           0       -8.581484   -1.668158   -0.619859
    111          1           0       -7.202351   -1.501976   -1.587173
    112          1           0       -7.297842    0.726850   -1.488094
    113          1           0       -7.099076    0.620191    0.269357
    114          1           0       -9.738033    0.117266    0.213304
    115          1           0       -9.490704    1.736155   -2.368669
    116          1           0      -10.917091    0.990148   -1.558569
    117          1           0       -9.547154    0.009230   -2.235601
    118          1           0       -9.546118    3.020344   -0.092606
    119          1           0       -8.039621    2.623610    0.608360
    120          1           0       -8.782039    2.316011    2.544864
    121          1           0       -9.871327    1.107097    2.097932
    122          1           0      -11.033913    3.784100    1.298094
    123          1           0      -10.667477    3.602889    2.979903
    124          1           0      -11.946099    1.198036    2.609991
    125          1           0      -12.971158    3.788441    3.533645
    126          1           0      -12.585890    2.398368    4.563461
    127          1           0      -13.985249    2.290782    3.609448
    128          1           0      -12.522311    2.546747    0.241602
    129          1           0      -13.926888    2.915725    1.267569
    130          1           0      -13.662630    0.198850    1.623222
    131          1           0      -12.883793    0.387220    0.041057
    132          1           0      -15.401711    1.944495   -0.030442
    133          1           0      -15.842572    0.488462    0.808796
    134          1           0      -14.055178   -0.074359   -1.660378
    135          1           0      -15.284734    0.854049   -3.084199
    136          1           0      -16.202063    1.804053   -1.896046
    137          1           0      -16.941868    0.394776   -2.491714
    138          1           0      -16.259181   -1.398579   -0.109937
    139          1           0      -14.847212   -2.182266   -0.806448
    140          1           0      -16.220309   -1.796291   -1.775394
 ---------------------------------------------------------------------

 SCF Done:  E(RwB97XD) =  -3007.86926658     A.U. after   19 cycles

 Excitation energies and oscillator strengths:

 Excited State   1:      Singlet-A      1.7099 eV  725.09 nm  f=0.3815  <S**2>=0.000
     245 -> 248        0.17926
     246 -> 247        0.68326
     245 <- 248        0.11054
 This state for optimization and/or second-order correction.
 Total Energy, E(TD-HF/TD-DFT) =  -3007.80642818
 Copying the excited state density for this state as the 1-particle RhoCI density.

 Excited State   2:      Singlet-A      2.2245 eV  557.35 nm  f=0.1188  <S**2>=0.000
     245 -> 247        0.63933
     246 -> 248       -0.28015

 Excited State   3:      Singlet-A      3.3876 eV  365.99 nm  f=0.0274  <S**2>=0.000
     242 -> 247       -0.31417
     244 -> 247        0.59157
     246 -> 248       -0.13354

 Excited State   4:      Singlet-A      3.4259 eV  361.90 nm  f=0.0006  <S**2>=0.000
     241 -> 247        0.51961
     241 -> 248       -0.20407
     241 -> 249        0.30152
     241 -> 250        0.13488
     242 -> 247       -0.18723
     242 -> 249       -0.10112

 Excited State   5:      Singlet-A      3.5073 eV  353.51 nm  f=0.1561  <S**2>=0.000
     241 -> 247        0.17061
     242 -> 247        0.38906
     244 -> 247        0.31366
     245 -> 247        0.11813
     246 -> 248        0.42565

 The electronic state is 1-A.
 Alpha  occ. eigenvalues --  -46.94384 -19.30161 -19.29839 -19.25130 -19.24605
 Alpha  occ. eigenvalues --  -19.23565 -19.23371 -14.46429 -14.46040 -14.43845
 Alpha  occ. eigenvalues --  -14.43123 -10.43395 -10.43087 -10.38991 -10.38138
 Alpha  occ. eigenvalues --  -10.36329 -10.35084 -10.35063 -10.34549 -10.34541
 Alpha  occ. eigenvalues --  -10.34359 -10.33706 -10.33677 -10.33660 -10.32994
 Alpha  occ. eigenvalues --  -10.32772 -10.32634 -10.32319 -10.32111 -10.31886
 Alpha  occ. eigenvalues --  -10.31865 -10.31814 -10.31617 -10.31375 -10.31247
 Alpha  occ. eigenvalues --  -10.31224 -10.31173 -10.30647 -10.30599 -10.30587
 Alpha  occ. eigenvalues --  -10.30433 -10.30302 -10.30137 -10.29979 -10.29933
 Alpha  occ. eigenvalues --  -10.29774 -10.29588 -10.29579 -10.29349 -10.29280
 Alpha  occ. eigenvalues --  -10.29198 -10.29045 -10.28914 -10.28897 -10.28706
 Alpha  occ. eigenvalues --  -10.28672 -10.28611 -10.28419 -10.28418 -10.28387
 Alpha  occ. eigenvalues --  -10.28260 -10.28258 -10.28233 -10.28206 -10.27777
 Alpha  occ. eigenvalues --  -10.27322  -3.20437  -1.94026  -1.93584  -1.93397
 Alpha  occ. eigenvalues --   -1.18927  -1.17242  -1.12898  -1.11302  -1.10093
 Alpha  occ. eigenvalues --   -1.09537  -1.06748  -1.05759  -1.04981  -1.03798
 Alpha  occ. eigenvalues --   -0.93948  -0.92578  -0.91388  -0.91171  -0.90309
 Alpha  occ. eigenvalues --   -0.90153  -0.89914  -0.89103  -0.88902  -0.88672
 Alpha  occ. eigenvalues --   -0.88218  -0.87421  -0.86469  -0.85148  -0.85094
 Alpha  occ. eigenvalues --   -0.84401  -0.83892  -0.83030  -0.82664  -0.81945
 Alpha  occ. eigenvalues --   -0.81757  -0.80182  -0.79407  -0.79025  -0.77919
 Alpha  occ. eigenvalues --   -0.77490  -0.76934  -0.76852  -0.76715  -0.75707
 Alpha  occ. eigenvalues --   -0.75333  -0.74344  -0.73435  -0.72668  -0.70840
 Alpha  occ. eigenvalues --   -0.70345  -0.70189  -0.69344  -0.68206  -0.67756
 Alpha  occ. eigenvalues --   -0.67078  -0.66785  -0.66635  -0.66203  -0.66022
 Alpha  occ. eigenvalues --   -0.65670  -0.65338  -0.64644  -0.63519  -0.62498
 Alpha  occ. eigenvalues --   -0.61253  -0.61177  -0.60517  -0.60222  -0.60046
 Alpha  occ. eigenvalues --   -0.59374  -0.58940  -0.58081  -0.57885  -0.56831
 Alpha  occ. eigenvalues --   -0.56720  -0.56339  -0.55968  -0.55662  -0.55492
 Alpha  occ. eigenvalues --   -0.55204  -0.55067  -0.54865  -0.54806  -0.54652
 Alpha  occ. eigenvalues --   -0.54411  -0.54164  -0.54064  -0.53949  -0.53461
 Alpha  occ. eigenvalues --   -0.53388  -0.53236  -0.52891  -0.52504  -0.52368
 Alpha  occ. eigenvalues --   -0.52170  -0.52064  -0.51924  -0.51778  -0.51385
 Alpha  occ. eigenvalues --   -0.51192  -0.50799  -0.50740  -0.50602  -0.50350
 Alpha  occ. eigenvalues --   -0.50248  -0.49992  -0.49832  -0.49646  -0.49546
 Alpha  occ. eigenvalues --   -0.49470  -0.49365  -0.48973  -0.48480  -0.48374
 Alpha  occ. eigenvalues --   -0.48179  -0.48117  -0.47838  -0.47769  -0.47645
 Alpha  occ. eigenvalues --   -0.47400  -0.47256  -0.47100  -0.46930  -0.46864
 Alpha  occ. eigenvalues --   -0.46590  -0.46217  -0.46150  -0.46025  -0.45847
 Alpha  occ. eigenvalues --   -0.45682  -0.45512  -0.45358  -0.45098  -0.44976
 Alpha  occ. eigenvalues --   -0.44626  -0.44548  -0.44345  -0.44251  -0.44104
 Alpha  occ. eigenvalues --   -0.44042  -0.43781  -0.43230  -0.43053  -0.42888
 Alpha  occ. eigenvalues --   -0.42693  -0.42428  -0.42107  -0.41890  -0.41663
 Alpha  occ. eigenvalues --   -0.41507  -0.41339  -0.41129  -0.40957  -0.40509
 Alpha  occ. eigenvalues --   -0.40338  -0.40133  -0.40031  -0.39600  -0.39321
 Alpha  occ. eigenvalues --   -0.39055  -0.38977  -0.38740  -0.38413  -0.38318
 Alpha  occ. eigenvalues --   -0.37786  -0.37507  -0.36683  -0.36281  -0.35938
 Alpha  occ. eigenvalues --   -0.35716  -0.35561  -0.34525  -0.33336  -0.33045
 Alpha  occ. eigenvalues --   -0.32568  -0.32369  -0.31883  -0.30941  -0.25881
 Alpha  occ. eigenvalues --   -0.22880
 Alpha virt. eigenvalues --   -0.06777   0.00417   0.03062   0.05182   0.05881
 Alpha virt. eigenvalues --    0.05975   0.06910   0.07516   0.08921   0.10023
 Alpha virt. eigenvalues --    0.11065   0.11222   0.11945   0.12169   0.12585

 Mulliken charges:
               1
     1  Mg   0.961792
     2  C   -0.123686
     3  C   -0.101478
     4  C   -0.079263
     5  C   -0.090650
     6  N   -0.344450
     7  C   -0.007098
     8  C   -0.031808
     9  C   -0.066276
    10  C    0.017912
    11  C    0.028506
    12  C    0.032084
    13  C   -0.006981
    14  C    0.176282
    15  O   -0.264042
    16  O   -0.359221
    17  N   -0.526179
    18  C    0.223778
    19  C   -0.162054
    20  C   -0.033788
    21  C    0.168332
    22  C    0.062273
    23  C    0.014135
    24  O   -0.247234
    25  C   -0.001594
    26  N   -0.315484
    27  C    0.070763
    28  C   -0.095472
    29  C   -0.035354
    30  C    0.072345
    31  C   -0.009715
    32  C   -0.006420
    33  C   -0.081100
    34  N   -0.435523
    35  C    0.118080
    36  C   -0.222108
    37  C   -0.014686
    38  C    0.212143
    39  C    0.091040
    40  C    0.078650
    41  O   -0.180104
    42  C   -0.048873
    43  C    0.292451
    44  O   -0.223670
    45  O   -0.410730
    46  C    0.130495
    47  C    0.298487
    48  C   -0.181175
    49  C   -0.203568
    50  C    0.010834
    51  C    0.023413
    52  C   -0.025350
    53  C    0.019959
    54  C   -0.181157
    55  C   -0.006732
    56  C    0.024278
    57  C   -0.022685
    58  C    0.038790
    59  C   -0.199533
    60  C   -0.009320
    61  C   -0.001938
    62  C   -0.024609
    63  C   -0.004550
    64  C   -0.228731
    65  C   -0.002227
    66  C   -0.016740
    67  H   -0.025185
    68  H    0.015865
    69  H   -0.007868
    70  H    0.039848
    71  H    0.038962
    72  H    0.053503
    73  H    0.042786
    74  H    0.045042
    75  H    0.034496
    76  H    0.026995
    77  H    0.058148
    78  H    0.074085
    79  H    0.044949
    80  H    0.037711
    81  H    0.054044
    82  H    0.053978
    83  H    0.054099
    84  H    0.055278
    85  H    0.040756
    86  H    0.043541
    87  H    0.030538
    88  H    0.024983
    89  H    0.047737
    90  H    0.036662
    91  H    0.040301
    92  H    0.036282
    93  H    0.038672
    94  H    0.034267
    95  H    0.061664
    96  H    0.030049
    97  H    0.060827
    98  H    0.067738
    99  H    0.061013
   100  H    0.055943
   101  H    0.071063
   102  H    0.035012
   103  H    0.045906
   104  H    0.034672
   105  H    0.057747
   106  H    0.031729
   107  H    0.045536
   108  H    0.031887
   109  H    0.015264
   110  H    0.012429
   111  H    0.022626
   112  H    0.025400
   113  H    0.009434
   114  H    0.023084
   115  H    0.030311
   116  H    0.032597
   117  H    0.025058
   118  H    0.006894
   119  H    0.023030
   120  H    0.018075
   121  H    0.008782
   122  H    0.025118
   123  H    0.006721
   124  H    0.014251
   125  H    0.027857
   126  H    0.027079
   127  H    0.026234
   128  H    0.010751
   129  H    0.018522
   130  H    0.022306
   131  H    0.029205
   132  H    0.030052
   133  H    0.026685
   134  H    0.036646
   135  H    0.029722
   136  H    0.016681
   137  H    0.033269
   138  H    0.018261
   139  H    0.028608
   140  H    0.024322
 Sum of Mulliken charges =  -0.00000

 Dipole moment (field-independent basis, Debye):
    X=             -4.0820    Y=              2.0265    Z=              1.4258  Tot=              4.7751
 Quadrupole moment (field-independent basis, Debye-Ang):
   XX=           -382.1225   YY=           -418.3152   ZZ=           -398.4427
   XY=             10.4290   XZ=             10.7049   YZ=              2.1677

 Normal termination of Gaussian 16 at Wed May  4 06:22:46 2022.
