 Gaussian 16, Revision A.03,
 Gaussian 16:  ES64L-G16RevA.03 25-Dec-2016

 --------------------
 #p ZINDO=(nstates=5)
 --------------------

 -----------------------------
 step_1401_chromophore_4 ZINDO
 -----------------------------
 Symbolic Z-matrix:
 Charge =  0 Multiplicity = 1

                         Standard orientation:
 ---------------------------------------------------------------------
 Center     Atomic      Atomic             Coordinates (Angstroms)
 Number     Number       Type             X           Y           Z
 ---------------------------------------------------------------------
      1         12           0        5.858990    0.604451    0.184149
      2          6           0        3.655340   -2.186593    0.235597
      3          6           0        3.253060    2.561987   -0.608006
      4          6           0        7.992796    2.983668   -0.136334
      5          6           0        8.622644   -1.715008    0.565471
      6          7           0        3.730692    0.141574   -0.313778
      7          6           0        3.003240   -0.995504   -0.017127
      8          6           0        1.450119   -0.671564   -0.070869
      9          6           0        1.404344    0.800797   -0.472568
     10          6           0        2.876037    1.191932   -0.455474
     11          6           0        0.857476    1.082446   -1.916189
     12          6           0        0.654156   -1.067603    1.289022
     13          6           0       -0.624686   -1.995451    1.180993
     14          6           0       -1.649641   -1.623486    0.098691
     15          8           0       -1.844063   -0.496918   -0.305972
     16          8           0       -2.206373   -2.711104   -0.508895
     17          7           0        5.629914    2.518176   -0.280170
     18          6           0        4.507621    3.172910   -0.563841
     19          6           0        4.795733    4.536939   -0.719287
     20          6           0        6.244459    4.771553   -0.565803
     21          6           0        6.715026    3.417138   -0.266561
     22          6           0        3.648275    5.539623   -0.983574
     23          6           0        6.995439    6.028424   -0.504835
     24          8           0        8.230259    6.096167   -0.459715
     25          6           0        6.233015    7.357524   -0.530611
     26          7           0        8.040431    0.622754    0.260451
     27          6           0        8.618129    1.775231    0.075346
     28          6           0       10.182924    1.599747    0.098320
     29          6           0       10.359292    0.094536    0.427886
     30          6           0        8.939572   -0.395381    0.429417
     31          6           0       10.895138    2.086785   -1.193715
     32          6           0       11.046946   -0.014805    1.824887
     33          6           0       12.042007   -1.208686    1.796122
     34          7           0        6.160016   -1.479354    0.329315
     35          6           0        7.306515   -2.231508    0.549445
     36          6           0        6.890294   -3.634216    0.710886
     37          6           0        5.500242   -3.584021    0.622547
     38          6           0        5.073129   -2.305915    0.351900
     39          6           0        7.767697   -4.769585    0.915998
     40          6           0        4.331339   -4.432524    0.691908
     41          8           0        4.325080   -5.603301    0.929543
     42          6           0        2.994726   -3.539817    0.462921
     43          6           0        2.332076   -4.008750   -0.809865
     44          8           0        2.897356   -3.999532   -1.876512
     45          8           0        0.928084   -4.181601   -0.658111
     46          6           0        0.226989   -4.677051   -1.888332
     47          6           0       -3.325268   -2.452707   -1.427919
     48          6           0       -4.575058   -2.039413   -0.735980
     49          6           0       -5.650586   -2.683855   -0.230727
     50          6           0       -5.882453   -4.261637   -0.153037
     51          6           0       -6.841149   -1.861340    0.399054
     52          6           0       -7.617037   -1.161727   -0.638430
     53          6           0       -7.734687    0.336158   -0.569098
     54          6           0       -9.161354    0.877856   -0.313130
     55          6           0       -9.841129    0.928113   -1.727794
     56          6           0       -9.045590    2.230378    0.467583
     57          6           0       -9.624140    2.145228    1.874093
     58          6           0      -10.858767    3.034579    2.070122
     59          6           0      -12.157984    2.238528    2.366073
     60          6           0      -12.975125    2.699953    3.591866
     61          6           0      -13.119568    2.206297    1.087703
     62          6           0      -13.610502    0.818811    0.728209
     63          6           0      -15.091717    0.913616    0.142143
     64          6           0      -15.047715    0.061576   -1.230261
     65          6           0      -15.961646    0.795234   -2.232654
     66          6           0      -15.593774   -1.405563   -0.973654
     67          1           0        2.396975    3.185044   -0.878251
     68          1           0        8.719278    3.798048   -0.179357
     69          1           0        9.416461   -2.431626    0.784667
     70          1           0        0.996021   -1.313768   -0.825222
     71          1           0        0.943460    1.369058    0.334185
     72          1           0        0.097922    0.381394   -2.260791
     73          1           0        1.725888    0.973228   -2.565559
     74          1           0        0.537673    2.125054   -1.931112
     75          1           0        0.389628   -0.219254    1.919999
     76          1           0        1.392712   -1.623818    1.867358
     77          1           0       -1.195490   -1.721490    2.069012
     78          1           0       -0.446830   -3.066011    1.075833
     79          1           0        3.585971    6.183142   -0.105657
     80          1           0        2.664222    5.079358   -1.076494
     81          1           0        3.774127    6.203111   -1.839176
     82          1           0        5.655916    7.225634    0.385086
     83          1           0        5.663632    7.382242   -1.459060
     84          1           0        6.848237    8.257629   -0.519206
     85          1           0       10.624731    2.300113    0.806456
     86          1           0       10.953799   -0.344001   -0.373531
     87          1           0       11.254111    1.339347   -1.902036
     88          1           0       11.817528    2.585225   -0.898810
     89          1           0       10.356400    2.840068   -1.769567
     90          1           0       10.376933   -0.342088    2.620361
     91          1           0       11.574655    0.865504    2.190493
     92          1           0       13.047293   -0.787389    1.759710
     93          1           0       11.952170   -1.886861    0.947356
     94          1           0       11.937979   -1.794015    2.709248
     95          1           0        7.269649   -5.587715    1.434403
     96          1           0        8.573911   -4.415799    1.558554
     97          1           0        8.166922   -4.970309   -0.078808
     98          1           0        2.377347   -3.570075    1.361054
     99          1           0       -0.373842   -3.891960   -2.347816
    100          1           0       -0.408819   -5.461256   -1.478058
    101          1           0        0.960239   -5.124543   -2.559630
    102          1           0       -3.576814   -3.381584   -1.941547
    103          1           0       -2.985219   -1.707086   -2.146794
    104          1           0       -4.615140   -0.955589   -0.627942
    105          1           0       -6.241227   -4.686614    0.784575
    106          1           0       -4.919266   -4.708068   -0.398233
    107          1           0       -6.524344   -4.575873   -0.975923
    108          1           0       -6.365151   -1.198853    1.122392
    109          1           0       -7.481874   -2.458086    1.047992
    110          1           0       -8.581484   -1.668158   -0.619859
    111          1           0       -7.202351   -1.501976   -1.587173
    112          1           0       -7.297842    0.726850   -1.488094
    113          1           0       -7.099076    0.620191    0.269357
    114          1           0       -9.738033    0.117266    0.213304
    115          1           0       -9.490704    1.736155   -2.368669
    116          1           0      -10.917091    0.990148   -1.558569
    117          1           0       -9.547154    0.009230   -2.235601
    118          1           0       -9.546118    3.020344   -0.092606
    119          1           0       -8.039621    2.623610    0.608360
    120          1           0       -8.782039    2.316011    2.544864
    121          1           0       -9.871327    1.107097    2.097932
    122          1           0      -11.033913    3.784100    1.298094
    123          1           0      -10.667477    3.602889    2.979903
    124          1           0      -11.946099    1.198036    2.609991
    125          1           0      -12.971158    3.788441    3.533645
    126          1           0      -12.585890    2.398368    4.563461
    127          1           0      -13.985249    2.290782    3.609448
    128          1           0      -12.522311    2.546747    0.241602
    129          1           0      -13.926888    2.915725    1.267569
    130          1           0      -13.662630    0.198850    1.623222
    131          1           0      -12.883793    0.387220    0.041057
    132          1           0      -15.401711    1.944495   -0.030442
    133          1           0      -15.842572    0.488462    0.808796
    134          1           0      -14.055178   -0.074359   -1.660378
    135          1           0      -15.284734    0.854049   -3.084199
    136          1           0      -16.202063    1.804053   -1.896046
    137          1           0      -16.941868    0.394776   -2.491714
    138          1           0      -16.259181   -1.398579   -0.109937
    139          1           0      -14.847212   -2.182266   -0.806448
    140          1           0      -16.220309   -1.796291   -1.775394
 ---------------------------------------------------------------------

 SCF Done:  E(RZINDO/S) =  -474.316769229     A.U. after   19 cycles

 Excitation energies and oscillator strengths:

 Excited State   1:      Singlet-A      1.2928 eV  959.00 nm  f=0.5808  <S**2>=0.000
     175 ->178         0.17714
     176 ->177         0.66643
 This state for optimization and/or second-order correction.
 Total Energy, E(CIS/TDA) =  -474.269257918
 Copying the excited state density for this state as the 1-particle RhoCI density.

 Excited State   2:      Singlet-A      1.9709 eV  629.07 nm  f=0.0579  <S**2>=0.000
     175 ->177         0.55377
     176 ->178        -0.40707

 Excited State   3:      Singlet-A      2.8811 eV  430.34 nm  f=0.0003  <S**2>=0.000
     168 ->177         0.36785
     168 ->178        -0.21466
     168 ->179        -0.37935
     168 ->180         0.17244
     168 ->186        -0.23438

 Excited State   4:      Singlet-A      3.0271 eV  409.58 nm  f=0.9622  <S**2>=0.000
     171 ->177        -0.16213
     175 ->177         0.34587
     176 ->178         0.52154
     176 ->179         0.20544

 Excited State   5:      Singlet-A      3.0985 eV  400.14 nm  f=0.0066  <S**2>=0.000
     170 ->177         0.27447
     170 ->179         0.28184
     170 ->180         0.23217
     170 ->181        -0.13386
     170 ->182         0.15404
     170 ->183        -0.30997
     170 ->186         0.19395
     170 ->187        -0.13767

 The electronic state is 1-A.
 Alpha  occ. eigenvalues --   -1.83551  -1.82474  -1.80653  -1.74174  -1.71136
 Alpha  occ. eigenvalues --   -1.69498  -1.65379  -1.60447  -1.58574  -1.58431
 Alpha  occ. eigenvalues --   -1.54096  -1.50619  -1.49080  -1.48270  -1.47557
 Alpha  occ. eigenvalues --   -1.43895  -1.40956  -1.40624  -1.39124  -1.38900
 Alpha  occ. eigenvalues --   -1.35659  -1.34353  -1.32914  -1.31499  -1.29101
 Alpha  occ. eigenvalues --   -1.27639  -1.25848  -1.22244  -1.20711  -1.17919
 Alpha  occ. eigenvalues --   -1.16032  -1.15433  -1.14559  -1.14243  -1.12324
 Alpha  occ. eigenvalues --   -1.11531  -1.10466  -1.09959  -1.04530  -1.03871
 Alpha  occ. eigenvalues --   -1.03135  -1.00524  -0.98884  -0.97714  -0.96856
 Alpha  occ. eigenvalues --   -0.96250  -0.95285  -0.94061  -0.92931  -0.92833
 Alpha  occ. eigenvalues --   -0.90897  -0.90755  -0.88417  -0.88330  -0.88080
 Alpha  occ. eigenvalues --   -0.86441  -0.84467  -0.83037  -0.81845  -0.79570
 Alpha  occ. eigenvalues --   -0.79185  -0.78279  -0.77288  -0.76956  -0.76153
 Alpha  occ. eigenvalues --   -0.75222  -0.75122  -0.74909  -0.73468  -0.73241
 Alpha  occ. eigenvalues --   -0.73001  -0.71889  -0.71602  -0.71118  -0.70621
 Alpha  occ. eigenvalues --   -0.70012  -0.69290  -0.68439  -0.67896  -0.67480
 Alpha  occ. eigenvalues --   -0.66940  -0.66413  -0.66186  -0.65928  -0.65698
 Alpha  occ. eigenvalues --   -0.65380  -0.64943  -0.64672  -0.64054  -0.63522
 Alpha  occ. eigenvalues --   -0.63095  -0.62629  -0.62549  -0.62185  -0.61477
 Alpha  occ. eigenvalues --   -0.61209  -0.60773  -0.60590  -0.60394  -0.59922
 Alpha  occ. eigenvalues --   -0.59596  -0.59403  -0.58815  -0.58420  -0.57967
 Alpha  occ. eigenvalues --   -0.57939  -0.57449  -0.57341  -0.56938  -0.56624
 Alpha  occ. eigenvalues --   -0.56413  -0.55530  -0.55373  -0.55210  -0.55009
 Alpha  occ. eigenvalues --   -0.54259  -0.53800  -0.53760  -0.53432  -0.53081
 Alpha  occ. eigenvalues --   -0.52963  -0.52588  -0.52185  -0.51923  -0.51427
 Alpha  occ. eigenvalues --   -0.50690  -0.50616  -0.50295  -0.50078  -0.49925
 Alpha  occ. eigenvalues --   -0.49746  -0.49333  -0.49303  -0.49062  -0.48737
 Alpha  occ. eigenvalues --   -0.48539  -0.48433  -0.48293  -0.48018  -0.47431
 Alpha  occ. eigenvalues --   -0.47179  -0.46941  -0.46659  -0.46555  -0.46248
 Alpha  occ. eigenvalues --   -0.46118  -0.45853  -0.45685  -0.45511  -0.45381
 Alpha  occ. eigenvalues --   -0.45261  -0.45020  -0.44822  -0.44344  -0.43482
 Alpha  occ. eigenvalues --   -0.43340  -0.43021  -0.42467  -0.42246  -0.42073
 Alpha  occ. eigenvalues --   -0.41559  -0.41301  -0.40689  -0.39269  -0.38824
 Alpha  occ. eigenvalues --   -0.38495  -0.36410  -0.35369  -0.35051  -0.33608
 Alpha  occ. eigenvalues --   -0.33305  -0.32528  -0.32441  -0.31387  -0.26522
 Alpha  occ. eigenvalues --   -0.21690
 Alpha virt. eigenvalues --   -0.08281  -0.01728  -0.00201   0.01872   0.01962
 Alpha virt. eigenvalues --    0.02559   0.02743   0.03349   0.04705   0.05371
 Alpha virt. eigenvalues --    0.06672   0.07159   0.07453   0.08068   0.08335

 Mulliken charges:
               1
     1  Mg   0.426917
     2  C   -0.022776
     3  C   -0.106660
     4  C   -0.049633
     5  C   -0.048886
     6  N   -0.288272
     7  C    0.092084
     8  C    0.005412
     9  C    0.013505
    10  C    0.167054
    11  C   -0.043525
    12  C   -0.028554
    13  C    0.002427
    14  C    0.470169
    15  O   -0.529264
    16  O   -0.270013
    17  N   -0.337824
    18  C    0.151796
    19  C    0.017712
    20  C   -0.043182
    21  C    0.139448
    22  C   -0.049223
    23  C    0.332782
    24  O   -0.534159
    25  C   -0.032651
    26  N   -0.251227
    27  C    0.163115
    28  C   -0.004618
    29  C    0.010132
    30  C    0.097294
    31  C   -0.056984
    32  C   -0.032511
    33  C   -0.064723
    34  N   -0.326694
    35  C    0.058475
    36  C    0.026114
    37  C   -0.055870
    38  C    0.105828
    39  C   -0.034349
    40  C    0.325781
    41  O   -0.520162
    42  C    0.050014
    43  C    0.484407
    44  O   -0.500811
    45  O   -0.296531
    46  C    0.071692
    47  C    0.116513
    48  C   -0.075285
    49  C   -0.010459
    50  C   -0.050418
    51  C   -0.018270
    52  C   -0.024378
    53  C   -0.028847
    54  C   -0.014373
    55  C   -0.060382
    56  C   -0.033414
    57  C   -0.033647
    58  C   -0.026313
    59  C   -0.021206
    60  C   -0.057673
    61  C   -0.039960
    62  C   -0.037551
    63  C   -0.042782
    64  C   -0.015887
    65  C   -0.064119
    66  C   -0.064530
    67  H    0.021931
    68  H    0.032116
    69  H    0.030697
    70  H    0.037409
    71  H    0.036652
    72  H    0.036714
    73  H    0.023962
    74  H    0.023221
    75  H    0.031336
    76  H    0.015967
    77  H    0.044001
    78  H    0.052621
    79  H    0.024979
    80  H    0.027792
    81  H    0.031248
    82  H    0.040345
    83  H    0.037757
    84  H    0.041324
    85  H    0.034936
    86  H    0.039332
    87  H    0.020530
    88  H    0.010461
    89  H    0.025971
    90  H    0.023078
    91  H    0.029094
    92  H    0.013407
    93  H    0.022661
    94  H    0.015921
    95  H    0.039368
    96  H    0.017962
    97  H    0.042123
    98  H    0.055394
    99  H    0.046616
   100  H    0.031925
   101  H    0.057023
   102  H    0.030404
   103  H    0.050781
   104  H    0.025067
   105  H    0.036280
   106  H    0.014872
   107  H    0.027660
   108  H    0.018331
   109  H    0.015805
   110  H    0.009265
   111  H    0.014567
   112  H    0.022367
   113  H    0.013150
   114  H    0.027730
   115  H    0.022452
   116  H    0.016563
   117  H    0.018284
   118  H    0.014291
   119  H    0.020656
   120  H    0.016764
   121  H    0.016886
   122  H    0.029414
   123  H    0.007372
   124  H    0.017588
   125  H    0.017295
   126  H    0.013917
   127  H    0.017068
   128  H    0.013645
   129  H    0.023421
   130  H    0.017741
   131  H    0.027597
   132  H    0.026540
   133  H    0.025619
   134  H    0.032838
   135  H    0.014774
   136  H    0.013817
   137  H    0.026388
   138  H    0.015299
   139  H    0.017082
   140  H    0.014470
 Sum of Mulliken charges =  -0.00000

 Dipole moment (field-independent basis, Debye):
    X=             -5.5267    Y=              4.4566    Z=              2.5496  Tot=              7.5436
 N-N= 4.284784627583D+03 E-N= 0.000000000000D+00  KE=-9.244384531643D+03
 Leave Link  601 at Wed May  4 06:36:47 2022, MaxMem=  6710886400 cpu:               0.8 elap:               0.1
 (Enter /sw/apps/gaussian-16.0/g16/l9999.exe)
 1\1\GINC-BP1-COMPUTE098\SP\RZINDO CIS\STO-3G\C55H74Mg1N4O6\OF15641\04-
 May-2022\0\\#p ZINDO=(nstates=5)\\step_1401_chromophore_4 ZINDO\\0,1\M
 g,0,9.162,3.331,27.972\C,0,10.607,1.716,30.792\C,0,7.703,5.517,30.056\
 C,0,7.671,4.508,25.382\C,0,10.414,0.615,25.918\N,0,9.048,3.433,30.201\
 C,0,9.872,2.834,31.135\C,0,9.76,3.598,32.522\C,0,8.731,4.692,32.247\C,
 0,8.487,4.545,30.751\C,0,7.351,4.508,32.971\C,0,11.191,4.093,33.111\C,
 0,11.59,3.684,34.588\C,0,10.515,3.885,35.667\O,0,9.65,4.734,35.626\O,0

 Normal termination of Gaussian 16 at Wed May  4 06:36:48 2022.
