 Gaussian 16, Revision A.03,
 Gaussian 16:  ES64L-G16RevA.03 25-Dec-2016

 ------------------------------
 #p blyp/Def2SVP td=(nstates=5)
 ------------------------------

 -------------------------------------------------
 step_201_chromophore_3 TDDFT with blyp functional
 -------------------------------------------------
 Symbolic Z-matrix:
 Charge =  0 Multiplicity = 1

                         Standard orientation:
 ---------------------------------------------------------------------
 Center     Atomic      Atomic             Coordinates (Angstroms)
 Number     Number       Type             X           Y           Z
 ---------------------------------------------------------------------
      1         12           0       -5.496068    0.740832   -0.073132
      2          6           0       -3.996611   -2.490922   -0.276625
      3          6           0       -2.303477    2.052782   -0.039738
      4          6           0       -6.881471    3.682849    0.327199
      5          6           0       -8.447028   -0.820469    0.681321
      6          7           0       -3.384617   -0.034138   -0.153883
      7          6           0       -3.122191   -1.388503   -0.405390
      8          6           0       -1.658742   -1.602367   -0.565270
      9          6           0       -1.102002   -0.218242   -0.157390
     10          6           0       -2.295153    0.636872   -0.105099
     11          6           0       -0.315211   -0.192886    1.168087
     12          6           0       -1.253323   -2.199737   -2.022737
     13          6           0       -0.081478   -3.230176   -2.012407
     14          6           0        0.902625   -3.090563   -0.832120
     15          8           0        1.003148   -3.876041    0.117580
     16          8           0        1.787973   -2.120224   -1.122747
     17          7           0       -4.691498    2.663995    0.167309
     18          6           0       -3.341879    3.017952    0.006689
     19          6           0       -3.254573    4.432492    0.090436
     20          6           0       -4.542809    4.955691    0.149759
     21          6           0       -5.467170    3.769277    0.241421
     22          6           0       -1.954310    5.222571    0.257758
     23          6           0       -4.971691    6.389041    0.316334
     24          8           0       -6.100356    6.748790    0.511652
     25          6           0       -3.988108    7.475307    0.256297
     26          7           0       -7.380985    1.313753    0.749373
     27          6           0       -7.721823    2.602505    0.536321
     28          6           0       -9.186801    2.760883    0.809395
     29          6           0       -9.743758    1.376828    0.513390
     30          6           0       -8.485133    0.584998    0.659372
     31          6           0       -9.556192    3.282187    2.285215
     32          6           0      -10.404425    1.107647   -0.878620
     33          6           0      -11.912730    0.738570   -0.798370
     34          7           0       -6.134679   -1.227119    0.110287
     35          6           0       -7.358862   -1.694880    0.410236
     36          6           0       -7.399487   -3.152259    0.376645
     37          6           0       -6.044750   -3.485112    0.140133
     38          6           0       -5.315475   -2.298256    0.004346
     39          6           0       -8.590871   -3.993945    0.618239
     40          6           0       -5.127262   -4.594190   -0.022640
     41          8           0       -5.373251   -5.773175    0.093362
     42          6           0       -3.762122   -3.996094   -0.409888
     43          6           0       -2.860495   -4.506797    0.595006
     44          8           0       -2.831485   -4.271599    1.820196
     45          8           0       -2.082472   -5.513644    0.070601
     46          6           0       -0.829543   -5.959165    0.921535
     47          6           0        2.996610   -1.823523   -0.326124
     48          6           0        4.052620   -1.588144   -1.362505
     49          6           0        5.325837   -1.905018   -1.322520
     50          6           0        5.861408   -2.762515   -0.132429
     51          6           0        6.362639   -1.608381   -2.387635
     52          6           0        7.670218   -0.928831   -2.034682
     53          6           0        7.597697    0.635751   -2.244704
     54          6           0        8.577405    1.076818   -3.356662
     55          6           0        7.913751    1.745535   -4.570141
     56          6           0        9.725722    1.969468   -2.810240
     57          6           0       10.716473    1.234910   -1.887016
     58          6           0       10.652914    1.647145   -0.385041
     59          6           0       11.895429    2.404602    0.164135
     60          6           0       12.082357    3.676523   -0.555197
     61          6           0       13.250285    1.537865    0.302218
     62          6           0       13.695760    1.463812    1.826049
     63          6           0       13.203110    0.088212    2.365902
     64          6           0       13.375956   -0.123102    3.958510
     65          6           0       14.600485   -1.077815    4.253105
     66          6           0       12.150652   -0.600143    4.679022
     67          1           0       -1.339788    2.540190   -0.206324
     68          1           0       -7.353249    4.664668    0.393131
     69          1           0       -9.413154   -1.316431    0.795277
     70          1           0       -1.417051   -2.323616    0.215009
     71          1           0       -0.465513    0.121170   -0.974246
     72          1           0       -0.268665   -1.218342    1.534949
     73          1           0       -0.769086    0.557192    1.815797
     74          1           0        0.705303    0.160600    1.022899
     75          1           0       -1.143344   -1.353551   -2.700600
     76          1           0       -2.195350   -2.603920   -2.393333
     77          1           0        0.348358   -3.329379   -3.008785
     78          1           0       -0.606251   -4.169256   -1.837460
     79          1           0       -1.777957    5.956003   -0.529421
     80          1           0       -1.177846    4.459772    0.315669
     81          1           0       -1.996667    5.676939    1.247872
     82          1           0       -3.458899    7.516951    1.208382
     83          1           0       -4.558634    8.399464    0.157871
     84          1           0       -3.452789    7.481885   -0.692997
     85          1           0       -9.507849    3.434451    0.013922
     86          1           0      -10.496760    1.102759    1.252552
     87          1           0       -8.750808    3.040928    2.978832
     88          1           0      -10.474429    2.930299    2.755411
     89          1           0       -9.577958    4.371153    2.313840
     90          1           0       -9.829189    0.323639   -1.370952
     91          1           0      -10.346912    1.989708   -1.516867
     92          1           0      -12.416989    1.203473   -1.646788
     93          1           0      -12.426784    1.212311    0.037875
     94          1           0      -11.853155   -0.343542   -0.692561
     95          1           0       -8.901563   -3.738614    1.631376
     96          1           0       -8.398656   -5.063855    0.694318
     97          1           0       -9.410737   -3.685699   -0.029487
     98          1           0       -3.421974   -4.323002   -1.392728
     99          1           0       -0.677416   -5.307617    1.781043
    100          1           0       -0.001954   -5.892984    0.214382
    101          1           0       -0.886773   -6.971366    1.321259
    102          1           0        3.246416   -2.610015    0.386690
    103          1           0        2.881119   -0.895358    0.232621
    104          1           0        3.787538   -0.973449   -2.222691
    105          1           0        5.961602   -2.230538    0.814186
    106          1           0        6.821229   -3.237614   -0.336690
    107          1           0        5.099687   -3.526631    0.019618
    108          1           0        5.889884   -1.137176   -3.249385
    109          1           0        6.767102   -2.598944   -2.593812
    110          1           0        8.508376   -1.410929   -2.537759
    111          1           0        7.820176   -1.112787   -0.970298
    112          1           0        7.730840    1.059699   -1.249242
    113          1           0        6.617206    1.053475   -2.472895
    114          1           0        8.959832    0.149934   -3.783420
    115          1           0        7.136130    2.475236   -4.347166
    116          1           0        7.353942    1.062438   -5.208584
    117          1           0        8.557138    2.345056   -5.215134
    118          1           0        9.215235    2.686912   -2.168019
    119          1           0       10.260836    2.542922   -3.566712
    120          1           0       11.763268    1.211630   -2.189360
    121          1           0       10.250263    0.253799   -1.800939
    122          1           0       10.526513    0.821790    0.315393
    123          1           0        9.743151    2.244917   -0.327853
    124          1           0       11.550127    2.612632    1.176341
    125          1           0       11.945720    3.629072   -1.636053
    126          1           0       13.024378    4.200650   -0.396288
    127          1           0       11.313616    4.348410   -0.174081
    128          1           0       14.129368    2.037357   -0.104255
    129          1           0       13.132615    0.562978   -0.171176
    130          1           0       13.244909    2.281988    2.386034
    131          1           0       14.784891    1.439913    1.796557
    132          1           0       13.734953   -0.691537    1.820298
    133          1           0       12.147822    0.123769    2.098352
    134          1           0       13.584178    0.849346    4.405534
    135          1           0       14.468699   -2.029505    3.738194
    136          1           0       14.774465   -1.191941    5.323552
    137          1           0       15.488411   -0.596435    3.843068
    138          1           0       11.413374   -0.721575    3.884903
    139          1           0       11.709428    0.144145    5.341812
    140          1           0       12.244859   -1.556647    5.193044
 ---------------------------------------------------------------------

 SCF Done:  E(RB-LYP) =  -3007.35507373     A.U. after   21 cycles

 Excitation energies and oscillator strengths:

 Excited State   1:      Singlet-A      1.7962 eV  690.25 nm  f=0.2794  <S**2>=0.000
     244 -> 247       -0.13205
     245 -> 248       -0.19332
     246 -> 247        0.67850
     246 <- 247       -0.14725
 This state for optimization and/or second-order correction.
 Total Energy, E(TD-HF/TD-DFT) =  -3007.28906424
 Copying the excited state density for this state as the 1-particle RhoCI density.

 Excited State   2:      Singlet-A      1.9324 eV  641.62 nm  f=0.0210  <S**2>=0.000
     244 -> 247        0.67514
     245 -> 247        0.15677
     246 -> 247        0.12181

 Excited State   3:      Singlet-A      2.0615 eV  601.41 nm  f=0.0532  <S**2>=0.000
     244 -> 247       -0.15806
     245 -> 247        0.61099
     246 -> 248        0.28153

 Excited State   4:      Singlet-A      2.1257 eV  583.26 nm  f=0.0035  <S**2>=0.000
     243 -> 247        0.69855

 Excited State   5:      Singlet-A      2.4974 eV  496.44 nm  f=0.0003  <S**2>=0.000
     241 -> 247        0.60101
     242 -> 247       -0.36928

 The electronic state is 1-A.
 Alpha  occ. eigenvalues --  -46.27416 -18.83351 -18.80503 -18.77776 -18.75583
 Alpha  occ. eigenvalues --  -18.75125 -18.74912 -14.03036 -14.02393 -14.00655
 Alpha  occ. eigenvalues --  -14.00570 -10.05533 -10.02729  -9.99551  -9.99383
 Alpha  occ. eigenvalues --   -9.98814  -9.96080  -9.95950  -9.95839  -9.95838
 Alpha  occ. eigenvalues --   -9.95647  -9.95485  -9.95351  -9.95235  -9.94258
 Alpha  occ. eigenvalues --   -9.94241  -9.94144  -9.93675  -9.93588  -9.93473
 Alpha  occ. eigenvalues --   -9.93471  -9.93389  -9.93354  -9.93303  -9.93206
 Alpha  occ. eigenvalues --   -9.92983  -9.92982  -9.92838  -9.92784  -9.92713
 Alpha  occ. eigenvalues --   -9.92650  -9.92649  -9.92630  -9.92277  -9.92190
 Alpha  occ. eigenvalues --   -9.92167  -9.92157  -9.92106  -9.92068  -9.92041
 Alpha  occ. eigenvalues --   -9.92038  -9.92008  -9.91942  -9.91611  -9.91599
 Alpha  occ. eigenvalues --   -9.91563  -9.91493  -9.91420  -9.91261  -9.91251
 Alpha  occ. eigenvalues --   -9.91172  -9.91059  -9.91038  -9.90547  -9.90546
 Alpha  occ. eigenvalues --   -9.90373  -2.92001  -1.72408  -1.71907  -1.71697
 Alpha  occ. eigenvalues --   -0.98901  -0.94823  -0.92475  -0.91858  -0.90551
 Alpha  occ. eigenvalues --   -0.87874  -0.87628  -0.86370  -0.86199  -0.84621
 Alpha  occ. eigenvalues --   -0.76540  -0.74731  -0.73412  -0.72712  -0.72303
 Alpha  occ. eigenvalues --   -0.72127  -0.71649  -0.70834  -0.70665  -0.70365
 Alpha  occ. eigenvalues --   -0.70025  -0.69668  -0.68586  -0.67475  -0.67203
 Alpha  occ. eigenvalues --   -0.66935  -0.65951  -0.65555  -0.64918  -0.64724
 Alpha  occ. eigenvalues --   -0.64391  -0.62525  -0.61999  -0.61595  -0.61216
 Alpha  occ. eigenvalues --   -0.60406  -0.60136  -0.60042  -0.59878  -0.59630
 Alpha  occ. eigenvalues --   -0.58527  -0.57553  -0.57161  -0.56676  -0.54556
 Alpha  occ. eigenvalues --   -0.54378  -0.54089  -0.53017  -0.52655  -0.51764
 Alpha  occ. eigenvalues --   -0.51519  -0.51410  -0.51090  -0.50586  -0.50481
 Alpha  occ. eigenvalues --   -0.50083  -0.48997  -0.47778  -0.47223  -0.46850
 Alpha  occ. eigenvalues --   -0.46152  -0.46084  -0.45574  -0.45399  -0.44525
 Alpha  occ. eigenvalues --   -0.44281  -0.44039  -0.43117  -0.42790  -0.42592
 Alpha  occ. eigenvalues --   -0.42267  -0.41916  -0.41596  -0.41368  -0.41332
 Alpha  occ. eigenvalues --   -0.41229  -0.41014  -0.40849  -0.40691  -0.40472
 Alpha  occ. eigenvalues --   -0.40008  -0.39627  -0.39569  -0.39476  -0.39256
 Alpha  occ. eigenvalues --   -0.38884  -0.38677  -0.38576  -0.38367  -0.38168
 Alpha  occ. eigenvalues --   -0.38082  -0.37835  -0.37754  -0.37600  -0.37534
 Alpha  occ. eigenvalues --   -0.37410  -0.37006  -0.36874  -0.36571  -0.36258
 Alpha  occ. eigenvalues --   -0.35932  -0.35790  -0.35766  -0.35505  -0.35323
 Alpha  occ. eigenvalues --   -0.35254  -0.35161  -0.34950  -0.34715  -0.34689
 Alpha  occ. eigenvalues --   -0.34645  -0.34363  -0.34182  -0.33987  -0.33809
 Alpha  occ. eigenvalues --   -0.33692  -0.33587  -0.33424  -0.33293  -0.33189
 Alpha  occ. eigenvalues --   -0.32947  -0.32937  -0.32808  -0.32648  -0.32498
 Alpha  occ. eigenvalues --   -0.32385  -0.32178  -0.32035  -0.31896  -0.31249
 Alpha  occ. eigenvalues --   -0.31163  -0.31087  -0.30974  -0.30874  -0.30727
 Alpha  occ. eigenvalues --   -0.30630  -0.30482  -0.30306  -0.30145  -0.29913
 Alpha  occ. eigenvalues --   -0.29625  -0.29460  -0.29416  -0.28904  -0.28749
 Alpha  occ. eigenvalues --   -0.28658  -0.28445  -0.28396  -0.28153  -0.27850
 Alpha  occ. eigenvalues --   -0.27720  -0.27462  -0.27268  -0.26844  -0.26676
 Alpha  occ. eigenvalues --   -0.26311  -0.26289  -0.26130  -0.25951  -0.25938
 Alpha  occ. eigenvalues --   -0.25705  -0.24357  -0.24011  -0.24002  -0.23393
 Alpha  occ. eigenvalues --   -0.23373  -0.22679  -0.21847  -0.21565  -0.20680
 Alpha  occ. eigenvalues --   -0.20281  -0.20189  -0.18792  -0.18117  -0.17156
 Alpha  occ. eigenvalues --   -0.15344
 Alpha virt. eigenvalues --   -0.11097  -0.06736  -0.05968  -0.04369  -0.04167
 Alpha virt. eigenvalues --   -0.03115  -0.02147  -0.01938  -0.01093   0.00517
 Alpha virt. eigenvalues --    0.01435   0.02162   0.02309   0.02570   0.02823

 Mulliken charges:
               1
     1  Mg   0.674495
     2  C   -0.056258
     3  C   -0.070148
     4  C   -0.030813
     5  C   -0.092405
     6  N   -0.147166
     7  C   -0.085809
     8  C   -0.077762
     9  C    0.047094
    10  C   -0.024717
    11  C    0.144912
    12  C    0.119899
    13  C    0.163243
    14  C    0.097442
    15  O   -0.204365
    16  O   -0.264611
    17  N   -0.295804
    18  C    0.111342
    19  C   -0.159755
    20  C    0.059726
    21  C    0.058558
    22  C    0.209937
    23  C   -0.132851
    24  O   -0.141995
    25  C    0.163660
    26  N   -0.205586
    27  C    0.016905
    28  C    0.072788
    29  C    0.020615
    30  C    0.021450
    31  C    0.126293
    32  C    0.084270
    33  C    0.061103
    34  N   -0.232135
    35  C    0.101450
    36  C   -0.194527
    37  C    0.102421
    38  C    0.110055
    39  C    0.200990
    40  C   -0.096574
    41  O   -0.106896
    42  C    0.173435
    43  C    0.087782
    44  O   -0.212286
    45  O   -0.301045
    46  C    0.209551
    47  C    0.340407
    48  C   -0.125559
    49  C   -0.126724
    50  C    0.094555
    51  C    0.186902
    52  C    0.036267
    53  C    0.096230
    54  C   -0.026156
    55  C    0.087889
    56  C    0.101294
    57  C    0.092761
    58  C    0.035922
    59  C   -0.025675
    60  C    0.116759
    61  C    0.094069
    62  C    0.043367
    63  C    0.055744
    64  C   -0.061704
    65  C    0.081343
    66  C    0.122336
    67  H   -0.064290
    68  H   -0.047770
    69  H   -0.076309
    70  H    0.016743
    71  H   -0.037763
    72  H    0.013693
    73  H   -0.005108
    74  H   -0.021579
    75  H   -0.031088
    76  H   -0.027648
    77  H    0.005744
    78  H   -0.008274
    79  H    0.006999
    80  H   -0.028804
    81  H   -0.000491
    82  H    0.011130
    83  H   -0.024541
    84  H   -0.003751
    85  H   -0.041917
    86  H   -0.033579
    87  H   -0.005772
    88  H   -0.003688
    89  H   -0.001738
    90  H   -0.015237
    91  H   -0.027392
    92  H   -0.005660
    93  H   -0.008745
    94  H    0.009900
    95  H   -0.005598
    96  H    0.006231
    97  H   -0.001798
    98  H   -0.000091
    99  H    0.029475
   100  H    0.031293
   101  H    0.012921
   102  H   -0.000361
   103  H    0.012970
   104  H   -0.047512
   105  H    0.004600
   106  H   -0.010930
   107  H    0.011835
   108  H   -0.030840
   109  H   -0.033870
   110  H   -0.007109
   111  H   -0.034581
   112  H   -0.034534
   113  H   -0.035031
   114  H   -0.030811
   115  H   -0.032832
   116  H   -0.024118
   117  H   -0.021466
   118  H   -0.040048
   119  H   -0.033781
   120  H   -0.014314
   121  H   -0.038784
   122  H   -0.037450
   123  H   -0.038261
   124  H   -0.043594
   125  H   -0.015489
   126  H   -0.024184
   127  H   -0.031531
   128  H   -0.038310
   129  H   -0.023725
   130  H   -0.011797
   131  H   -0.028179
   132  H   -0.024807
   133  H   -0.027013
   134  H   -0.041325
   135  H   -0.007014
   136  H   -0.010192
   137  H   -0.021101
   138  H   -0.040317
   139  H   -0.018080
   140  H   -0.017547
 Sum of Mulliken charges =  -0.00000

 Dipole moment (field-independent basis, Debye):
    X=              4.2868    Y=              3.2090    Z=             -3.5867  Tot=              6.4450
 Quadrupole moment (field-independent basis, Debye-Ang):
   XX=           -371.2275   YY=           -448.3892   ZZ=           -404.5972
   XY=             -9.4446   XZ=              8.3352   YZ=              7.8287

 Normal termination of Gaussian 16 at Wed May  4 17:22:10 2022.
