 Gaussian 16, Revision A.03,
 Gaussian 16:  ES64L-G16RevA.03 25-Dec-2016

 -----------------------------------
 #p cam-b3lyp/Def2SVP td=(nstates=5)
 -----------------------------------

 ------------------------------------------------------
 step_201_chromophore_3 TDDFT with cam-b3lyp functional
 ------------------------------------------------------
 Symbolic Z-matrix:
 Charge =  0 Multiplicity = 1

                         Standard orientation:
 ---------------------------------------------------------------------
 Center     Atomic      Atomic             Coordinates (Angstroms)
 Number     Number       Type             X           Y           Z
 ---------------------------------------------------------------------
      1         12           0       -5.496068    0.740832   -0.073132
      2          6           0       -3.996611   -2.490922   -0.276625
      3          6           0       -2.303477    2.052782   -0.039738
      4          6           0       -6.881471    3.682849    0.327199
      5          6           0       -8.447028   -0.820469    0.681321
      6          7           0       -3.384617   -0.034138   -0.153883
      7          6           0       -3.122191   -1.388503   -0.405390
      8          6           0       -1.658742   -1.602367   -0.565270
      9          6           0       -1.102002   -0.218242   -0.157390
     10          6           0       -2.295153    0.636872   -0.105099
     11          6           0       -0.315211   -0.192886    1.168087
     12          6           0       -1.253323   -2.199737   -2.022737
     13          6           0       -0.081478   -3.230176   -2.012407
     14          6           0        0.902625   -3.090563   -0.832120
     15          8           0        1.003148   -3.876041    0.117580
     16          8           0        1.787973   -2.120224   -1.122747
     17          7           0       -4.691498    2.663995    0.167309
     18          6           0       -3.341879    3.017952    0.006689
     19          6           0       -3.254573    4.432492    0.090436
     20          6           0       -4.542809    4.955691    0.149759
     21          6           0       -5.467170    3.769277    0.241421
     22          6           0       -1.954310    5.222571    0.257758
     23          6           0       -4.971691    6.389041    0.316334
     24          8           0       -6.100356    6.748790    0.511652
     25          6           0       -3.988108    7.475307    0.256297
     26          7           0       -7.380985    1.313753    0.749373
     27          6           0       -7.721823    2.602505    0.536321
     28          6           0       -9.186801    2.760883    0.809395
     29          6           0       -9.743758    1.376828    0.513390
     30          6           0       -8.485133    0.584998    0.659372
     31          6           0       -9.556192    3.282187    2.285215
     32          6           0      -10.404425    1.107647   -0.878620
     33          6           0      -11.912730    0.738570   -0.798370
     34          7           0       -6.134679   -1.227119    0.110287
     35          6           0       -7.358862   -1.694880    0.410236
     36          6           0       -7.399487   -3.152259    0.376645
     37          6           0       -6.044750   -3.485112    0.140133
     38          6           0       -5.315475   -2.298256    0.004346
     39          6           0       -8.590871   -3.993945    0.618239
     40          6           0       -5.127262   -4.594190   -0.022640
     41          8           0       -5.373251   -5.773175    0.093362
     42          6           0       -3.762122   -3.996094   -0.409888
     43          6           0       -2.860495   -4.506797    0.595006
     44          8           0       -2.831485   -4.271599    1.820196
     45          8           0       -2.082472   -5.513644    0.070601
     46          6           0       -0.829543   -5.959165    0.921535
     47          6           0        2.996610   -1.823523   -0.326124
     48          6           0        4.052620   -1.588144   -1.362505
     49          6           0        5.325837   -1.905018   -1.322520
     50          6           0        5.861408   -2.762515   -0.132429
     51          6           0        6.362639   -1.608381   -2.387635
     52          6           0        7.670218   -0.928831   -2.034682
     53          6           0        7.597697    0.635751   -2.244704
     54          6           0        8.577405    1.076818   -3.356662
     55          6           0        7.913751    1.745535   -4.570141
     56          6           0        9.725722    1.969468   -2.810240
     57          6           0       10.716473    1.234910   -1.887016
     58          6           0       10.652914    1.647145   -0.385041
     59          6           0       11.895429    2.404602    0.164135
     60          6           0       12.082357    3.676523   -0.555197
     61          6           0       13.250285    1.537865    0.302218
     62          6           0       13.695760    1.463812    1.826049
     63          6           0       13.203110    0.088212    2.365902
     64          6           0       13.375956   -0.123102    3.958510
     65          6           0       14.600485   -1.077815    4.253105
     66          6           0       12.150652   -0.600143    4.679022
     67          1           0       -1.339788    2.540190   -0.206324
     68          1           0       -7.353249    4.664668    0.393131
     69          1           0       -9.413154   -1.316431    0.795277
     70          1           0       -1.417051   -2.323616    0.215009
     71          1           0       -0.465513    0.121170   -0.974246
     72          1           0       -0.268665   -1.218342    1.534949
     73          1           0       -0.769086    0.557192    1.815797
     74          1           0        0.705303    0.160600    1.022899
     75          1           0       -1.143344   -1.353551   -2.700600
     76          1           0       -2.195350   -2.603920   -2.393333
     77          1           0        0.348358   -3.329379   -3.008785
     78          1           0       -0.606251   -4.169256   -1.837460
     79          1           0       -1.777957    5.956003   -0.529421
     80          1           0       -1.177846    4.459772    0.315669
     81          1           0       -1.996667    5.676939    1.247872
     82          1           0       -3.458899    7.516951    1.208382
     83          1           0       -4.558634    8.399464    0.157871
     84          1           0       -3.452789    7.481885   -0.692997
     85          1           0       -9.507849    3.434451    0.013922
     86          1           0      -10.496760    1.102759    1.252552
     87          1           0       -8.750808    3.040928    2.978832
     88          1           0      -10.474429    2.930299    2.755411
     89          1           0       -9.577958    4.371153    2.313840
     90          1           0       -9.829189    0.323639   -1.370952
     91          1           0      -10.346912    1.989708   -1.516867
     92          1           0      -12.416989    1.203473   -1.646788
     93          1           0      -12.426784    1.212311    0.037875
     94          1           0      -11.853155   -0.343542   -0.692561
     95          1           0       -8.901563   -3.738614    1.631376
     96          1           0       -8.398656   -5.063855    0.694318
     97          1           0       -9.410737   -3.685699   -0.029487
     98          1           0       -3.421974   -4.323002   -1.392728
     99          1           0       -0.677416   -5.307617    1.781043
    100          1           0       -0.001954   -5.892984    0.214382
    101          1           0       -0.886773   -6.971366    1.321259
    102          1           0        3.246416   -2.610015    0.386690
    103          1           0        2.881119   -0.895358    0.232621
    104          1           0        3.787538   -0.973449   -2.222691
    105          1           0        5.961602   -2.230538    0.814186
    106          1           0        6.821229   -3.237614   -0.336690
    107          1           0        5.099687   -3.526631    0.019618
    108          1           0        5.889884   -1.137176   -3.249385
    109          1           0        6.767102   -2.598944   -2.593812
    110          1           0        8.508376   -1.410929   -2.537759
    111          1           0        7.820176   -1.112787   -0.970298
    112          1           0        7.730840    1.059699   -1.249242
    113          1           0        6.617206    1.053475   -2.472895
    114          1           0        8.959832    0.149934   -3.783420
    115          1           0        7.136130    2.475236   -4.347166
    116          1           0        7.353942    1.062438   -5.208584
    117          1           0        8.557138    2.345056   -5.215134
    118          1           0        9.215235    2.686912   -2.168019
    119          1           0       10.260836    2.542922   -3.566712
    120          1           0       11.763268    1.211630   -2.189360
    121          1           0       10.250263    0.253799   -1.800939
    122          1           0       10.526513    0.821790    0.315393
    123          1           0        9.743151    2.244917   -0.327853
    124          1           0       11.550127    2.612632    1.176341
    125          1           0       11.945720    3.629072   -1.636053
    126          1           0       13.024378    4.200650   -0.396288
    127          1           0       11.313616    4.348410   -0.174081
    128          1           0       14.129368    2.037357   -0.104255
    129          1           0       13.132615    0.562978   -0.171176
    130          1           0       13.244909    2.281988    2.386034
    131          1           0       14.784891    1.439913    1.796557
    132          1           0       13.734953   -0.691537    1.820298
    133          1           0       12.147822    0.123769    2.098352
    134          1           0       13.584178    0.849346    4.405534
    135          1           0       14.468699   -2.029505    3.738194
    136          1           0       14.774465   -1.191941    5.323552
    137          1           0       15.488411   -0.596435    3.843068
    138          1           0       11.413374   -0.721575    3.884903
    139          1           0       11.709428    0.144145    5.341812
    140          1           0       12.244859   -1.556647    5.193044
 ---------------------------------------------------------------------

 SCF Done:  E(RCAM-B3LYP) =  -3007.15937413     A.U. after   17 cycles

 Excitation energies and oscillator strengths:

 Excited State   1:      Singlet-A      1.7027 eV  728.14 nm  f=0.3715  <S**2>=0.000
     245 -> 248        0.18321
     246 -> 247        0.68381
     245 <- 248        0.10862
 This state for optimization and/or second-order correction.
 Total Energy, E(TD-HF/TD-DFT) =  -3007.09679943
 Copying the excited state density for this state as the 1-particle RhoCI density.

 Excited State   2:      Singlet-A      2.2831 eV  543.05 nm  f=0.0683  <S**2>=0.000
     245 -> 247        0.61277
     246 -> 248       -0.34023

 Excited State   3:      Singlet-A      3.4347 eV  360.97 nm  f=0.6349  <S**2>=0.000
     243 -> 247        0.21748
     244 -> 247        0.14932
     245 -> 247        0.29995
     246 -> 248        0.58067
     245 <- 247       -0.10537

 Excited State   4:      Singlet-A      3.5137 eV  352.86 nm  f=0.0147  <S**2>=0.000
     243 -> 247       -0.23937
     244 -> 247        0.64087

 Excited State   5:      Singlet-A      3.6159 eV  342.88 nm  f=0.0258  <S**2>=0.000
     246 -> 249        0.51101
     246 -> 250        0.43447
     246 -> 251        0.10627

 The electronic state is 1-A.
 Alpha  occ. eigenvalues --  -46.89005 -19.26252 -19.23441 -19.20771 -19.18830
 Alpha  occ. eigenvalues --  -19.18227 -19.18173 -14.42070 -14.41027 -14.39152
 Alpha  occ. eigenvalues --  -14.38917 -10.40905 -10.38246 -10.34680 -10.33956
 Alpha  occ. eigenvalues --  -10.33711 -10.30501 -10.30195 -10.30172 -10.30168
 Alpha  occ. eigenvalues --  -10.30143 -10.29903 -10.29680 -10.29455 -10.28530
 Alpha  occ. eigenvalues --  -10.28293 -10.28274 -10.28089 -10.27893 -10.27811
 Alpha  occ. eigenvalues --  -10.27716 -10.27669 -10.27556 -10.27149 -10.27149
 Alpha  occ. eigenvalues --  -10.27114 -10.27033 -10.26783 -10.26548 -10.26510
 Alpha  occ. eigenvalues --  -10.26367 -10.26358 -10.26352 -10.26309 -10.25951
 Alpha  occ. eigenvalues --  -10.25926 -10.25889 -10.25845 -10.25798 -10.25761
 Alpha  occ. eigenvalues --  -10.25748 -10.25729 -10.25685 -10.25489 -10.25317
 Alpha  occ. eigenvalues --  -10.25307 -10.25248 -10.25111 -10.25106 -10.24991
 Alpha  occ. eigenvalues --  -10.24920 -10.24799 -10.24682 -10.24646 -10.24111
 Alpha  occ. eigenvalues --  -10.23937  -3.17489  -1.92373  -1.91960  -1.91774
 Alpha  occ. eigenvalues --   -1.17353  -1.13364  -1.11006  -1.10311  -1.08438
 Alpha  occ. eigenvalues --   -1.05699  -1.05366  -1.04123  -1.03835  -1.02230
 Alpha  occ. eigenvalues --   -0.93793  -0.91635  -0.90227  -0.89497  -0.88958
 Alpha  occ. eigenvalues --   -0.88823  -0.88326  -0.87398  -0.87288  -0.86968
 Alpha  occ. eigenvalues --   -0.86376  -0.86163  -0.84904  -0.83741  -0.83350
 Alpha  occ. eigenvalues --   -0.83061  -0.81981  -0.81523  -0.80977  -0.80550
 Alpha  occ. eigenvalues --   -0.80224  -0.78210  -0.77759  -0.77035  -0.76603
 Alpha  occ. eigenvalues --   -0.75789  -0.75410  -0.75402  -0.75167  -0.74821
 Alpha  occ. eigenvalues --   -0.73734  -0.72575  -0.72118  -0.71575  -0.69152
 Alpha  occ. eigenvalues --   -0.68944  -0.68723  -0.67338  -0.67060  -0.65983
 Alpha  occ. eigenvalues --   -0.65711  -0.65583  -0.64980  -0.64628  -0.64599
 Alpha  occ. eigenvalues --   -0.64031  -0.62961  -0.61538  -0.61036  -0.60414
 Alpha  occ. eigenvalues --   -0.59779  -0.59655  -0.59032  -0.58899  -0.57978
 Alpha  occ. eigenvalues --   -0.57786  -0.57344  -0.56279  -0.55935  -0.55787
 Alpha  occ. eigenvalues --   -0.55220  -0.55088  -0.54960  -0.54319  -0.54205
 Alpha  occ. eigenvalues --   -0.53976  -0.53740  -0.53487  -0.53310  -0.53109
 Alpha  occ. eigenvalues --   -0.52941  -0.52541  -0.52227  -0.52041  -0.51828
 Alpha  occ. eigenvalues --   -0.51513  -0.51205  -0.50948  -0.50829  -0.50618
 Alpha  occ. eigenvalues --   -0.50525  -0.50405  -0.50272  -0.50210  -0.49717
 Alpha  occ. eigenvalues --   -0.49653  -0.49260  -0.49244  -0.49032  -0.48738
 Alpha  occ. eigenvalues --   -0.48502  -0.48353  -0.48032  -0.47628  -0.47518
 Alpha  occ. eigenvalues --   -0.47309  -0.47123  -0.47026  -0.46831  -0.46597
 Alpha  occ. eigenvalues --   -0.46472  -0.46307  -0.45923  -0.45791  -0.45702
 Alpha  occ. eigenvalues --   -0.45440  -0.45270  -0.45206  -0.44958  -0.44885
 Alpha  occ. eigenvalues --   -0.44637  -0.44601  -0.44538  -0.44391  -0.44244
 Alpha  occ. eigenvalues --   -0.43898  -0.43819  -0.43456  -0.43368  -0.42855
 Alpha  occ. eigenvalues --   -0.42823  -0.42551  -0.42408  -0.42287  -0.42206
 Alpha  occ. eigenvalues --   -0.42123  -0.41942  -0.41770  -0.41709  -0.41186
 Alpha  occ. eigenvalues --   -0.41045  -0.40633  -0.40510  -0.40388  -0.39929
 Alpha  occ. eigenvalues --   -0.39876  -0.39636  -0.39468  -0.39296  -0.38699
 Alpha  occ. eigenvalues --   -0.38583  -0.38294  -0.38049  -0.37701  -0.37503
 Alpha  occ. eigenvalues --   -0.37458  -0.37216  -0.37036  -0.36992  -0.36547
 Alpha  occ. eigenvalues --   -0.36530  -0.35324  -0.34796  -0.34555  -0.34399
 Alpha  occ. eigenvalues --   -0.34358  -0.33411  -0.32781  -0.31289  -0.31125
 Alpha  occ. eigenvalues --   -0.30869  -0.30481  -0.29959  -0.29472  -0.23979
 Alpha  occ. eigenvalues --   -0.20536
 Alpha virt. eigenvalues --   -0.08091  -0.01672   0.00455   0.01725   0.03005
 Alpha virt. eigenvalues --    0.03386   0.05301   0.05568   0.06233   0.07521
 Alpha virt. eigenvalues --    0.08174   0.08402   0.08681   0.09025   0.09320

 Mulliken charges:
               1
     1  Mg   0.806674
     2  C   -0.074130
     3  C   -0.075221
     4  C   -0.053525
     5  C   -0.099290
     6  N   -0.214460
     7  C   -0.038441
     8  C   -0.137725
     9  C   -0.006545
    10  C   -0.009624
    11  C    0.087997
    12  C    0.076912
    13  C    0.094672
    14  C    0.171868
    15  O   -0.248310
    16  O   -0.328418
    17  N   -0.382193
    18  C    0.116403
    19  C   -0.164042
    20  C   -0.014161
    21  C    0.090711
    22  C    0.153048
    23  C   -0.046097
    24  O   -0.182755
    25  C    0.070167
    26  N   -0.275816
    27  C    0.036530
    28  C    0.009432
    29  C   -0.038509
    30  C    0.037919
    31  C    0.072308
    32  C    0.032641
    33  C    0.000077
    34  N   -0.324096
    35  C    0.109362
    36  C   -0.185409
    37  C    0.023922
    38  C    0.138191
    39  C    0.141122
    40  C    0.005439
    41  O   -0.144089
    42  C    0.084179
    43  C    0.181672
    44  O   -0.249784
    45  O   -0.366368
    46  C    0.178805
    47  C    0.309348
    48  C   -0.147414
    49  C   -0.143126
    50  C    0.029149
    51  C    0.125140
    52  C   -0.019433
    53  C    0.041050
    54  C   -0.085650
    55  C    0.032550
    56  C    0.050708
    57  C    0.029721
    58  C   -0.001163
    59  C   -0.085095
    60  C    0.057766
    61  C    0.035867
    62  C   -0.007266
    63  C    0.008832
    64  C   -0.122913
    65  C    0.025599
    66  C    0.059033
    67  H   -0.030321
    68  H   -0.008344
    69  H   -0.041964
    70  H    0.043763
    71  H   -0.000837
    72  H    0.036855
    73  H    0.022495
    74  H    0.000817
    75  H   -0.000072
    76  H    0.002722
    77  H    0.040048
    78  H    0.022122
    79  H    0.033480
    80  H   -0.000410
    81  H    0.026905
    82  H    0.039864
    83  H    0.013732
    84  H    0.025409
    85  H   -0.005167
    86  H    0.003477
    87  H    0.019756
    88  H    0.019908
    89  H    0.022190
    90  H    0.015327
    91  H    0.000656
    92  H    0.018549
    93  H    0.013572
    94  H    0.030354
    95  H    0.020679
    96  H    0.035583
    97  H    0.022759
    98  H    0.044367
    99  H    0.054882
   100  H    0.053059
   101  H    0.035597
   102  H    0.031861
   103  H    0.037508
   104  H   -0.011988
   105  H    0.029288
   106  H    0.014894
   107  H    0.035224
   108  H   -0.002514
   109  H   -0.003022
   110  H    0.020335
   111  H   -0.006093
   112  H   -0.005437
   113  H   -0.005652
   114  H    0.001034
   115  H   -0.008979
   116  H    0.000661
   117  H    0.004185
   118  H   -0.012264
   119  H   -0.004392
   120  H    0.013249
   121  H   -0.011228
   122  H   -0.010524
   123  H   -0.011573
   124  H   -0.011313
   125  H    0.006179
   126  H    0.001628
   127  H   -0.005964
   128  H   -0.007238
   129  H    0.003774
   130  H    0.014026
   131  H   -0.000757
   132  H    0.002380
   133  H   -0.005243
   134  H   -0.008659
   135  H    0.015034
   136  H    0.013902
   137  H    0.002045
   138  H   -0.014736
   139  H    0.006810
   140  H    0.008002
 Sum of Mulliken charges =  -0.00000

 Dipole moment (field-independent basis, Debye):
    X=              4.6654    Y=              3.7886    Z=             -3.7926  Tot=              7.1065
 Quadrupole moment (field-independent basis, Debye-Ang):
   XX=           -373.4509   YY=           -444.4355   ZZ=           -404.4906
   XY=            -11.1864   XZ=              9.4568   YZ=              7.9362

 Normal termination of Gaussian 16 at Wed May  4 16:21:53 2022.
