 Gaussian 16, Revision A.03,
 Gaussian 16:  ES64L-G16RevA.03 25-Dec-2016

 ---------------------------------
 #p PBE1PBE/Def2SVP td=(nstates=5)
 ---------------------------------

 ----------------------------------------------------
 step_201_chromophore_3 TDDFT with PBE1PBE functional
 ----------------------------------------------------
 Symbolic Z-matrix:
 Charge =  0 Multiplicity = 1

                         Standard orientation:
 ---------------------------------------------------------------------
 Center     Atomic      Atomic             Coordinates (Angstroms)
 Number     Number       Type             X           Y           Z
 ---------------------------------------------------------------------
      1         12           0       -5.496068    0.740832   -0.073132
      2          6           0       -3.996611   -2.490922   -0.276625
      3          6           0       -2.303477    2.052782   -0.039738
      4          6           0       -6.881471    3.682849    0.327199
      5          6           0       -8.447028   -0.820469    0.681321
      6          7           0       -3.384617   -0.034138   -0.153883
      7          6           0       -3.122191   -1.388503   -0.405390
      8          6           0       -1.658742   -1.602367   -0.565270
      9          6           0       -1.102002   -0.218242   -0.157390
     10          6           0       -2.295153    0.636872   -0.105099
     11          6           0       -0.315211   -0.192886    1.168087
     12          6           0       -1.253323   -2.199737   -2.022737
     13          6           0       -0.081478   -3.230176   -2.012407
     14          6           0        0.902625   -3.090563   -0.832120
     15          8           0        1.003148   -3.876041    0.117580
     16          8           0        1.787973   -2.120224   -1.122747
     17          7           0       -4.691498    2.663995    0.167309
     18          6           0       -3.341879    3.017952    0.006689
     19          6           0       -3.254573    4.432492    0.090436
     20          6           0       -4.542809    4.955691    0.149759
     21          6           0       -5.467170    3.769277    0.241421
     22          6           0       -1.954310    5.222571    0.257758
     23          6           0       -4.971691    6.389041    0.316334
     24          8           0       -6.100356    6.748790    0.511652
     25          6           0       -3.988108    7.475307    0.256297
     26          7           0       -7.380985    1.313753    0.749373
     27          6           0       -7.721823    2.602505    0.536321
     28          6           0       -9.186801    2.760883    0.809395
     29          6           0       -9.743758    1.376828    0.513390
     30          6           0       -8.485133    0.584998    0.659372
     31          6           0       -9.556192    3.282187    2.285215
     32          6           0      -10.404425    1.107647   -0.878620
     33          6           0      -11.912730    0.738570   -0.798370
     34          7           0       -6.134679   -1.227119    0.110287
     35          6           0       -7.358862   -1.694880    0.410236
     36          6           0       -7.399487   -3.152259    0.376645
     37          6           0       -6.044750   -3.485112    0.140133
     38          6           0       -5.315475   -2.298256    0.004346
     39          6           0       -8.590871   -3.993945    0.618239
     40          6           0       -5.127262   -4.594190   -0.022640
     41          8           0       -5.373251   -5.773175    0.093362
     42          6           0       -3.762122   -3.996094   -0.409888
     43          6           0       -2.860495   -4.506797    0.595006
     44          8           0       -2.831485   -4.271599    1.820196
     45          8           0       -2.082472   -5.513644    0.070601
     46          6           0       -0.829543   -5.959165    0.921535
     47          6           0        2.996610   -1.823523   -0.326124
     48          6           0        4.052620   -1.588144   -1.362505
     49          6           0        5.325837   -1.905018   -1.322520
     50          6           0        5.861408   -2.762515   -0.132429
     51          6           0        6.362639   -1.608381   -2.387635
     52          6           0        7.670218   -0.928831   -2.034682
     53          6           0        7.597697    0.635751   -2.244704
     54          6           0        8.577405    1.076818   -3.356662
     55          6           0        7.913751    1.745535   -4.570141
     56          6           0        9.725722    1.969468   -2.810240
     57          6           0       10.716473    1.234910   -1.887016
     58          6           0       10.652914    1.647145   -0.385041
     59          6           0       11.895429    2.404602    0.164135
     60          6           0       12.082357    3.676523   -0.555197
     61          6           0       13.250285    1.537865    0.302218
     62          6           0       13.695760    1.463812    1.826049
     63          6           0       13.203110    0.088212    2.365902
     64          6           0       13.375956   -0.123102    3.958510
     65          6           0       14.600485   -1.077815    4.253105
     66          6           0       12.150652   -0.600143    4.679022
     67          1           0       -1.339788    2.540190   -0.206324
     68          1           0       -7.353249    4.664668    0.393131
     69          1           0       -9.413154   -1.316431    0.795277
     70          1           0       -1.417051   -2.323616    0.215009
     71          1           0       -0.465513    0.121170   -0.974246
     72          1           0       -0.268665   -1.218342    1.534949
     73          1           0       -0.769086    0.557192    1.815797
     74          1           0        0.705303    0.160600    1.022899
     75          1           0       -1.143344   -1.353551   -2.700600
     76          1           0       -2.195350   -2.603920   -2.393333
     77          1           0        0.348358   -3.329379   -3.008785
     78          1           0       -0.606251   -4.169256   -1.837460
     79          1           0       -1.777957    5.956003   -0.529421
     80          1           0       -1.177846    4.459772    0.315669
     81          1           0       -1.996667    5.676939    1.247872
     82          1           0       -3.458899    7.516951    1.208382
     83          1           0       -4.558634    8.399464    0.157871
     84          1           0       -3.452789    7.481885   -0.692997
     85          1           0       -9.507849    3.434451    0.013922
     86          1           0      -10.496760    1.102759    1.252552
     87          1           0       -8.750808    3.040928    2.978832
     88          1           0      -10.474429    2.930299    2.755411
     89          1           0       -9.577958    4.371153    2.313840
     90          1           0       -9.829189    0.323639   -1.370952
     91          1           0      -10.346912    1.989708   -1.516867
     92          1           0      -12.416989    1.203473   -1.646788
     93          1           0      -12.426784    1.212311    0.037875
     94          1           0      -11.853155   -0.343542   -0.692561
     95          1           0       -8.901563   -3.738614    1.631376
     96          1           0       -8.398656   -5.063855    0.694318
     97          1           0       -9.410737   -3.685699   -0.029487
     98          1           0       -3.421974   -4.323002   -1.392728
     99          1           0       -0.677416   -5.307617    1.781043
    100          1           0       -0.001954   -5.892984    0.214382
    101          1           0       -0.886773   -6.971366    1.321259
    102          1           0        3.246416   -2.610015    0.386690
    103          1           0        2.881119   -0.895358    0.232621
    104          1           0        3.787538   -0.973449   -2.222691
    105          1           0        5.961602   -2.230538    0.814186
    106          1           0        6.821229   -3.237614   -0.336690
    107          1           0        5.099687   -3.526631    0.019618
    108          1           0        5.889884   -1.137176   -3.249385
    109          1           0        6.767102   -2.598944   -2.593812
    110          1           0        8.508376   -1.410929   -2.537759
    111          1           0        7.820176   -1.112787   -0.970298
    112          1           0        7.730840    1.059699   -1.249242
    113          1           0        6.617206    1.053475   -2.472895
    114          1           0        8.959832    0.149934   -3.783420
    115          1           0        7.136130    2.475236   -4.347166
    116          1           0        7.353942    1.062438   -5.208584
    117          1           0        8.557138    2.345056   -5.215134
    118          1           0        9.215235    2.686912   -2.168019
    119          1           0       10.260836    2.542922   -3.566712
    120          1           0       11.763268    1.211630   -2.189360
    121          1           0       10.250263    0.253799   -1.800939
    122          1           0       10.526513    0.821790    0.315393
    123          1           0        9.743151    2.244917   -0.327853
    124          1           0       11.550127    2.612632    1.176341
    125          1           0       11.945720    3.629072   -1.636053
    126          1           0       13.024378    4.200650   -0.396288
    127          1           0       11.313616    4.348410   -0.174081
    128          1           0       14.129368    2.037357   -0.104255
    129          1           0       13.132615    0.562978   -0.171176
    130          1           0       13.244909    2.281988    2.386034
    131          1           0       14.784891    1.439913    1.796557
    132          1           0       13.734953   -0.691537    1.820298
    133          1           0       12.147822    0.123769    2.098352
    134          1           0       13.584178    0.849346    4.405534
    135          1           0       14.468699   -2.029505    3.738194
    136          1           0       14.774465   -1.191941    5.323552
    137          1           0       15.488411   -0.596435    3.843068
    138          1           0       11.413374   -0.721575    3.884903
    139          1           0       11.709428    0.144145    5.341812
    140          1           0       12.244859   -1.556647    5.193044
 ---------------------------------------------------------------------

 SCF Done:  E(RPBE1PBE) =  -3005.34674854     A.U. after   15 cycles

 Excitation energies and oscillator strengths:

 Excited State   1:      Singlet-A      1.8542 eV  668.66 nm  f=0.3576  <S**2>=0.000
     245 -> 248        0.17757
     246 -> 247        0.69159
     246 <- 247       -0.10813
 This state for optimization and/or second-order correction.
 Total Energy, E(TD-HF/TD-DFT) =  -3005.27860719
 Copying the excited state density for this state as the 1-particle RhoCI density.

 Excited State   2:      Singlet-A      2.2844 eV  542.75 nm  f=0.0734  <S**2>=0.000
     245 -> 247        0.62955
     246 -> 248       -0.31008

 Excited State   3:      Singlet-A      3.1006 eV  399.88 nm  f=0.0034  <S**2>=0.000
     243 -> 247       -0.22706
     244 -> 247        0.62878
     244 -> 249       -0.12806

 Excited State   4:      Singlet-A      3.1539 eV  393.11 nm  f=0.0039  <S**2>=0.000
     241 -> 247        0.37520
     241 -> 249        0.11457
     242 -> 247        0.18522
     243 -> 247        0.51398
     244 -> 247        0.14894

 Excited State   5:      Singlet-A      3.1871 eV  389.01 nm  f=0.0007  <S**2>=0.000
     241 -> 247       -0.38808
     241 -> 249       -0.12011
     242 -> 247       -0.36291
     243 -> 247        0.40453
     244 -> 247        0.15017

 The electronic state is 1-A.
 Alpha  occ. eigenvalues --  -46.92378 -19.26907 -19.24102 -19.21041 -19.19032
 Alpha  occ. eigenvalues --  -19.18461 -19.18324 -14.41444 -14.40605 -14.38794
 Alpha  occ. eigenvalues --  -14.38581 -10.37925 -10.35244 -10.31826 -10.31080
 Alpha  occ. eigenvalues --  -10.31005 -10.28334 -10.27889 -10.27816 -10.27800
 Alpha  occ. eigenvalues --  -10.27563 -10.27423 -10.27348 -10.27180 -10.26124
 Alpha  occ. eigenvalues --  -10.25928 -10.25783 -10.25627 -10.25620 -10.25466
 Alpha  occ. eigenvalues --  -10.25451 -10.25447 -10.25394 -10.24979 -10.24860
 Alpha  occ. eigenvalues --  -10.24657 -10.24630 -10.24385 -10.24182 -10.24076
 Alpha  occ. eigenvalues --  -10.23990 -10.23961 -10.23949 -10.23929 -10.23634
 Alpha  occ. eigenvalues --  -10.23469 -10.23458 -10.23440 -10.23381 -10.23366
 Alpha  occ. eigenvalues --  -10.23340 -10.23240 -10.23226 -10.23206 -10.22921
 Alpha  occ. eigenvalues --  -10.22878 -10.22820 -10.22678 -10.22568 -10.22469
 Alpha  occ. eigenvalues --  -10.22374 -10.22347 -10.22205 -10.22067 -10.21451
 Alpha  occ. eigenvalues --  -10.21292  -3.14444  -1.87267  -1.86834  -1.86651
 Alpha  occ. eigenvalues --   -1.12139  -1.08069  -1.05704  -1.05063  -1.03264
 Alpha  occ. eigenvalues --   -1.00316  -1.00022  -0.98910  -0.98584  -0.96854
 Alpha  occ. eigenvalues --   -0.88164  -0.85779  -0.84320  -0.83710  -0.83264
 Alpha  occ. eigenvalues --   -0.82934  -0.82642  -0.81603  -0.81491  -0.81266
 Alpha  occ. eigenvalues --   -0.80623  -0.80457  -0.79107  -0.78065  -0.77572
 Alpha  occ. eigenvalues --   -0.77264  -0.76233  -0.75710  -0.75184  -0.74743
 Alpha  occ. eigenvalues --   -0.74608  -0.72510  -0.71974  -0.71331  -0.70740
 Alpha  occ. eigenvalues --   -0.70056  -0.69715  -0.69478  -0.69340  -0.69051
 Alpha  occ. eigenvalues --   -0.67897  -0.67024  -0.66512  -0.65923  -0.63528
 Alpha  occ. eigenvalues --   -0.63239  -0.63115  -0.61746  -0.61417  -0.60431
 Alpha  occ. eigenvalues --   -0.60014  -0.59884  -0.59425  -0.59151  -0.58782
 Alpha  occ. eigenvalues --   -0.58626  -0.57111  -0.55770  -0.55570  -0.54814
 Alpha  occ. eigenvalues --   -0.54304  -0.54144  -0.53601  -0.53519  -0.52580
 Alpha  occ. eigenvalues --   -0.52209  -0.51774  -0.50753  -0.50519  -0.50314
 Alpha  occ. eigenvalues --   -0.49690  -0.49592  -0.49462  -0.48798  -0.48769
 Alpha  occ. eigenvalues --   -0.48354  -0.48097  -0.48035  -0.47824  -0.47645
 Alpha  occ. eigenvalues --   -0.47472  -0.47192  -0.46788  -0.46485  -0.46342
 Alpha  occ. eigenvalues --   -0.46038  -0.45747  -0.45466  -0.45403  -0.45187
 Alpha  occ. eigenvalues --   -0.45095  -0.44951  -0.44788  -0.44776  -0.44381
 Alpha  occ. eigenvalues --   -0.44235  -0.43836  -0.43814  -0.43586  -0.43301
 Alpha  occ. eigenvalues --   -0.43078  -0.42949  -0.42575  -0.42256  -0.42143
 Alpha  occ. eigenvalues --   -0.41923  -0.41789  -0.41720  -0.41483  -0.41314
 Alpha  occ. eigenvalues --   -0.41105  -0.40978  -0.40618  -0.40513  -0.40250
 Alpha  occ. eigenvalues --   -0.40212  -0.40028  -0.39837  -0.39712  -0.39616
 Alpha  occ. eigenvalues --   -0.39345  -0.39309  -0.39239  -0.39160  -0.38965
 Alpha  occ. eigenvalues --   -0.38683  -0.38535  -0.38285  -0.38157  -0.37654
 Alpha  occ. eigenvalues --   -0.37602  -0.37363  -0.37267  -0.37134  -0.36923
 Alpha  occ. eigenvalues --   -0.36885  -0.36672  -0.36645  -0.36538  -0.36004
 Alpha  occ. eigenvalues --   -0.35816  -0.35458  -0.35317  -0.35288  -0.34772
 Alpha  occ. eigenvalues --   -0.34685  -0.34440  -0.34382  -0.34194  -0.33542
 Alpha  occ. eigenvalues --   -0.33534  -0.33121  -0.32850  -0.32604  -0.32496
 Alpha  occ. eigenvalues --   -0.32311  -0.32128  -0.31992  -0.31802  -0.31658
 Alpha  occ. eigenvalues --   -0.31433  -0.30182  -0.29735  -0.29607  -0.29430
 Alpha  occ. eigenvalues --   -0.29326  -0.28969  -0.27475  -0.26765  -0.26555
 Alpha  occ. eigenvalues --   -0.25754  -0.25613  -0.25130  -0.25117  -0.20876
 Alpha  occ. eigenvalues --   -0.18218
 Alpha virt. eigenvalues --   -0.10616  -0.05141  -0.03668  -0.01679  -0.01165
 Alpha virt. eigenvalues --   -0.00824   0.00816   0.01097   0.01829   0.03576
 Alpha virt. eigenvalues --    0.04373   0.05055   0.05177   0.05476   0.05804

 Mulliken charges:
               1
     1  Mg   0.949327
     2  C   -0.071237
     3  C   -0.071985
     4  C   -0.046524
     5  C   -0.081404
     6  N   -0.325709
     7  C    0.037741
     8  C   -0.213468
     9  C   -0.082776
    10  C    0.033643
    11  C    0.030069
    12  C    0.031059
    13  C    0.013572
    14  C    0.237656
    15  O   -0.283203
    16  O   -0.358588
    17  N   -0.493342
    18  C    0.145316
    19  C   -0.192230
    20  C   -0.070764
    21  C    0.134679
    22  C    0.090968
    23  C    0.011657
    24  O   -0.221537
    25  C   -0.009201
    26  N   -0.369450
    27  C    0.059745
    28  C   -0.070196
    29  C   -0.113360
    30  C    0.066429
    31  C    0.017592
    32  C   -0.020547
    33  C   -0.074723
    34  N   -0.456711
    35  C    0.128357
    36  C   -0.197619
    37  C   -0.027520
    38  C    0.184938
    39  C    0.083992
    40  C    0.109167
    41  O   -0.191756
    42  C   -0.040649
    43  C    0.276829
    44  O   -0.284356
    45  O   -0.396770
    46  C    0.124367
    47  C    0.266220
    48  C   -0.160650
    49  C   -0.176240
    50  C   -0.036130
    51  C    0.053861
    52  C   -0.086176
    53  C   -0.000624
    54  C   -0.181453
    55  C   -0.023910
    56  C   -0.001927
    57  C   -0.043433
    58  C   -0.051264
    59  C   -0.175516
    60  C    0.000446
    61  C   -0.015676
    62  C   -0.074717
    63  C   -0.050449
    64  C   -0.211700
    65  C   -0.039955
    66  C   -0.000350
    67  H    0.001997
    68  H    0.023892
    69  H   -0.008681
    70  H    0.088963
    71  H    0.036715
    72  H    0.063007
    73  H    0.050785
    74  H    0.030104
    75  H    0.031895
    76  H    0.036794
    77  H    0.070440
    78  H    0.058622
    79  H    0.060070
    80  H    0.028452
    81  H    0.055539
    82  H    0.066869
    83  H    0.042191
    84  H    0.052153
    85  H    0.032264
    86  H    0.040317
    87  H    0.047424
    88  H    0.046042
    89  H    0.049557
    90  H    0.049005
    91  H    0.033590
    92  H    0.046548
    93  H    0.041124
    94  H    0.057692
    95  H    0.049734
    96  H    0.063559
    97  H    0.050211
    98  H    0.079139
    99  H    0.075211
   100  H    0.073669
   101  H    0.057576
   102  H    0.055533
   103  H    0.064883
   104  H    0.018689
   105  H    0.057232
   106  H    0.041290
   107  H    0.063329
   108  H    0.029522
   109  H    0.033156
   110  H    0.048146
   111  H    0.028513
   112  H    0.027072
   113  H    0.025800
   114  H    0.040689
   115  H    0.018769
   116  H    0.028683
   117  H    0.031476
   118  H    0.021688
   119  H    0.026594
   120  H    0.045231
   121  H    0.030175
   122  H    0.022602
   123  H    0.020057
   124  H    0.027360
   125  H    0.035071
   126  H    0.029529
   127  H    0.022489
   128  H    0.025360
   129  H    0.034896
   130  H    0.045231
   131  H    0.033077
   132  H    0.034084
   133  H    0.032419
   134  H    0.029221
   135  H    0.042605
   136  H    0.041981
   137  H    0.031279
   138  H    0.012905
   139  H    0.034135
   140  H    0.034930
 Sum of Mulliken charges =  -0.00000

 Dipole moment (field-independent basis, Debye):
    X=              4.4746    Y=              3.7082    Z=             -3.7674  Tot=              6.9257
 Quadrupole moment (field-independent basis, Debye-Ang):
   XX=           -365.9549   YY=           -442.3068   ZZ=           -401.8588
   XY=            -10.8811   XZ=              8.8722   YZ=              7.7976

 Normal termination of Gaussian 16 at Wed May  4 16:40:48 2022.
