 Gaussian 16, Revision A.03,
 Gaussian 16:  ES64L-G16RevA.03 25-Dec-2016

 --------------------------------
 #p wB97XD/Def2SVP td=(nstates=5)
 --------------------------------

 ---------------------------------------------------
 step_201_chromophore_3 TDDFT with wB97XD functional
 ---------------------------------------------------
 Symbolic Z-matrix:
 Charge =  0 Multiplicity = 1

                         Standard orientation:
 ---------------------------------------------------------------------
 Center     Atomic      Atomic             Coordinates (Angstroms)
 Number     Number       Type             X           Y           Z
 ---------------------------------------------------------------------
      1         12           0       -5.496068    0.740832   -0.073132
      2          6           0       -3.996611   -2.490922   -0.276625
      3          6           0       -2.303477    2.052782   -0.039738
      4          6           0       -6.881471    3.682849    0.327199
      5          6           0       -8.447028   -0.820469    0.681321
      6          7           0       -3.384617   -0.034138   -0.153883
      7          6           0       -3.122191   -1.388503   -0.405390
      8          6           0       -1.658742   -1.602367   -0.565270
      9          6           0       -1.102002   -0.218242   -0.157390
     10          6           0       -2.295153    0.636872   -0.105099
     11          6           0       -0.315211   -0.192886    1.168087
     12          6           0       -1.253323   -2.199737   -2.022737
     13          6           0       -0.081478   -3.230176   -2.012407
     14          6           0        0.902625   -3.090563   -0.832120
     15          8           0        1.003148   -3.876041    0.117580
     16          8           0        1.787973   -2.120224   -1.122747
     17          7           0       -4.691498    2.663995    0.167309
     18          6           0       -3.341879    3.017952    0.006689
     19          6           0       -3.254573    4.432492    0.090436
     20          6           0       -4.542809    4.955691    0.149759
     21          6           0       -5.467170    3.769277    0.241421
     22          6           0       -1.954310    5.222571    0.257758
     23          6           0       -4.971691    6.389041    0.316334
     24          8           0       -6.100356    6.748790    0.511652
     25          6           0       -3.988108    7.475307    0.256297
     26          7           0       -7.380985    1.313753    0.749373
     27          6           0       -7.721823    2.602505    0.536321
     28          6           0       -9.186801    2.760883    0.809395
     29          6           0       -9.743758    1.376828    0.513390
     30          6           0       -8.485133    0.584998    0.659372
     31          6           0       -9.556192    3.282187    2.285215
     32          6           0      -10.404425    1.107647   -0.878620
     33          6           0      -11.912730    0.738570   -0.798370
     34          7           0       -6.134679   -1.227119    0.110287
     35          6           0       -7.358862   -1.694880    0.410236
     36          6           0       -7.399487   -3.152259    0.376645
     37          6           0       -6.044750   -3.485112    0.140133
     38          6           0       -5.315475   -2.298256    0.004346
     39          6           0       -8.590871   -3.993945    0.618239
     40          6           0       -5.127262   -4.594190   -0.022640
     41          8           0       -5.373251   -5.773175    0.093362
     42          6           0       -3.762122   -3.996094   -0.409888
     43          6           0       -2.860495   -4.506797    0.595006
     44          8           0       -2.831485   -4.271599    1.820196
     45          8           0       -2.082472   -5.513644    0.070601
     46          6           0       -0.829543   -5.959165    0.921535
     47          6           0        2.996610   -1.823523   -0.326124
     48          6           0        4.052620   -1.588144   -1.362505
     49          6           0        5.325837   -1.905018   -1.322520
     50          6           0        5.861408   -2.762515   -0.132429
     51          6           0        6.362639   -1.608381   -2.387635
     52          6           0        7.670218   -0.928831   -2.034682
     53          6           0        7.597697    0.635751   -2.244704
     54          6           0        8.577405    1.076818   -3.356662
     55          6           0        7.913751    1.745535   -4.570141
     56          6           0        9.725722    1.969468   -2.810240
     57          6           0       10.716473    1.234910   -1.887016
     58          6           0       10.652914    1.647145   -0.385041
     59          6           0       11.895429    2.404602    0.164135
     60          6           0       12.082357    3.676523   -0.555197
     61          6           0       13.250285    1.537865    0.302218
     62          6           0       13.695760    1.463812    1.826049
     63          6           0       13.203110    0.088212    2.365902
     64          6           0       13.375956   -0.123102    3.958510
     65          6           0       14.600485   -1.077815    4.253105
     66          6           0       12.150652   -0.600143    4.679022
     67          1           0       -1.339788    2.540190   -0.206324
     68          1           0       -7.353249    4.664668    0.393131
     69          1           0       -9.413154   -1.316431    0.795277
     70          1           0       -1.417051   -2.323616    0.215009
     71          1           0       -0.465513    0.121170   -0.974246
     72          1           0       -0.268665   -1.218342    1.534949
     73          1           0       -0.769086    0.557192    1.815797
     74          1           0        0.705303    0.160600    1.022899
     75          1           0       -1.143344   -1.353551   -2.700600
     76          1           0       -2.195350   -2.603920   -2.393333
     77          1           0        0.348358   -3.329379   -3.008785
     78          1           0       -0.606251   -4.169256   -1.837460
     79          1           0       -1.777957    5.956003   -0.529421
     80          1           0       -1.177846    4.459772    0.315669
     81          1           0       -1.996667    5.676939    1.247872
     82          1           0       -3.458899    7.516951    1.208382
     83          1           0       -4.558634    8.399464    0.157871
     84          1           0       -3.452789    7.481885   -0.692997
     85          1           0       -9.507849    3.434451    0.013922
     86          1           0      -10.496760    1.102759    1.252552
     87          1           0       -8.750808    3.040928    2.978832
     88          1           0      -10.474429    2.930299    2.755411
     89          1           0       -9.577958    4.371153    2.313840
     90          1           0       -9.829189    0.323639   -1.370952
     91          1           0      -10.346912    1.989708   -1.516867
     92          1           0      -12.416989    1.203473   -1.646788
     93          1           0      -12.426784    1.212311    0.037875
     94          1           0      -11.853155   -0.343542   -0.692561
     95          1           0       -8.901563   -3.738614    1.631376
     96          1           0       -8.398656   -5.063855    0.694318
     97          1           0       -9.410737   -3.685699   -0.029487
     98          1           0       -3.421974   -4.323002   -1.392728
     99          1           0       -0.677416   -5.307617    1.781043
    100          1           0       -0.001954   -5.892984    0.214382
    101          1           0       -0.886773   -6.971366    1.321259
    102          1           0        3.246416   -2.610015    0.386690
    103          1           0        2.881119   -0.895358    0.232621
    104          1           0        3.787538   -0.973449   -2.222691
    105          1           0        5.961602   -2.230538    0.814186
    106          1           0        6.821229   -3.237614   -0.336690
    107          1           0        5.099687   -3.526631    0.019618
    108          1           0        5.889884   -1.137176   -3.249385
    109          1           0        6.767102   -2.598944   -2.593812
    110          1           0        8.508376   -1.410929   -2.537759
    111          1           0        7.820176   -1.112787   -0.970298
    112          1           0        7.730840    1.059699   -1.249242
    113          1           0        6.617206    1.053475   -2.472895
    114          1           0        8.959832    0.149934   -3.783420
    115          1           0        7.136130    2.475236   -4.347166
    116          1           0        7.353942    1.062438   -5.208584
    117          1           0        8.557138    2.345056   -5.215134
    118          1           0        9.215235    2.686912   -2.168019
    119          1           0       10.260836    2.542922   -3.566712
    120          1           0       11.763268    1.211630   -2.189360
    121          1           0       10.250263    0.253799   -1.800939
    122          1           0       10.526513    0.821790    0.315393
    123          1           0        9.743151    2.244917   -0.327853
    124          1           0       11.550127    2.612632    1.176341
    125          1           0       11.945720    3.629072   -1.636053
    126          1           0       13.024378    4.200650   -0.396288
    127          1           0       11.313616    4.348410   -0.174081
    128          1           0       14.129368    2.037357   -0.104255
    129          1           0       13.132615    0.562978   -0.171176
    130          1           0       13.244909    2.281988    2.386034
    131          1           0       14.784891    1.439913    1.796557
    132          1           0       13.734953   -0.691537    1.820298
    133          1           0       12.147822    0.123769    2.098352
    134          1           0       13.584178    0.849346    4.405534
    135          1           0       14.468699   -2.029505    3.738194
    136          1           0       14.774465   -1.191941    5.323552
    137          1           0       15.488411   -0.596435    3.843068
    138          1           0       11.413374   -0.721575    3.884903
    139          1           0       11.709428    0.144145    5.341812
    140          1           0       12.244859   -1.556647    5.193044
 ---------------------------------------------------------------------

 SCF Done:  E(RwB97XD) =  -3007.85919058     A.U. after   18 cycles

 Excitation energies and oscillator strengths:

 Excited State   1:      Singlet-A      1.6455 eV  753.49 nm  f=0.3699  <S**2>=0.000
     245 -> 248        0.18898
     246 -> 247        0.68149
     245 <- 248        0.11793
 This state for optimization and/or second-order correction.
 Total Energy, E(TD-HF/TD-DFT) =  -3007.79872054
 Copying the excited state density for this state as the 1-particle RhoCI density.

 Excited State   2:      Singlet-A      2.2276 eV  556.59 nm  f=0.0667  <S**2>=0.000
     245 -> 247        0.61181
     246 -> 248       -0.34058

 Excited State   3:      Singlet-A      3.4433 eV  360.08 nm  f=0.6505  <S**2>=0.000
     243 -> 247        0.21355
     244 -> 247        0.14637
     245 -> 247        0.29805
     246 -> 248        0.58184
     245 <- 247       -0.11081

 Excited State   4:      Singlet-A      3.5340 eV  350.83 nm  f=0.0132  <S**2>=0.000
     243 -> 247       -0.24530
     244 -> 247        0.63079

 Excited State   5:      Singlet-A      3.6685 eV  337.97 nm  f=0.0126  <S**2>=0.000
     241 -> 247        0.52601
     241 -> 249        0.34682
     241 -> 250       -0.17995
     241 -> 251        0.10394
     243 -> 247        0.14027

 The electronic state is 1-A.
 Alpha  occ. eigenvalues --  -46.95344 -19.31472 -19.28658 -19.25710 -19.23878
 Alpha  occ. eigenvalues --  -19.23191 -19.23176 -14.46665 -14.45564 -14.43745
 Alpha  occ. eigenvalues --  -14.43497 -10.44734 -10.42099 -10.38691 -10.37884
 Alpha  occ. eigenvalues --  -10.37608 -10.34523 -10.34246 -10.34140 -10.34139
 Alpha  occ. eigenvalues --  -10.33974 -10.33915 -10.33726 -10.33466 -10.32575
 Alpha  occ. eigenvalues --  -10.32266 -10.32225 -10.32211 -10.32020 -10.31813
 Alpha  occ. eigenvalues --  -10.31789 -10.31686 -10.31630 -10.31250 -10.31183
 Alpha  occ. eigenvalues --  -10.31126 -10.30992 -10.30810 -10.30598 -10.30411
 Alpha  occ. eigenvalues --  -10.30361 -10.30314 -10.30303 -10.30237 -10.29866
 Alpha  occ. eigenvalues --  -10.29849 -10.29790 -10.29745 -10.29742 -10.29721
 Alpha  occ. eigenvalues --  -10.29665 -10.29620 -10.29547 -10.29516 -10.29259
 Alpha  occ. eigenvalues --  -10.29234 -10.29184 -10.29055 -10.28974 -10.28934
 Alpha  occ. eigenvalues --  -10.28850 -10.28695 -10.28644 -10.28506 -10.27917
 Alpha  occ. eigenvalues --  -10.27721  -3.21272  -1.94844  -1.94411  -1.94225
 Alpha  occ. eigenvalues --   -1.19529  -1.15513  -1.13207  -1.12553  -1.10614
 Alpha  occ. eigenvalues --   -1.07696  -1.07360  -1.06308  -1.05887  -1.04273
 Alpha  occ. eigenvalues --   -0.95783  -0.93453  -0.91999  -0.91341  -0.90833
 Alpha  occ. eigenvalues --   -0.90604  -0.90232  -0.89225  -0.89163  -0.88891
 Alpha  occ. eigenvalues --   -0.88250  -0.88093  -0.86768  -0.85686  -0.85205
 Alpha  occ. eigenvalues --   -0.84910  -0.83881  -0.83401  -0.82882  -0.82404
 Alpha  occ. eigenvalues --   -0.82197  -0.80145  -0.79694  -0.78923  -0.78436
 Alpha  occ. eigenvalues --   -0.77709  -0.77317  -0.77185  -0.77006  -0.76700
 Alpha  occ. eigenvalues --   -0.75571  -0.74558  -0.74062  -0.73517  -0.71091
 Alpha  occ. eigenvalues --   -0.70819  -0.70682  -0.69288  -0.69002  -0.67942
 Alpha  occ. eigenvalues --   -0.67559  -0.67487  -0.66931  -0.66601  -0.66444
 Alpha  occ. eigenvalues --   -0.66033  -0.64776  -0.63392  -0.63038  -0.62336
 Alpha  occ. eigenvalues --   -0.61770  -0.61603  -0.61018  -0.60885  -0.59977
 Alpha  occ. eigenvalues --   -0.59740  -0.59244  -0.58191  -0.57909  -0.57731
 Alpha  occ. eigenvalues --   -0.57125  -0.57019  -0.56920  -0.56228  -0.56141
 Alpha  occ. eigenvalues --   -0.55822  -0.55655  -0.55387  -0.55240  -0.55005
 Alpha  occ. eigenvalues --   -0.54855  -0.54503  -0.54144  -0.53893  -0.53715
 Alpha  occ. eigenvalues --   -0.53428  -0.53096  -0.52833  -0.52764  -0.52561
 Alpha  occ. eigenvalues --   -0.52474  -0.52309  -0.52174  -0.52129  -0.51618
 Alpha  occ. eigenvalues --   -0.51544  -0.51186  -0.51132  -0.50922  -0.50657
 Alpha  occ. eigenvalues --   -0.50380  -0.50305  -0.49966  -0.49519  -0.49424
 Alpha  occ. eigenvalues --   -0.49188  -0.49063  -0.48941  -0.48772  -0.48521
 Alpha  occ. eigenvalues --   -0.48348  -0.48197  -0.47798  -0.47689  -0.47526
 Alpha  occ. eigenvalues --   -0.47350  -0.47175  -0.47062  -0.46864  -0.46799
 Alpha  occ. eigenvalues --   -0.46555  -0.46511  -0.46418  -0.46279  -0.46141
 Alpha  occ. eigenvalues --   -0.45783  -0.45710  -0.45354  -0.45274  -0.44828
 Alpha  occ. eigenvalues --   -0.44766  -0.44489  -0.44349  -0.44207  -0.44053
 Alpha  occ. eigenvalues --   -0.44046  -0.43804  -0.43755  -0.43615  -0.43047
 Alpha  occ. eigenvalues --   -0.42914  -0.42592  -0.42376  -0.42303  -0.41819
 Alpha  occ. eigenvalues --   -0.41737  -0.41494  -0.41348  -0.41170  -0.40577
 Alpha  occ. eigenvalues --   -0.40462  -0.40130  -0.39896  -0.39637  -0.39423
 Alpha  occ. eigenvalues --   -0.39341  -0.39095  -0.38894  -0.38863  -0.38683
 Alpha  occ. eigenvalues --   -0.38404  -0.37278  -0.36649  -0.36511  -0.36388
 Alpha  occ. eigenvalues --   -0.36203  -0.35669  -0.34693  -0.33349  -0.33287
 Alpha  occ. eigenvalues --   -0.32844  -0.32440  -0.32120  -0.31651  -0.25900
 Alpha  occ. eigenvalues --   -0.22340
 Alpha virt. eigenvalues --   -0.06436   0.00234   0.02611   0.04593   0.05323
 Alpha virt. eigenvalues --    0.05621   0.07541   0.07816   0.08587   0.10295
 Alpha virt. eigenvalues --    0.10824   0.11713   0.11920   0.12213   0.12581

 Mulliken charges:
               1
     1  Mg   0.942137
     2  C   -0.078562
     3  C   -0.085134
     4  C   -0.065139
     5  C   -0.104375
     6  N   -0.285465
     7  C    0.004334
     8  C   -0.173429
     9  C   -0.062605
    10  C    0.018513
    11  C    0.041876
    12  C    0.038210
    13  C    0.039613
    14  C    0.218996
    15  O   -0.276759
    16  O   -0.355691
    17  N   -0.463033
    18  C    0.134170
    19  C   -0.180997
    20  C   -0.063110
    21  C    0.122400
    22  C    0.105726
    23  C    0.007975
    24  O   -0.215681
    25  C    0.001959
    26  N   -0.342610
    27  C    0.051250
    28  C   -0.042499
    29  C   -0.088109
    30  C    0.060677
    31  C    0.025512
    32  C   -0.010304
    33  C   -0.056554
    34  N   -0.415932
    35  C    0.121608
    36  C   -0.194308
    37  C   -0.022401
    38  C    0.167750
    39  C    0.092738
    40  C    0.087758
    41  O   -0.181468
    42  C    0.002909
    43  C    0.250758
    44  O   -0.278303
    45  O   -0.394690
    46  C    0.140317
    47  C    0.280697
    48  C   -0.169405
    49  C   -0.167282
    50  C   -0.023815
    51  C    0.077496
    52  C   -0.066822
    53  C    0.004587
    54  C   -0.144585
    55  C   -0.013302
    56  C    0.014710
    57  C   -0.022511
    58  C   -0.032635
    59  C   -0.142342
    60  C    0.010608
    61  C   -0.005839
    62  C   -0.055132
    63  C   -0.027699
    64  C   -0.186199
    65  C   -0.024913
    66  C    0.010490
    67  H   -0.005244
    68  H    0.018552
    69  H   -0.015856
    70  H    0.060675
    71  H    0.026921
    72  H    0.058750
    73  H    0.044724
    74  H    0.022527
    75  H    0.025478
    76  H    0.026352
    77  H    0.067447
    78  H    0.044858
    79  H    0.055591
    80  H    0.023291
    81  H    0.049606
    82  H    0.062516
    83  H    0.040693
    84  H    0.046984
    85  H    0.021736
    86  H    0.028218
    87  H    0.041457
    88  H    0.041375
    89  H    0.044229
    90  H    0.039559
    91  H    0.025274
    92  H    0.041352
    93  H    0.034252
    94  H    0.051266
    95  H    0.043303
    96  H    0.061344
    97  H    0.045077
    98  H    0.073620
    99  H    0.072151
   100  H    0.069334
   101  H    0.054756
   102  H    0.051280
   103  H    0.059826
   104  H    0.015775
   105  H    0.052237
   106  H    0.036690
   107  H    0.056215
   108  H    0.021478
   109  H    0.023447
   110  H    0.041451
   111  H    0.018125
   112  H    0.018075
   113  H    0.016788
   114  H    0.026154
   115  H    0.011737
   116  H    0.023004
   117  H    0.025986
   118  H    0.007943
   119  H    0.019942
   120  H    0.037496
   121  H    0.012801
   122  H    0.013570
   123  H    0.007374
   124  H    0.014261
   125  H    0.026521
   126  H    0.024182
   127  H    0.016290
   128  H    0.018056
   129  H    0.025557
   130  H    0.035878
   131  H    0.024905
   132  H    0.025317
   133  H    0.013217
   134  H    0.018824
   135  H    0.035794
   136  H    0.036459
   137  H    0.023962
   138  H    0.005778
   139  H    0.029349
   140  H    0.029953
 Sum of Mulliken charges =  -0.00000

 Dipole moment (field-independent basis, Debye):
    X=              4.7143    Y=              3.8820    Z=             -3.8270  Tot=              7.2070
 Quadrupole moment (field-independent basis, Debye-Ang):
   XX=           -368.5461   YY=           -440.2141   ZZ=           -401.5150
   XY=            -11.2462   XZ=              9.6077   YZ=              7.7935

 Normal termination of Gaussian 16 at Wed May  4 17:09:39 2022.
