 Gaussian 16, Revision A.03,
 Gaussian 16:  ES64L-G16RevA.03 25-Dec-2016

 --------------------
 #p ZINDO=(nstates=5)
 --------------------

 ----------------------------
 step_201_chromophore_3 ZINDO
 ----------------------------
 Symbolic Z-matrix:
 Charge =  0 Multiplicity = 1

                         Standard orientation:
 ---------------------------------------------------------------------
 Center     Atomic      Atomic             Coordinates (Angstroms)
 Number     Number       Type             X           Y           Z
 ---------------------------------------------------------------------
      1         12           0       -5.496068    0.740832   -0.073132
      2          6           0       -3.996611   -2.490922   -0.276625
      3          6           0       -2.303477    2.052782   -0.039738
      4          6           0       -6.881471    3.682849    0.327199
      5          6           0       -8.447028   -0.820469    0.681321
      6          7           0       -3.384617   -0.034138   -0.153883
      7          6           0       -3.122191   -1.388503   -0.405390
      8          6           0       -1.658742   -1.602367   -0.565270
      9          6           0       -1.102002   -0.218242   -0.157390
     10          6           0       -2.295153    0.636872   -0.105099
     11          6           0       -0.315211   -0.192886    1.168087
     12          6           0       -1.253323   -2.199737   -2.022737
     13          6           0       -0.081478   -3.230176   -2.012407
     14          6           0        0.902625   -3.090563   -0.832120
     15          8           0        1.003148   -3.876041    0.117580
     16          8           0        1.787973   -2.120224   -1.122747
     17          7           0       -4.691498    2.663995    0.167309
     18          6           0       -3.341879    3.017952    0.006689
     19          6           0       -3.254573    4.432492    0.090436
     20          6           0       -4.542809    4.955691    0.149759
     21          6           0       -5.467170    3.769277    0.241421
     22          6           0       -1.954310    5.222571    0.257758
     23          6           0       -4.971691    6.389041    0.316334
     24          8           0       -6.100356    6.748790    0.511652
     25          6           0       -3.988108    7.475307    0.256297
     26          7           0       -7.380985    1.313753    0.749373
     27          6           0       -7.721823    2.602505    0.536321
     28          6           0       -9.186801    2.760883    0.809395
     29          6           0       -9.743758    1.376828    0.513390
     30          6           0       -8.485133    0.584998    0.659372
     31          6           0       -9.556192    3.282187    2.285215
     32          6           0      -10.404425    1.107647   -0.878620
     33          6           0      -11.912730    0.738570   -0.798370
     34          7           0       -6.134679   -1.227119    0.110287
     35          6           0       -7.358862   -1.694880    0.410236
     36          6           0       -7.399487   -3.152259    0.376645
     37          6           0       -6.044750   -3.485112    0.140133
     38          6           0       -5.315475   -2.298256    0.004346
     39          6           0       -8.590871   -3.993945    0.618239
     40          6           0       -5.127262   -4.594190   -0.022640
     41          8           0       -5.373251   -5.773175    0.093362
     42          6           0       -3.762122   -3.996094   -0.409888
     43          6           0       -2.860495   -4.506797    0.595006
     44          8           0       -2.831485   -4.271599    1.820196
     45          8           0       -2.082472   -5.513644    0.070601
     46          6           0       -0.829543   -5.959165    0.921535
     47          6           0        2.996610   -1.823523   -0.326124
     48          6           0        4.052620   -1.588144   -1.362505
     49          6           0        5.325837   -1.905018   -1.322520
     50          6           0        5.861408   -2.762515   -0.132429
     51          6           0        6.362639   -1.608381   -2.387635
     52          6           0        7.670218   -0.928831   -2.034682
     53          6           0        7.597697    0.635751   -2.244704
     54          6           0        8.577405    1.076818   -3.356662
     55          6           0        7.913751    1.745535   -4.570141
     56          6           0        9.725722    1.969468   -2.810240
     57          6           0       10.716473    1.234910   -1.887016
     58          6           0       10.652914    1.647145   -0.385041
     59          6           0       11.895429    2.404602    0.164135
     60          6           0       12.082357    3.676523   -0.555197
     61          6           0       13.250285    1.537865    0.302218
     62          6           0       13.695760    1.463812    1.826049
     63          6           0       13.203110    0.088212    2.365902
     64          6           0       13.375956   -0.123102    3.958510
     65          6           0       14.600485   -1.077815    4.253105
     66          6           0       12.150652   -0.600143    4.679022
     67          1           0       -1.339788    2.540190   -0.206324
     68          1           0       -7.353249    4.664668    0.393131
     69          1           0       -9.413154   -1.316431    0.795277
     70          1           0       -1.417051   -2.323616    0.215009
     71          1           0       -0.465513    0.121170   -0.974246
     72          1           0       -0.268665   -1.218342    1.534949
     73          1           0       -0.769086    0.557192    1.815797
     74          1           0        0.705303    0.160600    1.022899
     75          1           0       -1.143344   -1.353551   -2.700600
     76          1           0       -2.195350   -2.603920   -2.393333
     77          1           0        0.348358   -3.329379   -3.008785
     78          1           0       -0.606251   -4.169256   -1.837460
     79          1           0       -1.777957    5.956003   -0.529421
     80          1           0       -1.177846    4.459772    0.315669
     81          1           0       -1.996667    5.676939    1.247872
     82          1           0       -3.458899    7.516951    1.208382
     83          1           0       -4.558634    8.399464    0.157871
     84          1           0       -3.452789    7.481885   -0.692997
     85          1           0       -9.507849    3.434451    0.013922
     86          1           0      -10.496760    1.102759    1.252552
     87          1           0       -8.750808    3.040928    2.978832
     88          1           0      -10.474429    2.930299    2.755411
     89          1           0       -9.577958    4.371153    2.313840
     90          1           0       -9.829189    0.323639   -1.370952
     91          1           0      -10.346912    1.989708   -1.516867
     92          1           0      -12.416989    1.203473   -1.646788
     93          1           0      -12.426784    1.212311    0.037875
     94          1           0      -11.853155   -0.343542   -0.692561
     95          1           0       -8.901563   -3.738614    1.631376
     96          1           0       -8.398656   -5.063855    0.694318
     97          1           0       -9.410737   -3.685699   -0.029487
     98          1           0       -3.421974   -4.323002   -1.392728
     99          1           0       -0.677416   -5.307617    1.781043
    100          1           0       -0.001954   -5.892984    0.214382
    101          1           0       -0.886773   -6.971366    1.321259
    102          1           0        3.246416   -2.610015    0.386690
    103          1           0        2.881119   -0.895358    0.232621
    104          1           0        3.787538   -0.973449   -2.222691
    105          1           0        5.961602   -2.230538    0.814186
    106          1           0        6.821229   -3.237614   -0.336690
    107          1           0        5.099687   -3.526631    0.019618
    108          1           0        5.889884   -1.137176   -3.249385
    109          1           0        6.767102   -2.598944   -2.593812
    110          1           0        8.508376   -1.410929   -2.537759
    111          1           0        7.820176   -1.112787   -0.970298
    112          1           0        7.730840    1.059699   -1.249242
    113          1           0        6.617206    1.053475   -2.472895
    114          1           0        8.959832    0.149934   -3.783420
    115          1           0        7.136130    2.475236   -4.347166
    116          1           0        7.353942    1.062438   -5.208584
    117          1           0        8.557138    2.345056   -5.215134
    118          1           0        9.215235    2.686912   -2.168019
    119          1           0       10.260836    2.542922   -3.566712
    120          1           0       11.763268    1.211630   -2.189360
    121          1           0       10.250263    0.253799   -1.800939
    122          1           0       10.526513    0.821790    0.315393
    123          1           0        9.743151    2.244917   -0.327853
    124          1           0       11.550127    2.612632    1.176341
    125          1           0       11.945720    3.629072   -1.636053
    126          1           0       13.024378    4.200650   -0.396288
    127          1           0       11.313616    4.348410   -0.174081
    128          1           0       14.129368    2.037357   -0.104255
    129          1           0       13.132615    0.562978   -0.171176
    130          1           0       13.244909    2.281988    2.386034
    131          1           0       14.784891    1.439913    1.796557
    132          1           0       13.734953   -0.691537    1.820298
    133          1           0       12.147822    0.123769    2.098352
    134          1           0       13.584178    0.849346    4.405534
    135          1           0       14.468699   -2.029505    3.738194
    136          1           0       14.774465   -1.191941    5.323552
    137          1           0       15.488411   -0.596435    3.843068
    138          1           0       11.413374   -0.721575    3.884903
    139          1           0       11.709428    0.144145    5.341812
    140          1           0       12.244859   -1.556647    5.193044
 ---------------------------------------------------------------------

 SCF Done:  E(RZINDO/S) =  -474.556912315     A.U. after   20 cycles

 Excitation energies and oscillator strengths:

 Excited State   1:      Singlet-A      1.2244 eV 1012.61 nm  f=0.5730  <S**2>=0.000
     175 ->178         0.19190
     176 ->177         0.66015
 This state for optimization and/or second-order correction.
 Total Energy, E(CIS/TDA) =  -474.511916217
 Copying the excited state density for this state as the 1-particle RhoCI density.

 Excited State   2:      Singlet-A      1.9000 eV  652.55 nm  f=0.0070  <S**2>=0.000
     175 ->177         0.49916
     176 ->178        -0.47447

 Excited State   3:      Singlet-A      2.8271 eV  438.55 nm  f=0.2338  <S**2>=0.000
     175 ->177         0.21401
     176 ->178         0.29693
     176 ->179         0.52892
     176 ->181         0.17197
     176 ->182         0.15029

 Excited State   4:      Singlet-A      2.9419 eV  421.45 nm  f=0.1479  <S**2>=0.000
     169 ->177         0.15370
     169 ->179         0.26864
     169 ->181         0.10057
     169 ->182        -0.18725
     169 ->186         0.18245
     170 ->177         0.21125
     170 ->179         0.14553
     170 ->181         0.13324
     170 ->182        -0.18847
     170 ->184        -0.10468
     170 ->186         0.10633
     170 ->187         0.11030
     175 ->177         0.16349
     176 ->178         0.17568
     176 ->181        -0.12224

 Excited State   5:      Singlet-A      2.9604 eV  418.80 nm  f=0.0011  <S**2>=0.000
     168 ->179         0.12960
     169 ->177         0.24720
     169 ->178        -0.16232
     169 ->179        -0.18818
     169 ->181         0.16656
     169 ->182        -0.14450
     169 ->186        -0.10391
     169 ->187         0.11368
     170 ->177        -0.17962
     170 ->178         0.15073
     170 ->179         0.27869
     170 ->181        -0.11503
     170 ->186         0.16600

 The electronic state is 1-A.
 Alpha  occ. eigenvalues --   -1.86993  -1.85384  -1.81772  -1.73985  -1.72198
 Alpha  occ. eigenvalues --   -1.70381  -1.66344  -1.61985  -1.60372  -1.57953
 Alpha  occ. eigenvalues --   -1.55022  -1.51380  -1.48915  -1.47917  -1.47171
 Alpha  occ. eigenvalues --   -1.43886  -1.40810  -1.40040  -1.38680  -1.38307
 Alpha  occ. eigenvalues --   -1.36049  -1.34485  -1.34218  -1.32373  -1.28519
 Alpha  occ. eigenvalues --   -1.28290  -1.24660  -1.22051  -1.20312  -1.18653
 Alpha  occ. eigenvalues --   -1.17846  -1.15676  -1.14985  -1.14845  -1.13654
 Alpha  occ. eigenvalues --   -1.13160  -1.10288  -1.09386  -1.06547  -1.05650
 Alpha  occ. eigenvalues --   -1.03821  -1.01964  -0.99716  -0.98207  -0.97761
 Alpha  occ. eigenvalues --   -0.95185  -0.94992  -0.94166  -0.93046  -0.92271
 Alpha  occ. eigenvalues --   -0.91173  -0.90672  -0.88721  -0.88612  -0.86246
 Alpha  occ. eigenvalues --   -0.85634  -0.84329  -0.82536  -0.82348  -0.81051
 Alpha  occ. eigenvalues --   -0.80468  -0.78572  -0.78067  -0.76293  -0.75824
 Alpha  occ. eigenvalues --   -0.75569  -0.75020  -0.74279  -0.74173  -0.73167
 Alpha  occ. eigenvalues --   -0.72539  -0.71995  -0.71500  -0.71126  -0.70713
 Alpha  occ. eigenvalues --   -0.70562  -0.70239  -0.69305  -0.68900  -0.68513
 Alpha  occ. eigenvalues --   -0.67751  -0.66982  -0.66673  -0.66464  -0.66200
 Alpha  occ. eigenvalues --   -0.65495  -0.65306  -0.64549  -0.63794  -0.63235
 Alpha  occ. eigenvalues --   -0.63023  -0.62867  -0.62716  -0.62352  -0.62203
 Alpha  occ. eigenvalues --   -0.61324  -0.61038  -0.60481  -0.60356  -0.59404
 Alpha  occ. eigenvalues --   -0.58987  -0.58733  -0.58423  -0.58327  -0.58014
 Alpha  occ. eigenvalues --   -0.57846  -0.57641  -0.56972  -0.56853  -0.56432
 Alpha  occ. eigenvalues --   -0.56191  -0.55105  -0.55081  -0.54703  -0.54408
 Alpha  occ. eigenvalues --   -0.54284  -0.53793  -0.53492  -0.52909  -0.52578
 Alpha  occ. eigenvalues --   -0.52395  -0.52053  -0.51539  -0.51443  -0.51160
 Alpha  occ. eigenvalues --   -0.50696  -0.50637  -0.50523  -0.50126  -0.49820
 Alpha  occ. eigenvalues --   -0.49636  -0.49432  -0.49395  -0.49219  -0.48883
 Alpha  occ. eigenvalues --   -0.48399  -0.48216  -0.48149  -0.47909  -0.47851
 Alpha  occ. eigenvalues --   -0.47510  -0.47479  -0.47375  -0.46609  -0.46494
 Alpha  occ. eigenvalues --   -0.45884  -0.45876  -0.45718  -0.45276  -0.45231
 Alpha  occ. eigenvalues --   -0.44866  -0.44723  -0.44670  -0.44588  -0.44543
 Alpha  occ. eigenvalues --   -0.44045  -0.43068  -0.42978  -0.42416  -0.42172
 Alpha  occ. eigenvalues --   -0.41932  -0.41295  -0.40290  -0.38928  -0.38391
 Alpha  occ. eigenvalues --   -0.37352  -0.36794  -0.35040  -0.34526  -0.34233
 Alpha  occ. eigenvalues --   -0.33576  -0.33146  -0.32054  -0.31916  -0.26340
 Alpha  occ. eigenvalues --   -0.20999
 Alpha virt. eigenvalues --   -0.07784  -0.02043  -0.00202   0.00958   0.01417
 Alpha virt. eigenvalues --    0.02004   0.03454   0.03564   0.04901   0.05412
 Alpha virt. eigenvalues --    0.06753   0.07462   0.07693   0.08042   0.08580

 Mulliken charges:
               1
     1  Mg   0.431433
     2  C   -0.024885
     3  C   -0.081502
     4  C   -0.085137
     5  C   -0.102854
     6  N   -0.259610
     7  C    0.080370
     8  C   -0.012955
     9  C    0.014297
    10  C    0.164341
    11  C   -0.049888
    12  C   -0.029456
    13  C    0.006112
    14  C    0.478708
    15  O   -0.523501
    16  O   -0.272659
    17  N   -0.335241
    18  C    0.090827
    19  C    0.026157
    20  C   -0.058985
    21  C    0.149288
    22  C   -0.049283
    23  C    0.332298
    24  O   -0.522398
    25  C   -0.034073
    26  N   -0.274197
    27  C    0.154250
    28  C    0.011643
    29  C    0.005233
    30  C    0.151175
    31  C   -0.050952
    32  C   -0.033163
    33  C   -0.064009
    34  N   -0.321624
    35  C    0.113784
    36  C    0.020561
    37  C   -0.053345
    38  C    0.095498
    39  C   -0.034505
    40  C    0.346243
    41  O   -0.510962
    42  C    0.071891
    43  C    0.497154
    44  O   -0.540984
    45  O   -0.290807
    46  C    0.069076
    47  C    0.114029
    48  C   -0.080629
    49  C   -0.006165
    50  C   -0.054635
    51  C   -0.019381
    52  C   -0.029817
    53  C   -0.035300
    54  C    0.000186
    55  C   -0.061157
    56  C   -0.030309
    57  C   -0.045973
    58  C   -0.040465
    59  C   -0.008094
    60  C   -0.047461
    61  C   -0.047494
    62  C   -0.044029
    63  C   -0.042305
    64  C   -0.017102
    65  C   -0.057450
    66  C   -0.055476
    67  H    0.013791
    68  H    0.035609
    69  H    0.014255
    70  H    0.044491
    71  H    0.020812
    72  H    0.039415
    73  H    0.029787
    74  H    0.013639
    75  H    0.023788
    76  H    0.021928
    77  H    0.047628
    78  H    0.033728
    79  H    0.037643
    80  H    0.021415
    81  H    0.032340
    82  H    0.048779
    83  H    0.025588
    84  H    0.034527
    85  H    0.024217
    86  H    0.030099
    87  H    0.023566
    88  H    0.027685
    89  H    0.021447
    90  H    0.025787
    91  H    0.016287
    92  H    0.024408
    93  H    0.019545
    94  H    0.032163
    95  H    0.024999
    96  H    0.039444
    97  H    0.032800
    98  H    0.059658
    99  H    0.058422
   100  H    0.045418
   101  H    0.043077
   102  H    0.061077
   103  H    0.045577
   104  H    0.024361
   105  H    0.028270
   106  H    0.020738
   107  H    0.025455
   108  H    0.024052
   109  H    0.021232
   110  H    0.028636
   111  H    0.015202
   112  H    0.017802
   113  H    0.020142
   114  H    0.019618
   115  H    0.009628
   116  H    0.012281
   117  H    0.017268
   118  H    0.017339
   119  H    0.020791
   120  H    0.032231
   121  H    0.014960
   122  H    0.012904
   123  H    0.017546
   124  H    0.013716
   125  H    0.019305
   126  H    0.012955
   127  H    0.007784
   128  H    0.017188
   129  H    0.027590
   130  H    0.033668
   131  H    0.019483
   132  H    0.025378
   133  H    0.020843
   134  H    0.017289
   135  H    0.024213
   136  H    0.020598
   137  H    0.009970
   138  H    0.009974
   139  H    0.017923
   140  H    0.022492
 Sum of Mulliken charges =  -0.00000

 Dipole moment (field-independent basis, Debye):
    X=              5.0041    Y=              5.6879    Z=             -6.1289  Tot=              9.7446
 N-N= 4.324874268611D+03 E-N= 0.000000000000D+00  KE=-9.324478260149D+03
 Leave Link  601 at Wed May  4 17:22:16 2022, MaxMem=  6710886400 cpu:               0.8 elap:               0.0
 (Enter /sw/apps/gaussian-16.0/g16/l9999.exe)
 1\1\GINC-BP1-COMPUTE196\SP\RZINDO CIS\STO-3G\C55H74Mg1N4O6\OF15641\04-
 May-2022\0\\#p ZINDO=(nstates=5)\\step_201_chromophore_3 ZINDO\\0,1\Mg
 ,0,1.245,8.391,25.669\C,0,2.177,10.333,28.514\C,0,1.464,5.602,27.691\C
 ,0,0.597,6.603,23.001\C,0,1.881,11.148,23.743\N,0,1.735,7.936,27.818\C
 ,0,1.906,8.967,28.753\C,0,2.06,8.396,30.118\C,0,2.168,6.885,29.806\C,0
 ,1.785,6.792,28.391\C,0,3.551,6.258,30.072\C,0,0.908,8.891,31.154\C,0,
 1.394,9.133,32.617\C,0,2.642,8.327,33.034\O,0,3.771,8.795,33.222\O,0,2

 Normal termination of Gaussian 16 at Wed May  4 17:22:16 2022.
