 Gaussian 16, Revision A.03,
 Gaussian 16:  ES64L-G16RevA.03 25-Dec-2016

 ------------------------------
 #p blyp/Def2SVP td=(nstates=5)
 ------------------------------

 --------------------------------------------------
 step_251_chromophore_23 TDDFT with blyp functional
 --------------------------------------------------
 Symbolic Z-matrix:
 Charge =  0 Multiplicity = 1

                         Standard orientation:
 ---------------------------------------------------------------------
 Center     Atomic      Atomic             Coordinates (Angstroms)
 Number     Number       Type             X           Y           Z
 ---------------------------------------------------------------------
      1         12           0        4.507282    1.212068   -0.591501
      2          6           0        3.820606   -2.280584   -0.355817
      3          6           0        1.569355    1.478528   -2.111230
      4          6           0        4.560192    4.535287    0.020804
      5          6           0        7.027596    0.619240    1.857329
      6          7           0        2.999559   -0.197080   -1.249315
      7          6           0        2.937071   -1.603080   -1.138524
      8          6           0        1.657011   -2.213724   -1.791143
      9          6           0        0.991380   -0.944516   -2.394508
     10          6           0        1.947699    0.193332   -1.978915
     11          6           0        0.812528   -1.189922   -3.901991
     12          6           0        0.664153   -3.023816   -0.850492
     13          6           0        0.524332   -4.516691   -1.124895
     14          6           0       -0.893985   -5.059338   -1.394675
     15          8           0       -1.284727   -5.395992   -2.520344
     16          8           0       -1.707457   -5.038679   -0.294536
     17          7           0        3.334431    2.787778   -1.047302
     18          6           0        2.108408    2.675866   -1.702744
     19          6           0        1.589929    3.949491   -2.000583
     20          6           0        2.486857    4.895622   -1.539975
     21          6           0        3.497051    4.144076   -0.822998
     22          6           0        0.261442    4.321086   -2.758160
     23          6           0        2.305328    6.378998   -1.761189
     24          8           0        1.448752    6.856977   -2.443809
     25          6           0        3.445149    7.316681   -1.124602
     26          7           0        5.575543    2.417051    0.795206
     27          6           0        5.433859    3.777867    0.808214
     28          6           0        6.303912    4.320461    2.014822
     29          6           0        7.172140    3.154612    2.516618
     30          6           0        6.553224    1.963930    1.689687
     31          6           0        7.025379    5.610288    1.744975
     32          6           0        6.909746    2.927795    4.000246
     33          6           0        7.982130    2.228085    4.792319
     34          7           0        5.459942   -0.505680    0.359276
     35          6           0        6.468092   -0.573408    1.291081
     36          6           0        6.782756   -1.926164    1.575940
     37          6           0        5.820036   -2.715267    0.903107
     38          6           0        4.971319   -1.759494    0.276565
     39          6           0        7.794091   -2.434729    2.523208
     40          6           0        5.267455   -4.043537    0.605178
     41          8           0        5.708248   -5.153897    0.931252
     42          6           0        3.956699   -3.838555   -0.247201
     43          6           0        4.185442   -4.313608   -1.585732
     44          8           0        4.880303   -3.656719   -2.396681
     45          8           0        3.581123   -5.513113   -1.694477
     46          6           0        3.492502   -6.146790   -3.038582
     47          6           0       -3.081050   -5.630461   -0.525904
     48          6           0       -3.919876   -5.435831    0.734707
     49          6           0       -4.626555   -4.339271    1.029735
     50          6           0       -4.774277   -3.058376    0.158433
     51          6           0       -5.488133   -4.323588    2.294328
     52          6           0       -7.012023   -4.620721    2.051263
     53          6           0       -7.846369   -3.442786    2.706705
     54          6           0       -8.734528   -2.573860    1.703294
     55          6           0      -10.144876   -3.303519    1.448087
     56          6           0       -9.060172   -1.099096    2.057745
     57          6           0       -8.342599   -0.123208    1.143061
     58          6           0       -7.581281    1.047831    1.812954
     59          6           0       -7.892729    2.378150    0.994188
     60          6           0       -6.538154    3.015482    0.451563
     61          6           0       -8.685457    3.374428    1.840431
     62          6           0      -10.047963    3.758380    1.228895
     63          6           0       -9.974938    4.904983    0.246892
     64          6           0      -10.101597    4.406207   -1.222576
     65          6           0       -9.249437    5.439072   -2.079980
     66          6           0      -11.590962    4.452719   -1.758992
     67          1           0        0.625534    1.599831   -2.647548
     68          1           0        4.586565    5.620385    0.141443
     69          1           0        7.867654    0.370463    2.508645
     70          1           0        1.942458   -2.886238   -2.600000
     71          1           0        0.022132   -0.710582   -1.955176
     72          1           0        0.501281   -0.241749   -4.339436
     73          1           0        0.076949   -1.945361   -4.177957
     74          1           0        1.740153   -1.498660   -4.385266
     75          1           0       -0.318102   -2.628843   -1.109947
     76          1           0        0.894557   -2.825270    0.196270
     77          1           0        0.960961   -5.043295   -0.275591
     78          1           0        1.092530   -4.769863   -2.020663
     79          1           0       -0.272150    5.002512   -2.095246
     80          1           0       -0.357618    3.444880   -2.950224
     81          1           0        0.383371    4.716974   -3.766347
     82          1           0        3.223973    8.324279   -1.475368
     83          1           0        4.364249    6.884673   -1.521200
     84          1           0        3.302089    7.148279   -0.057276
     85          1           0        5.554849    4.555918    2.771665
     86          1           0        8.248912    3.245653    2.374220
     87          1           0        7.934008    5.625501    2.346239
     88          1           0        6.334014    6.403100    2.031264
     89          1           0        7.214798    5.809278    0.690811
     90          1           0        5.976669    2.397834    4.193771
     91          1           0        6.697347    3.858098    4.527013
     92          1           0        8.920356    2.133640    4.245892
     93          1           0        7.616557    1.230356    5.036058
     94          1           0        8.087285    2.677018    5.779946
     95          1           0        8.628939   -1.741730    2.632226
     96          1           0        8.136403   -3.380414    2.102265
     97          1           0        7.277815   -2.516115    3.480006
     98          1           0        3.047930   -4.228566    0.211224
     99          1           0        3.566092   -7.198058   -2.756365
    100          1           0        4.261914   -5.817522   -3.736309
    101          1           0        2.478986   -6.096664   -3.437968
    102          1           0       -2.995273   -6.693211   -0.753355
    103          1           0       -3.591184   -5.160579   -1.366345
    104          1           0       -4.148013   -6.329780    1.314529
    105          1           0       -3.819405   -2.963357   -0.359647
    106          1           0       -4.894002   -2.177452    0.789231
    107          1           0       -5.631547   -3.165079   -0.505479
    108          1           0       -5.385774   -3.390109    2.847226
    109          1           0       -5.025994   -5.072552    2.937559
    110          1           0       -7.323033   -5.557320    2.514109
    111          1           0       -7.308327   -4.652899    1.003454
    112          1           0       -7.380456   -2.746080    3.403684
    113          1           0       -8.533198   -4.070608    3.273640
    114          1           0       -8.278282   -2.581281    0.713467
    115          1           0      -10.012952   -4.370494    1.270321
    116          1           0      -10.544055   -2.944431    0.499154
    117          1           0      -10.889919   -3.176326    2.233974
    118          1           0       -8.748343   -0.951640    3.091438
    119          1           0      -10.146403   -1.049458    1.982873
    120          1           0       -9.291322    0.230195    0.739397
    121          1           0       -7.679023   -0.519116    0.374282
    122          1           0       -6.541280    0.734458    1.910187
    123          1           0       -7.847021    1.175277    2.862274
    124          1           0       -8.375777    2.011646    0.088052
    125          1           0       -5.701141    2.690365    1.068703
    126          1           0       -6.464078    4.098438    0.556174
    127          1           0       -6.394806    2.690559   -0.578887
    128          1           0       -8.198787    4.331391    2.031298
    129          1           0       -8.809170    3.181599    2.906025
    130          1           0      -10.599499    4.012133    2.133993
    131          1           0      -10.516664    2.950672    0.667281
    132          1           0       -9.120009    5.563100    0.397248
    133          1           0      -10.816668    5.518305    0.566158
    134          1           0       -9.783564    3.374627   -1.377131
    135          1           0       -9.019936    4.896590   -2.997780
    136          1           0       -8.281127    5.661375   -1.633351
    137          1           0       -9.816455    6.340399   -2.312633
    138          1           0      -11.740564    3.473539   -2.214174
    139          1           0      -11.745818    5.249230   -2.486620
    140          1           0      -12.331679    4.612859   -0.975489
 ---------------------------------------------------------------------

 SCF Done:  E(RB-LYP) =  -3007.35401828     A.U. after   21 cycles

 Excitation energies and oscillator strengths:

 Excited State   1:      Singlet-A      1.8225 eV  680.31 nm  f=0.2901  <S**2>=0.000
     245 -> 248       -0.18587
     246 -> 247        0.68940
     246 <- 247       -0.15047
 This state for optimization and/or second-order correction.
 Total Energy, E(TD-HF/TD-DFT) =  -3007.28704378
 Copying the excited state density for this state as the 1-particle RhoCI density.

 Excited State   2:      Singlet-A      1.9604 eV  632.43 nm  f=0.0071  <S**2>=0.000
     243 -> 247       -0.10587
     244 -> 247        0.67131
     245 -> 247        0.17632

 Excited State   3:      Singlet-A      1.9810 eV  625.86 nm  f=0.0002  <S**2>=0.000
     243 -> 247        0.69038
     244 -> 247        0.12907

 Excited State   4:      Singlet-A      2.0580 eV  602.46 nm  f=0.0802  <S**2>=0.000
     242 -> 247        0.10865
     243 -> 247        0.10202
     244 -> 247       -0.17034
     245 -> 247        0.61467
     246 -> 248        0.24383

 Excited State   5:      Singlet-A      2.4288 eV  510.47 nm  f=0.0074  <S**2>=0.000
     241 -> 247        0.18342
     242 -> 247        0.66415

 The electronic state is 1-A.
 Alpha  occ. eigenvalues --  -46.26986 -18.83360 -18.82357 -18.76687 -18.76518
 Alpha  occ. eigenvalues --  -18.76248 -18.75742 -14.03497 -14.03371 -14.00887
 Alpha  occ. eigenvalues --  -14.00267 -10.04129 -10.03944 -10.00146 -10.00065
 Alpha  occ. eigenvalues --   -9.98448  -9.98153  -9.97230  -9.96929  -9.96302
 Alpha  occ. eigenvalues --   -9.96197  -9.95831  -9.95014  -9.94894  -9.94344
 Alpha  occ. eigenvalues --   -9.94045  -9.94031  -9.93931  -9.93760  -9.93674
 Alpha  occ. eigenvalues --   -9.93645  -9.93586  -9.93509  -9.93313  -9.93310
 Alpha  occ. eigenvalues --   -9.93096  -9.92994  -9.92860  -9.92771  -9.92741
 Alpha  occ. eigenvalues --   -9.92444  -9.92416  -9.92390  -9.92277  -9.92250
 Alpha  occ. eigenvalues --   -9.92195  -9.92183  -9.92144  -9.92117  -9.92020
 Alpha  occ. eigenvalues --   -9.92004  -9.91965  -9.91742  -9.91720  -9.91646
 Alpha  occ. eigenvalues --   -9.91134  -9.91123  -9.91120  -9.91053  -9.91036
 Alpha  occ. eigenvalues --   -9.90947  -9.90778  -9.90720  -9.90710  -9.90598
 Alpha  occ. eigenvalues --   -9.90321  -2.91682  -1.72083  -1.71544  -1.71424
 Alpha  occ. eigenvalues --   -0.98005  -0.97054  -0.93308  -0.90471  -0.89340
 Alpha  occ. eigenvalues --   -0.88864  -0.86333  -0.85603  -0.85242  -0.84248
 Alpha  occ. eigenvalues --   -0.75177  -0.73462  -0.73056  -0.72988  -0.72817
 Alpha  occ. eigenvalues --   -0.71899  -0.71819  -0.70748  -0.70233  -0.70104
 Alpha  occ. eigenvalues --   -0.69825  -0.69414  -0.68235  -0.68098  -0.67765
 Alpha  occ. eigenvalues --   -0.66370  -0.65958  -0.65341  -0.64899  -0.64275
 Alpha  occ. eigenvalues --   -0.63741  -0.62200  -0.62166  -0.61454  -0.60910
 Alpha  occ. eigenvalues --   -0.60688  -0.59808  -0.59633  -0.59265  -0.59001
 Alpha  occ. eigenvalues --   -0.58141  -0.57514  -0.56826  -0.55889  -0.54134
 Alpha  occ. eigenvalues --   -0.53912  -0.53747  -0.52873  -0.52358  -0.51560
 Alpha  occ. eigenvalues --   -0.51500  -0.50973  -0.50893  -0.50627  -0.50197
 Alpha  occ. eigenvalues --   -0.49703  -0.49448  -0.49269  -0.48500  -0.46409
 Alpha  occ. eigenvalues --   -0.46040  -0.46003  -0.45720  -0.45104  -0.44808
 Alpha  occ. eigenvalues --   -0.43957  -0.43797  -0.43000  -0.42879  -0.42225
 Alpha  occ. eigenvalues --   -0.41863  -0.41698  -0.41416  -0.41247  -0.41115
 Alpha  occ. eigenvalues --   -0.41067  -0.40488  -0.40408  -0.40188  -0.39864
 Alpha  occ. eigenvalues --   -0.39628  -0.39584  -0.39422  -0.39116  -0.39013
 Alpha  occ. eigenvalues --   -0.38784  -0.38698  -0.38407  -0.38309  -0.38258
 Alpha  occ. eigenvalues --   -0.37908  -0.37876  -0.37636  -0.37513  -0.37293
 Alpha  occ. eigenvalues --   -0.37203  -0.36853  -0.36560  -0.36422  -0.36258
 Alpha  occ. eigenvalues --   -0.36196  -0.35971  -0.35835  -0.35766  -0.35625
 Alpha  occ. eigenvalues --   -0.35411  -0.35088  -0.34825  -0.34780  -0.34509
 Alpha  occ. eigenvalues --   -0.34353  -0.34326  -0.34181  -0.34134  -0.33881
 Alpha  occ. eigenvalues --   -0.33786  -0.33518  -0.33457  -0.33251  -0.33138
 Alpha  occ. eigenvalues --   -0.32966  -0.32881  -0.32695  -0.32519  -0.32365
 Alpha  occ. eigenvalues --   -0.32240  -0.32032  -0.31841  -0.31694  -0.31603
 Alpha  occ. eigenvalues --   -0.31358  -0.31328  -0.31127  -0.30934  -0.30812
 Alpha  occ. eigenvalues --   -0.30682  -0.30455  -0.30321  -0.30138  -0.30018
 Alpha  occ. eigenvalues --   -0.29790  -0.29643  -0.29571  -0.29318  -0.29206
 Alpha  occ. eigenvalues --   -0.29041  -0.28918  -0.28201  -0.28004  -0.27636
 Alpha  occ. eigenvalues --   -0.27560  -0.27238  -0.27132  -0.26894  -0.26739
 Alpha  occ. eigenvalues --   -0.26529  -0.25964  -0.25643  -0.25373  -0.25258
 Alpha  occ. eigenvalues --   -0.24975  -0.24688  -0.23853  -0.23650  -0.23435
 Alpha  occ. eigenvalues --   -0.23085  -0.22509  -0.22167  -0.21751  -0.21009
 Alpha  occ. eigenvalues --   -0.20663  -0.19967  -0.18801  -0.18782  -0.17445
 Alpha  occ. eigenvalues --   -0.15930
 Alpha virt. eigenvalues --   -0.11632  -0.06952  -0.06038  -0.04270  -0.03475
 Alpha virt. eigenvalues --   -0.03070  -0.02963  -0.02691  -0.01688   0.00529
 Alpha virt. eigenvalues --    0.01416   0.01443   0.02086   0.02760   0.02966

 Mulliken charges:
               1
     1  Mg   0.720013
     2  C   -0.022076
     3  C   -0.117808
     4  C   -0.062792
     5  C   -0.052363
     6  N   -0.239084
     7  C   -0.056984
     8  C    0.030036
     9  C   -0.009898
    10  C    0.073046
    11  C    0.112055
    12  C    0.119577
    13  C    0.145594
    14  C    0.057905
    15  O   -0.218083
    16  O   -0.276618
    17  N   -0.334124
    18  C    0.196379
    19  C   -0.153410
    20  C    0.061283
    21  C    0.092417
    22  C    0.198648
    23  C   -0.120222
    24  O   -0.123573
    25  C    0.110629
    26  N   -0.247404
    27  C    0.050712
    28  C    0.023816
    29  C    0.034636
    30  C    0.063975
    31  C    0.140895
    32  C    0.047177
    33  C    0.099277
    34  N   -0.218565
    35  C    0.079024
    36  C   -0.205092
    37  C    0.117917
    38  C    0.049734
    39  C    0.176693
    40  C   -0.042572
    41  O   -0.145954
    42  C    0.073978
    43  C    0.144201
    44  O   -0.214999
    45  O   -0.258617
    46  C    0.195742
    47  C    0.303715
    48  C   -0.078529
    49  C   -0.169948
    50  C    0.125933
    51  C    0.139632
    52  C    0.079859
    53  C    0.092366
    54  C   -0.106285
    55  C    0.059673
    56  C    0.141735
    57  C    0.025879
    58  C    0.105241
    59  C   -0.047218
    60  C    0.085451
    61  C    0.132463
    62  C    0.055510
    63  C    0.131322
    64  C   -0.114457
    65  C    0.085886
    66  C    0.098789
    67  H   -0.073060
    68  H   -0.098440
    69  H   -0.072496
    70  H   -0.020266
    71  H   -0.015457
    72  H   -0.019795
    73  H    0.002143
    74  H   -0.004002
    75  H   -0.013553
    76  H   -0.006993
    77  H    0.006152
    78  H   -0.015037
    79  H    0.012279
    80  H   -0.038929
    81  H    0.010530
    82  H   -0.004840
    83  H    0.021077
    84  H    0.024219
    85  H   -0.014964
    86  H   -0.021587
    87  H   -0.007392
    88  H   -0.013130
    89  H   -0.008488
    90  H   -0.025928
    91  H   -0.030691
    92  H   -0.005631
    93  H   -0.015256
    94  H   -0.017672
    95  H   -0.013356
    96  H    0.018234
    97  H    0.012697
    98  H   -0.010695
    99  H    0.019043
   100  H    0.041711
   101  H    0.030663
   102  H   -0.006099
   103  H    0.002999
   104  H   -0.033609
   105  H    0.004995
   106  H   -0.006041
   107  H    0.021931
   108  H   -0.021370
   109  H   -0.034246
   110  H   -0.018044
   111  H   -0.013494
   112  H   -0.024254
   113  H   -0.038604
   114  H   -0.038213
   115  H   -0.027845
   116  H   -0.020541
   117  H   -0.001916
   118  H   -0.037658
   119  H   -0.033624
   120  H   -0.017338
   121  H   -0.013062
   122  H   -0.037460
   123  H   -0.041643
   124  H   -0.013044
   125  H   -0.025937
   126  H   -0.015999
   127  H   -0.013275
   128  H   -0.057855
   129  H   -0.051780
   130  H   -0.047078
   131  H   -0.028685
   132  H   -0.042049
   133  H   -0.042810
   134  H   -0.016955
   135  H   -0.026684
   136  H   -0.009370
   137  H   -0.002498
   138  H   -0.016818
   139  H   -0.013838
   140  H   -0.013412
 Sum of Mulliken charges =  -0.00000

 Dipole moment (field-independent basis, Debye):
    X=             -2.1634    Y=              1.3705    Z=              2.4488  Tot=              3.5434
 Quadrupole moment (field-independent basis, Debye-Ang):
   XX=           -388.4492   YY=           -427.9489   ZZ=           -401.3427
   XY=             37.2889   XZ=              5.1376   YZ=             19.7769

 Normal termination of Gaussian 16 at Wed May  4 17:55:43 2022.
