 Gaussian 16, Revision A.03,
 Gaussian 16:  ES64L-G16RevA.03 25-Dec-2016

 -----------------------------------
 #p cam-b3lyp/Def2SVP td=(nstates=5)
 -----------------------------------

 -------------------------------------------------------
 step_251_chromophore_23 TDDFT with cam-b3lyp functional
 -------------------------------------------------------
 Symbolic Z-matrix:
 Charge =  0 Multiplicity = 1

                         Standard orientation:
 ---------------------------------------------------------------------
 Center     Atomic      Atomic             Coordinates (Angstroms)
 Number     Number       Type             X           Y           Z
 ---------------------------------------------------------------------
      1         12           0        4.507282    1.212068   -0.591501
      2          6           0        3.820606   -2.280584   -0.355817
      3          6           0        1.569355    1.478528   -2.111230
      4          6           0        4.560192    4.535287    0.020804
      5          6           0        7.027596    0.619240    1.857329
      6          7           0        2.999559   -0.197080   -1.249315
      7          6           0        2.937071   -1.603080   -1.138524
      8          6           0        1.657011   -2.213724   -1.791143
      9          6           0        0.991380   -0.944516   -2.394508
     10          6           0        1.947699    0.193332   -1.978915
     11          6           0        0.812528   -1.189922   -3.901991
     12          6           0        0.664153   -3.023816   -0.850492
     13          6           0        0.524332   -4.516691   -1.124895
     14          6           0       -0.893985   -5.059338   -1.394675
     15          8           0       -1.284727   -5.395992   -2.520344
     16          8           0       -1.707457   -5.038679   -0.294536
     17          7           0        3.334431    2.787778   -1.047302
     18          6           0        2.108408    2.675866   -1.702744
     19          6           0        1.589929    3.949491   -2.000583
     20          6           0        2.486857    4.895622   -1.539975
     21          6           0        3.497051    4.144076   -0.822998
     22          6           0        0.261442    4.321086   -2.758160
     23          6           0        2.305328    6.378998   -1.761189
     24          8           0        1.448752    6.856977   -2.443809
     25          6           0        3.445149    7.316681   -1.124602
     26          7           0        5.575543    2.417051    0.795206
     27          6           0        5.433859    3.777867    0.808214
     28          6           0        6.303912    4.320461    2.014822
     29          6           0        7.172140    3.154612    2.516618
     30          6           0        6.553224    1.963930    1.689687
     31          6           0        7.025379    5.610288    1.744975
     32          6           0        6.909746    2.927795    4.000246
     33          6           0        7.982130    2.228085    4.792319
     34          7           0        5.459942   -0.505680    0.359276
     35          6           0        6.468092   -0.573408    1.291081
     36          6           0        6.782756   -1.926164    1.575940
     37          6           0        5.820036   -2.715267    0.903107
     38          6           0        4.971319   -1.759494    0.276565
     39          6           0        7.794091   -2.434729    2.523208
     40          6           0        5.267455   -4.043537    0.605178
     41          8           0        5.708248   -5.153897    0.931252
     42          6           0        3.956699   -3.838555   -0.247201
     43          6           0        4.185442   -4.313608   -1.585732
     44          8           0        4.880303   -3.656719   -2.396681
     45          8           0        3.581123   -5.513113   -1.694477
     46          6           0        3.492502   -6.146790   -3.038582
     47          6           0       -3.081050   -5.630461   -0.525904
     48          6           0       -3.919876   -5.435831    0.734707
     49          6           0       -4.626555   -4.339271    1.029735
     50          6           0       -4.774277   -3.058376    0.158433
     51          6           0       -5.488133   -4.323588    2.294328
     52          6           0       -7.012023   -4.620721    2.051263
     53          6           0       -7.846369   -3.442786    2.706705
     54          6           0       -8.734528   -2.573860    1.703294
     55          6           0      -10.144876   -3.303519    1.448087
     56          6           0       -9.060172   -1.099096    2.057745
     57          6           0       -8.342599   -0.123208    1.143061
     58          6           0       -7.581281    1.047831    1.812954
     59          6           0       -7.892729    2.378150    0.994188
     60          6           0       -6.538154    3.015482    0.451563
     61          6           0       -8.685457    3.374428    1.840431
     62          6           0      -10.047963    3.758380    1.228895
     63          6           0       -9.974938    4.904983    0.246892
     64          6           0      -10.101597    4.406207   -1.222576
     65          6           0       -9.249437    5.439072   -2.079980
     66          6           0      -11.590962    4.452719   -1.758992
     67          1           0        0.625534    1.599831   -2.647548
     68          1           0        4.586565    5.620385    0.141443
     69          1           0        7.867654    0.370463    2.508645
     70          1           0        1.942458   -2.886238   -2.600000
     71          1           0        0.022132   -0.710582   -1.955176
     72          1           0        0.501281   -0.241749   -4.339436
     73          1           0        0.076949   -1.945361   -4.177957
     74          1           0        1.740153   -1.498660   -4.385266
     75          1           0       -0.318102   -2.628843   -1.109947
     76          1           0        0.894557   -2.825270    0.196270
     77          1           0        0.960961   -5.043295   -0.275591
     78          1           0        1.092530   -4.769863   -2.020663
     79          1           0       -0.272150    5.002512   -2.095246
     80          1           0       -0.357618    3.444880   -2.950224
     81          1           0        0.383371    4.716974   -3.766347
     82          1           0        3.223973    8.324279   -1.475368
     83          1           0        4.364249    6.884673   -1.521200
     84          1           0        3.302089    7.148279   -0.057276
     85          1           0        5.554849    4.555918    2.771665
     86          1           0        8.248912    3.245653    2.374220
     87          1           0        7.934008    5.625501    2.346239
     88          1           0        6.334014    6.403100    2.031264
     89          1           0        7.214798    5.809278    0.690811
     90          1           0        5.976669    2.397834    4.193771
     91          1           0        6.697347    3.858098    4.527013
     92          1           0        8.920356    2.133640    4.245892
     93          1           0        7.616557    1.230356    5.036058
     94          1           0        8.087285    2.677018    5.779946
     95          1           0        8.628939   -1.741730    2.632226
     96          1           0        8.136403   -3.380414    2.102265
     97          1           0        7.277815   -2.516115    3.480006
     98          1           0        3.047930   -4.228566    0.211224
     99          1           0        3.566092   -7.198058   -2.756365
    100          1           0        4.261914   -5.817522   -3.736309
    101          1           0        2.478986   -6.096664   -3.437968
    102          1           0       -2.995273   -6.693211   -0.753355
    103          1           0       -3.591184   -5.160579   -1.366345
    104          1           0       -4.148013   -6.329780    1.314529
    105          1           0       -3.819405   -2.963357   -0.359647
    106          1           0       -4.894002   -2.177452    0.789231
    107          1           0       -5.631547   -3.165079   -0.505479
    108          1           0       -5.385774   -3.390109    2.847226
    109          1           0       -5.025994   -5.072552    2.937559
    110          1           0       -7.323033   -5.557320    2.514109
    111          1           0       -7.308327   -4.652899    1.003454
    112          1           0       -7.380456   -2.746080    3.403684
    113          1           0       -8.533198   -4.070608    3.273640
    114          1           0       -8.278282   -2.581281    0.713467
    115          1           0      -10.012952   -4.370494    1.270321
    116          1           0      -10.544055   -2.944431    0.499154
    117          1           0      -10.889919   -3.176326    2.233974
    118          1           0       -8.748343   -0.951640    3.091438
    119          1           0      -10.146403   -1.049458    1.982873
    120          1           0       -9.291322    0.230195    0.739397
    121          1           0       -7.679023   -0.519116    0.374282
    122          1           0       -6.541280    0.734458    1.910187
    123          1           0       -7.847021    1.175277    2.862274
    124          1           0       -8.375777    2.011646    0.088052
    125          1           0       -5.701141    2.690365    1.068703
    126          1           0       -6.464078    4.098438    0.556174
    127          1           0       -6.394806    2.690559   -0.578887
    128          1           0       -8.198787    4.331391    2.031298
    129          1           0       -8.809170    3.181599    2.906025
    130          1           0      -10.599499    4.012133    2.133993
    131          1           0      -10.516664    2.950672    0.667281
    132          1           0       -9.120009    5.563100    0.397248
    133          1           0      -10.816668    5.518305    0.566158
    134          1           0       -9.783564    3.374627   -1.377131
    135          1           0       -9.019936    4.896590   -2.997780
    136          1           0       -8.281127    5.661375   -1.633351
    137          1           0       -9.816455    6.340399   -2.312633
    138          1           0      -11.740564    3.473539   -2.214174
    139          1           0      -11.745818    5.249230   -2.486620
    140          1           0      -12.331679    4.612859   -0.975489
 ---------------------------------------------------------------------

 SCF Done:  E(RCAM-B3LYP) =  -3007.14333524     A.U. after   18 cycles

 Excitation energies and oscillator strengths:

 Excited State   1:      Singlet-A      1.7231 eV  719.54 nm  f=0.3762  <S**2>=0.000
     245 -> 248       -0.17121
     246 -> 247        0.68745
     245 <- 248       -0.10384
 This state for optimization and/or second-order correction.
 Total Energy, E(TD-HF/TD-DFT) =  -3007.08001240
 Copying the excited state density for this state as the 1-particle RhoCI density.

 Excited State   2:      Singlet-A      2.2585 eV  548.97 nm  f=0.1180  <S**2>=0.000
     245 -> 247        0.63706
     246 -> 248        0.29009

 Excited State   3:      Singlet-A      3.2541 eV  381.01 nm  f=0.0030  <S**2>=0.000
     244 -> 247        0.67660

 Excited State   4:      Singlet-A      3.4939 eV  354.86 nm  f=0.1206  <S**2>=0.000
     239 -> 247        0.12591
     240 -> 247       -0.12350
     243 -> 247        0.54185
     245 -> 247        0.11380
     246 -> 248       -0.35909

 Excited State   5:      Singlet-A      3.5732 eV  346.99 nm  f=0.1368  <S**2>=0.000
     241 -> 247        0.37245
     241 -> 249       -0.23561
     242 -> 247        0.30213
     242 -> 249       -0.19080
     243 -> 247       -0.18874
     245 -> 247        0.12146
     246 -> 248       -0.26233

 The electronic state is 1-A.
 Alpha  occ. eigenvalues --  -46.88504 -19.26398 -19.25279 -19.19685 -19.19658
 Alpha  occ. eigenvalues --  -19.19559 -19.18712 -14.42536 -14.42175 -14.39498
 Alpha  occ. eigenvalues --  -14.38459 -10.39468 -10.39432 -10.35472 -10.35370
 Alpha  occ. eigenvalues --  -10.32565 -10.32389 -10.31635 -10.31486 -10.30987
 Alpha  occ. eigenvalues --  -10.30610 -10.30471 -10.29612 -10.28674 -10.28457
 Alpha  occ. eigenvalues --  -10.28208 -10.28135 -10.28012 -10.27950 -10.27774
 Alpha  occ. eigenvalues --  -10.27772 -10.27695 -10.27618 -10.27536 -10.27304
 Alpha  occ. eigenvalues --  -10.27188 -10.27072 -10.26916 -10.26832 -10.26559
 Alpha  occ. eigenvalues --  -10.26456 -10.26356 -10.26236 -10.26230 -10.26218
 Alpha  occ. eigenvalues --  -10.26216 -10.26072 -10.25989 -10.25920 -10.25877
 Alpha  occ. eigenvalues --  -10.25842 -10.25755 -10.25445 -10.25419 -10.25166
 Alpha  occ. eigenvalues --  -10.24825 -10.24822 -10.24803 -10.24781 -10.24665
 Alpha  occ. eigenvalues --  -10.24566 -10.24418 -10.24376 -10.24357 -10.24225
 Alpha  occ. eigenvalues --  -10.23966  -3.17101  -1.91978  -1.91537  -1.91428
 Alpha  occ. eigenvalues --   -1.16541  -1.15500  -1.11975  -1.08638  -1.07313
 Alpha  occ. eigenvalues --   -1.06707  -1.04117  -1.03174  -1.02831  -1.01740
 Alpha  occ. eigenvalues --   -0.92215  -0.90324  -0.89877  -0.89663  -0.89615
 Alpha  occ. eigenvalues --   -0.88703  -0.88509  -0.87358  -0.86684  -0.86604
 Alpha  occ. eigenvalues --   -0.86499  -0.85849  -0.84494  -0.84211  -0.83983
 Alpha  occ. eigenvalues --   -0.82425  -0.81957  -0.81245  -0.80799  -0.80355
 Alpha  occ. eigenvalues --   -0.79491  -0.77764  -0.77698  -0.77188  -0.76387
 Alpha  occ. eigenvalues --   -0.76059  -0.75149  -0.74957  -0.74561  -0.74249
 Alpha  occ. eigenvalues --   -0.73172  -0.72490  -0.71701  -0.70791  -0.68611
 Alpha  occ. eigenvalues --   -0.68605  -0.68353  -0.67343  -0.66775  -0.65777
 Alpha  occ. eigenvalues --   -0.65593  -0.65159  -0.65076  -0.64497  -0.64269
 Alpha  occ. eigenvalues --   -0.63477  -0.63419  -0.63216  -0.62181  -0.60143
 Alpha  occ. eigenvalues --   -0.59636  -0.59596  -0.59190  -0.58510  -0.58322
 Alpha  occ. eigenvalues --   -0.57257  -0.57099  -0.56349  -0.56113  -0.55394
 Alpha  occ. eigenvalues --   -0.54960  -0.54671  -0.54275  -0.54214  -0.54008
 Alpha  occ. eigenvalues --   -0.53722  -0.53230  -0.53104  -0.52835  -0.52651
 Alpha  occ. eigenvalues --   -0.52552  -0.52260  -0.52176  -0.52026  -0.51603
 Alpha  occ. eigenvalues --   -0.51443  -0.51199  -0.50750  -0.50600  -0.50502
 Alpha  occ. eigenvalues --   -0.50325  -0.50186  -0.50067  -0.49894  -0.49743
 Alpha  occ. eigenvalues --   -0.49704  -0.49190  -0.49027  -0.48744  -0.48484
 Alpha  occ. eigenvalues --   -0.48350  -0.48274  -0.48166  -0.47981  -0.47782
 Alpha  occ. eigenvalues --   -0.47546  -0.47478  -0.46885  -0.46664  -0.46358
 Alpha  occ. eigenvalues --   -0.46256  -0.46147  -0.46135  -0.45872  -0.45645
 Alpha  occ. eigenvalues --   -0.45554  -0.45375  -0.45237  -0.45139  -0.44953
 Alpha  occ. eigenvalues --   -0.44785  -0.44712  -0.44176  -0.44150  -0.44050
 Alpha  occ. eigenvalues --   -0.43942  -0.43727  -0.43704  -0.43281  -0.43203
 Alpha  occ. eigenvalues --   -0.43060  -0.42883  -0.42639  -0.42464  -0.42274
 Alpha  occ. eigenvalues --   -0.42116  -0.41885  -0.41827  -0.41627  -0.41426
 Alpha  occ. eigenvalues --   -0.40995  -0.40931  -0.40731  -0.40528  -0.40196
 Alpha  occ. eigenvalues --   -0.40079  -0.40052  -0.39198  -0.39121  -0.38495
 Alpha  occ. eigenvalues --   -0.38411  -0.38221  -0.38111  -0.37927  -0.37545
 Alpha  occ. eigenvalues --   -0.37287  -0.36907  -0.36743  -0.36543  -0.36334
 Alpha  occ. eigenvalues --   -0.35559  -0.35279  -0.34335  -0.34274  -0.34211
 Alpha  occ. eigenvalues --   -0.34035  -0.33421  -0.32921  -0.31799  -0.30889
 Alpha  occ. eigenvalues --   -0.30748  -0.30721  -0.30543  -0.28914  -0.24267
 Alpha  occ. eigenvalues --   -0.21248
 Alpha virt. eigenvalues --   -0.08743  -0.01702   0.00592   0.02210   0.02769
 Alpha virt. eigenvalues --    0.03976   0.04650   0.04727   0.05519   0.07189
 Alpha virt. eigenvalues --    0.07428   0.08520   0.08719   0.09100   0.09298

 Mulliken charges:
               1
     1  Mg   0.849990
     2  C   -0.037838
     3  C   -0.127617
     4  C   -0.088568
     5  C   -0.059112
     6  N   -0.306557
     7  C   -0.022902
     8  C   -0.014903
     9  C   -0.069062
    10  C    0.094265
    11  C    0.058831
    12  C    0.064193
    13  C    0.079966
    14  C    0.139893
    15  O   -0.259958
    16  O   -0.339428
    17  N   -0.421978
    18  C    0.201581
    19  C   -0.158642
    20  C   -0.012293
    21  C    0.124809
    22  C    0.150615
    23  C   -0.040004
    24  O   -0.163391
    25  C    0.032931
    26  N   -0.321049
    27  C    0.081310
    28  C   -0.032053
    29  C   -0.024543
    30  C    0.083640
    31  C    0.078959
    32  C   -0.005163
    33  C    0.032838
    34  N   -0.303044
    35  C    0.079957
    36  C   -0.204823
    37  C    0.040526
    38  C    0.083929
    39  C    0.124692
    40  C    0.055130
    41  O   -0.186255
    42  C   -0.005185
    43  C    0.229231
    44  O   -0.252089
    45  O   -0.321882
    46  C    0.159065
    47  C    0.270913
    48  C   -0.105105
    49  C   -0.183994
    50  C    0.071414
    51  C    0.077277
    52  C    0.028120
    53  C    0.035175
    54  C   -0.154768
    55  C    0.003783
    56  C    0.088937
    57  C   -0.029525
    58  C    0.058022
    59  C   -0.110318
    60  C    0.034984
    61  C    0.076310
    62  C    0.003012
    63  C    0.074236
    64  C   -0.173986
    65  C    0.028988
    66  C    0.042642
    67  H   -0.038467
    68  H   -0.061774
    69  H   -0.037172
    70  H    0.012362
    71  H    0.019598
    72  H    0.004644
    73  H    0.028072
    74  H    0.021412
    75  H    0.015834
    76  H    0.025470
    77  H    0.037535
    78  H    0.012114
    79  H    0.039143
    80  H   -0.011424
    81  H    0.039242
    82  H    0.030942
    83  H    0.046722
    84  H    0.048582
    85  H    0.020415
    86  H    0.012751
    87  H    0.018346
    88  H    0.009935
    89  H    0.016926
    90  H    0.005540
    91  H   -0.002535
    92  H    0.016004
    93  H    0.008843
    94  H    0.008654
    95  H    0.009152
    96  H    0.043320
    97  H    0.037397
    98  H    0.031429
    99  H    0.043362
   100  H    0.067781
   101  H    0.049220
   102  H    0.023885
   103  H    0.032569
   104  H   -0.000789
   105  H    0.027694
   106  H    0.016590
   107  H    0.042844
   108  H    0.007721
   109  H   -0.002460
   110  H    0.010999
   111  H    0.012190
   112  H    0.002553
   113  H   -0.008514
   114  H   -0.010144
   115  H   -0.004068
   116  H    0.003805
   117  H    0.020593
   118  H   -0.009781
   119  H   -0.002526
   120  H    0.008744
   121  H    0.012289
   122  H   -0.009877
   123  H   -0.012760
   124  H    0.015872
   125  H   -0.002199
   126  H    0.005904
   127  H    0.009397
   128  H   -0.027277
   129  H   -0.020137
   130  H   -0.015064
   131  H   -0.003917
   132  H   -0.013838
   133  H   -0.012243
   134  H    0.011044
   135  H   -0.001336
   136  H    0.012636
   137  H    0.019876
   138  H    0.006352
   139  H    0.009963
   140  H    0.009903
 Sum of Mulliken charges =  -0.00000

 Dipole moment (field-independent basis, Debye):
    X=             -2.6422    Y=              2.0355    Z=              2.1591  Tot=              3.9732
 Quadrupole moment (field-independent basis, Debye-Ang):
   XX=           -391.3129   YY=           -422.7797   ZZ=           -400.2562
   XY=             41.1703   XZ=              4.5904   YZ=             20.4974

 Normal termination of Gaussian 16 at Wed May  4 16:59:13 2022.
