 Gaussian 16, Revision A.03,
 Gaussian 16:  ES64L-G16RevA.03 25-Dec-2016

 ---------------------------------
 #p PBE1PBE/Def2SVP td=(nstates=5)
 ---------------------------------

 -----------------------------------------------------
 step_251_chromophore_23 TDDFT with PBE1PBE functional
 -----------------------------------------------------
 Symbolic Z-matrix:
 Charge =  0 Multiplicity = 1

                         Standard orientation:
 ---------------------------------------------------------------------
 Center     Atomic      Atomic             Coordinates (Angstroms)
 Number     Number       Type             X           Y           Z
 ---------------------------------------------------------------------
      1         12           0        4.507282    1.212068   -0.591501
      2          6           0        3.820606   -2.280584   -0.355817
      3          6           0        1.569355    1.478528   -2.111230
      4          6           0        4.560192    4.535287    0.020804
      5          6           0        7.027596    0.619240    1.857329
      6          7           0        2.999559   -0.197080   -1.249315
      7          6           0        2.937071   -1.603080   -1.138524
      8          6           0        1.657011   -2.213724   -1.791143
      9          6           0        0.991380   -0.944516   -2.394508
     10          6           0        1.947699    0.193332   -1.978915
     11          6           0        0.812528   -1.189922   -3.901991
     12          6           0        0.664153   -3.023816   -0.850492
     13          6           0        0.524332   -4.516691   -1.124895
     14          6           0       -0.893985   -5.059338   -1.394675
     15          8           0       -1.284727   -5.395992   -2.520344
     16          8           0       -1.707457   -5.038679   -0.294536
     17          7           0        3.334431    2.787778   -1.047302
     18          6           0        2.108408    2.675866   -1.702744
     19          6           0        1.589929    3.949491   -2.000583
     20          6           0        2.486857    4.895622   -1.539975
     21          6           0        3.497051    4.144076   -0.822998
     22          6           0        0.261442    4.321086   -2.758160
     23          6           0        2.305328    6.378998   -1.761189
     24          8           0        1.448752    6.856977   -2.443809
     25          6           0        3.445149    7.316681   -1.124602
     26          7           0        5.575543    2.417051    0.795206
     27          6           0        5.433859    3.777867    0.808214
     28          6           0        6.303912    4.320461    2.014822
     29          6           0        7.172140    3.154612    2.516618
     30          6           0        6.553224    1.963930    1.689687
     31          6           0        7.025379    5.610288    1.744975
     32          6           0        6.909746    2.927795    4.000246
     33          6           0        7.982130    2.228085    4.792319
     34          7           0        5.459942   -0.505680    0.359276
     35          6           0        6.468092   -0.573408    1.291081
     36          6           0        6.782756   -1.926164    1.575940
     37          6           0        5.820036   -2.715267    0.903107
     38          6           0        4.971319   -1.759494    0.276565
     39          6           0        7.794091   -2.434729    2.523208
     40          6           0        5.267455   -4.043537    0.605178
     41          8           0        5.708248   -5.153897    0.931252
     42          6           0        3.956699   -3.838555   -0.247201
     43          6           0        4.185442   -4.313608   -1.585732
     44          8           0        4.880303   -3.656719   -2.396681
     45          8           0        3.581123   -5.513113   -1.694477
     46          6           0        3.492502   -6.146790   -3.038582
     47          6           0       -3.081050   -5.630461   -0.525904
     48          6           0       -3.919876   -5.435831    0.734707
     49          6           0       -4.626555   -4.339271    1.029735
     50          6           0       -4.774277   -3.058376    0.158433
     51          6           0       -5.488133   -4.323588    2.294328
     52          6           0       -7.012023   -4.620721    2.051263
     53          6           0       -7.846369   -3.442786    2.706705
     54          6           0       -8.734528   -2.573860    1.703294
     55          6           0      -10.144876   -3.303519    1.448087
     56          6           0       -9.060172   -1.099096    2.057745
     57          6           0       -8.342599   -0.123208    1.143061
     58          6           0       -7.581281    1.047831    1.812954
     59          6           0       -7.892729    2.378150    0.994188
     60          6           0       -6.538154    3.015482    0.451563
     61          6           0       -8.685457    3.374428    1.840431
     62          6           0      -10.047963    3.758380    1.228895
     63          6           0       -9.974938    4.904983    0.246892
     64          6           0      -10.101597    4.406207   -1.222576
     65          6           0       -9.249437    5.439072   -2.079980
     66          6           0      -11.590962    4.452719   -1.758992
     67          1           0        0.625534    1.599831   -2.647548
     68          1           0        4.586565    5.620385    0.141443
     69          1           0        7.867654    0.370463    2.508645
     70          1           0        1.942458   -2.886238   -2.600000
     71          1           0        0.022132   -0.710582   -1.955176
     72          1           0        0.501281   -0.241749   -4.339436
     73          1           0        0.076949   -1.945361   -4.177957
     74          1           0        1.740153   -1.498660   -4.385266
     75          1           0       -0.318102   -2.628843   -1.109947
     76          1           0        0.894557   -2.825270    0.196270
     77          1           0        0.960961   -5.043295   -0.275591
     78          1           0        1.092530   -4.769863   -2.020663
     79          1           0       -0.272150    5.002512   -2.095246
     80          1           0       -0.357618    3.444880   -2.950224
     81          1           0        0.383371    4.716974   -3.766347
     82          1           0        3.223973    8.324279   -1.475368
     83          1           0        4.364249    6.884673   -1.521200
     84          1           0        3.302089    7.148279   -0.057276
     85          1           0        5.554849    4.555918    2.771665
     86          1           0        8.248912    3.245653    2.374220
     87          1           0        7.934008    5.625501    2.346239
     88          1           0        6.334014    6.403100    2.031264
     89          1           0        7.214798    5.809278    0.690811
     90          1           0        5.976669    2.397834    4.193771
     91          1           0        6.697347    3.858098    4.527013
     92          1           0        8.920356    2.133640    4.245892
     93          1           0        7.616557    1.230356    5.036058
     94          1           0        8.087285    2.677018    5.779946
     95          1           0        8.628939   -1.741730    2.632226
     96          1           0        8.136403   -3.380414    2.102265
     97          1           0        7.277815   -2.516115    3.480006
     98          1           0        3.047930   -4.228566    0.211224
     99          1           0        3.566092   -7.198058   -2.756365
    100          1           0        4.261914   -5.817522   -3.736309
    101          1           0        2.478986   -6.096664   -3.437968
    102          1           0       -2.995273   -6.693211   -0.753355
    103          1           0       -3.591184   -5.160579   -1.366345
    104          1           0       -4.148013   -6.329780    1.314529
    105          1           0       -3.819405   -2.963357   -0.359647
    106          1           0       -4.894002   -2.177452    0.789231
    107          1           0       -5.631547   -3.165079   -0.505479
    108          1           0       -5.385774   -3.390109    2.847226
    109          1           0       -5.025994   -5.072552    2.937559
    110          1           0       -7.323033   -5.557320    2.514109
    111          1           0       -7.308327   -4.652899    1.003454
    112          1           0       -7.380456   -2.746080    3.403684
    113          1           0       -8.533198   -4.070608    3.273640
    114          1           0       -8.278282   -2.581281    0.713467
    115          1           0      -10.012952   -4.370494    1.270321
    116          1           0      -10.544055   -2.944431    0.499154
    117          1           0      -10.889919   -3.176326    2.233974
    118          1           0       -8.748343   -0.951640    3.091438
    119          1           0      -10.146403   -1.049458    1.982873
    120          1           0       -9.291322    0.230195    0.739397
    121          1           0       -7.679023   -0.519116    0.374282
    122          1           0       -6.541280    0.734458    1.910187
    123          1           0       -7.847021    1.175277    2.862274
    124          1           0       -8.375777    2.011646    0.088052
    125          1           0       -5.701141    2.690365    1.068703
    126          1           0       -6.464078    4.098438    0.556174
    127          1           0       -6.394806    2.690559   -0.578887
    128          1           0       -8.198787    4.331391    2.031298
    129          1           0       -8.809170    3.181599    2.906025
    130          1           0      -10.599499    4.012133    2.133993
    131          1           0      -10.516664    2.950672    0.667281
    132          1           0       -9.120009    5.563100    0.397248
    133          1           0      -10.816668    5.518305    0.566158
    134          1           0       -9.783564    3.374627   -1.377131
    135          1           0       -9.019936    4.896590   -2.997780
    136          1           0       -8.281127    5.661375   -1.633351
    137          1           0       -9.816455    6.340399   -2.312633
    138          1           0      -11.740564    3.473539   -2.214174
    139          1           0      -11.745818    5.249230   -2.486620
    140          1           0      -12.331679    4.612859   -0.975489
 ---------------------------------------------------------------------

 SCF Done:  E(RPBE1PBE) =  -3005.33048959     A.U. after   15 cycles

 Excitation energies and oscillator strengths:

 Excited State   1:      Singlet-A      1.8693 eV  663.26 nm  f=0.3608  <S**2>=0.000
     245 -> 248       -0.16703
     246 -> 247        0.69417
     246 <- 247       -0.10930
 This state for optimization and/or second-order correction.
 Total Energy, E(TD-HF/TD-DFT) =  -3005.26179336
 Copying the excited state density for this state as the 1-particle RhoCI density.

 Excited State   2:      Singlet-A      2.2658 eV  547.21 nm  f=0.1134  <S**2>=0.000
     245 -> 247        0.64667
     246 -> 248        0.26776

 Excited State   3:      Singlet-A      2.8932 eV  428.54 nm  f=0.0073  <S**2>=0.000
     242 -> 247       -0.13189
     244 -> 247        0.67872

 Excited State   4:      Singlet-A      3.0555 eV  405.77 nm  f=0.0002  <S**2>=0.000
     242 -> 247       -0.15551
     243 -> 247        0.66271
     243 -> 250        0.10716

 Excited State   5:      Singlet-A      3.0789 eV  402.69 nm  f=0.0001  <S**2>=0.000
     242 -> 247        0.64138
     242 -> 249       -0.15384
     243 -> 247        0.15540
     244 -> 247        0.14181

 The electronic state is 1-A.
 Alpha  occ. eigenvalues --  -46.91933 -19.27054 -19.25966 -19.20012 -19.19855
 Alpha  occ. eigenvalues --  -19.19720 -19.19120 -14.41970 -14.41767 -14.39086
 Alpha  occ. eigenvalues --  -14.38236 -10.36549 -10.36436 -10.32681 -10.32500
 Alpha  occ. eigenvalues --  -10.29795 -10.29773 -10.29473 -10.29242 -10.28510
 Alpha  occ. eigenvalues --  -10.28439 -10.27965 -10.27030 -10.26671 -10.26292
 Alpha  occ. eigenvalues --  -10.25919 -10.25860 -10.25661 -10.25639 -10.25620
 Alpha  occ. eigenvalues --  -10.25450 -10.25392 -10.25326 -10.25064 -10.25043
 Alpha  occ. eigenvalues --  -10.25034 -10.25023 -10.24538 -10.24339 -10.24046
 Alpha  occ. eigenvalues --  -10.23956 -10.23928 -10.23923 -10.23787 -10.23618
 Alpha  occ. eigenvalues --  -10.23584 -10.23533 -10.23496 -10.23444 -10.23437
 Alpha  occ. eigenvalues --  -10.23430 -10.23263 -10.23055 -10.23018 -10.22820
 Alpha  occ. eigenvalues --  -10.22650 -10.22402 -10.22362 -10.22218 -10.22212
 Alpha  occ. eigenvalues --  -10.21954 -10.21932 -10.21813 -10.21736 -10.21733
 Alpha  occ. eigenvalues --  -10.21500  -3.14104  -1.86920  -1.86459  -1.86354
 Alpha  occ. eigenvalues --   -1.11321  -1.10315  -1.06597  -1.03521  -1.02116
 Alpha  occ. eigenvalues --   -1.01593  -0.98676  -0.97861  -0.97481  -0.96373
 Alpha  occ. eigenvalues --   -0.86629  -0.84467  -0.84056  -0.83967  -0.83707
 Alpha  occ. eigenvalues --   -0.82967  -0.82605  -0.81664  -0.81012  -0.80850
 Alpha  occ. eigenvalues --   -0.80717  -0.80062  -0.78701  -0.78530  -0.78225
 Alpha  occ. eigenvalues --   -0.76586  -0.76213  -0.75604  -0.74963  -0.74535
 Alpha  occ. eigenvalues --   -0.73639  -0.72093  -0.72033  -0.71357  -0.70697
 Alpha  occ. eigenvalues --   -0.70223  -0.69473  -0.69027  -0.68663  -0.68408
 Alpha  occ. eigenvalues --   -0.67603  -0.66865  -0.66142  -0.65078  -0.63060
 Alpha  occ. eigenvalues --   -0.62920  -0.62602  -0.61822  -0.60983  -0.60192
 Alpha  occ. eigenvalues --   -0.59987  -0.59611  -0.59321  -0.59092  -0.58409
 Alpha  occ. eigenvalues --   -0.58032  -0.57550  -0.57407  -0.56790  -0.54643
 Alpha  occ. eigenvalues --   -0.54207  -0.54078  -0.53562  -0.53048  -0.52878
 Alpha  occ. eigenvalues --   -0.51844  -0.51625  -0.50896  -0.50534  -0.49919
 Alpha  occ. eigenvalues --   -0.49554  -0.49233  -0.48887  -0.48809  -0.48595
 Alpha  occ. eigenvalues --   -0.48125  -0.47846  -0.47598  -0.47415  -0.47122
 Alpha  occ. eigenvalues --   -0.46952  -0.46715  -0.46625  -0.46519  -0.46206
 Alpha  occ. eigenvalues --   -0.45942  -0.45804  -0.45275  -0.45190  -0.45051
 Alpha  occ. eigenvalues --   -0.44966  -0.44873  -0.44621  -0.44385  -0.44282
 Alpha  occ. eigenvalues --   -0.44186  -0.43775  -0.43580  -0.43398  -0.43092
 Alpha  occ. eigenvalues --   -0.43029  -0.42915  -0.42815  -0.42606  -0.42336
 Alpha  occ. eigenvalues --   -0.42204  -0.42004  -0.41590  -0.41321  -0.40986
 Alpha  occ. eigenvalues --   -0.40928  -0.40874  -0.40692  -0.40527  -0.40315
 Alpha  occ. eigenvalues --   -0.40157  -0.40096  -0.39974  -0.39843  -0.39616
 Alpha  occ. eigenvalues --   -0.39515  -0.39441  -0.38933  -0.38892  -0.38744
 Alpha  occ. eigenvalues --   -0.38688  -0.38466  -0.38364  -0.38093  -0.38066
 Alpha  occ. eigenvalues --   -0.37881  -0.37716  -0.37466  -0.37283  -0.37077
 Alpha  occ. eigenvalues --   -0.36890  -0.36792  -0.36576  -0.36540  -0.36142
 Alpha  occ. eigenvalues --   -0.35850  -0.35669  -0.35506  -0.35413  -0.35188
 Alpha  occ. eigenvalues --   -0.35054  -0.34816  -0.34133  -0.33921  -0.33273
 Alpha  occ. eigenvalues --   -0.33167  -0.33166  -0.33096  -0.32760  -0.32379
 Alpha  occ. eigenvalues --   -0.32322  -0.31867  -0.31758  -0.31408  -0.31402
 Alpha  occ. eigenvalues --   -0.30471  -0.30175  -0.29436  -0.29205  -0.29045
 Alpha  occ. eigenvalues --   -0.28879  -0.28563  -0.28380  -0.27392  -0.26147
 Alpha  occ. eigenvalues --   -0.26015  -0.25749  -0.25508  -0.24734  -0.21163
 Alpha  occ. eigenvalues --   -0.18868
 Alpha virt. eigenvalues --   -0.11224  -0.05251  -0.03691  -0.01658  -0.00557
 Alpha virt. eigenvalues --   -0.00450   0.00037   0.00201   0.01147   0.03514
 Alpha virt. eigenvalues --    0.04202   0.04423   0.04965   0.05707   0.05865

 Mulliken charges:
               1
     1  Mg   0.994931
     2  C   -0.056528
     3  C   -0.118734
     4  C   -0.093608
     5  C   -0.050351
     6  N   -0.413465
     7  C    0.051279
     8  C   -0.075128
     9  C   -0.155272
    10  C    0.140491
    11  C    0.003004
    12  C    0.010482
    13  C   -0.003541
    14  C    0.205495
    15  O   -0.291093
    16  O   -0.365991
    17  N   -0.534427
    18  C    0.214054
    19  C   -0.177308
    20  C   -0.059010
    21  C    0.152483
    22  C    0.092889
    23  C    0.015094
    24  O   -0.200833
    25  C   -0.049787
    26  N   -0.425059
    27  C    0.123158
    28  C   -0.106394
    29  C   -0.114390
    30  C    0.123317
    31  C    0.019556
    32  C   -0.056717
    33  C   -0.039913
    34  N   -0.422800
    35  C    0.105633
    36  C   -0.230756
    37  C    0.003444
    38  C    0.139548
    39  C    0.068516
    40  C    0.149532
    41  O   -0.229860
    42  C   -0.122066
    43  C    0.321115
    44  O   -0.283893
    45  O   -0.354815
    46  C    0.105766
    47  C    0.224801
    48  C   -0.119205
    49  C   -0.218964
    50  C    0.007203
    51  C    0.011674
    52  C   -0.030911
    53  C   -0.021168
    54  C   -0.233675
    55  C   -0.062376
    56  C    0.036865
    57  C   -0.099324
    58  C    0.014450
    59  C   -0.203426
    60  C   -0.020956
    61  C    0.028491
    62  C   -0.067821
    63  C    0.028060
    64  C   -0.271399
    65  C   -0.035189
    66  C   -0.012425
    67  H   -0.005703
    68  H   -0.025593
    69  H   -0.002028
    70  H    0.050195
    71  H    0.054705
    72  H    0.033591
    73  H    0.055614
    74  H    0.048427
    75  H    0.051877
    76  H    0.056845
    77  H    0.069431
    78  H    0.051543
    79  H    0.065838
    80  H    0.015756
    81  H    0.065412
    82  H    0.058908
    83  H    0.074090
    84  H    0.074944
    85  H    0.057954
    86  H    0.047880
    87  H    0.046163
    88  H    0.037473
    89  H    0.044790
    90  H    0.038349
    91  H    0.031632
    92  H    0.042230
    93  H    0.036542
    94  H    0.037530
    95  H    0.037134
    96  H    0.071514
    97  H    0.067020
    98  H    0.070810
    99  H    0.064780
   100  H    0.087373
   101  H    0.068487
   102  H    0.050692
   103  H    0.058650
   104  H    0.028391
   105  H    0.056298
   106  H    0.044386
   107  H    0.068952
   108  H    0.040272
   109  H    0.029854
   110  H    0.042648
   111  H    0.043886
   112  H    0.032894
   113  H    0.025574
   114  H    0.029372
   115  H    0.025021
   116  H    0.033146
   117  H    0.047982
   118  H    0.022972
   119  H    0.029968
   120  H    0.042326
   121  H    0.043513
   122  H    0.021857
   123  H    0.018368
   124  H    0.054407
   125  H    0.025088
   126  H    0.032327
   127  H    0.036232
   128  H    0.004827
   129  H    0.010312
   130  H    0.018466
   131  H    0.030437
   132  H    0.016397
   133  H    0.020317
   134  H    0.048129
   135  H    0.027935
   136  H    0.040730
   137  H    0.046872
   138  H    0.033473
   139  H    0.036333
   140  H    0.036428
 Sum of Mulliken charges =  -0.00000

 Dipole moment (field-independent basis, Debye):
    X=             -2.4350    Y=              1.7646    Z=              2.4350  Tot=              3.8694
 Quadrupole moment (field-independent basis, Debye-Ang):
   XX=           -384.5711   YY=           -420.7815   ZZ=           -396.8247
   XY=             40.6762   XZ=              6.5535   YZ=             21.1309

 Normal termination of Gaussian 16 at Wed May  4 17:15:31 2022.
