 Gaussian 16, Revision A.03,
 Gaussian 16:  ES64L-G16RevA.03 25-Dec-2016

 --------------------------------
 #p wB97XD/Def2SVP td=(nstates=5)
 --------------------------------

 ----------------------------------------------------
 step_251_chromophore_23 TDDFT with wB97XD functional
 ----------------------------------------------------
 Symbolic Z-matrix:
 Charge =  0 Multiplicity = 1

                         Standard orientation:
 ---------------------------------------------------------------------
 Center     Atomic      Atomic             Coordinates (Angstroms)
 Number     Number       Type             X           Y           Z
 ---------------------------------------------------------------------
      1         12           0        4.507282    1.212068   -0.591501
      2          6           0        3.820606   -2.280584   -0.355817
      3          6           0        1.569355    1.478528   -2.111230
      4          6           0        4.560192    4.535287    0.020804
      5          6           0        7.027596    0.619240    1.857329
      6          7           0        2.999559   -0.197080   -1.249315
      7          6           0        2.937071   -1.603080   -1.138524
      8          6           0        1.657011   -2.213724   -1.791143
      9          6           0        0.991380   -0.944516   -2.394508
     10          6           0        1.947699    0.193332   -1.978915
     11          6           0        0.812528   -1.189922   -3.901991
     12          6           0        0.664153   -3.023816   -0.850492
     13          6           0        0.524332   -4.516691   -1.124895
     14          6           0       -0.893985   -5.059338   -1.394675
     15          8           0       -1.284727   -5.395992   -2.520344
     16          8           0       -1.707457   -5.038679   -0.294536
     17          7           0        3.334431    2.787778   -1.047302
     18          6           0        2.108408    2.675866   -1.702744
     19          6           0        1.589929    3.949491   -2.000583
     20          6           0        2.486857    4.895622   -1.539975
     21          6           0        3.497051    4.144076   -0.822998
     22          6           0        0.261442    4.321086   -2.758160
     23          6           0        2.305328    6.378998   -1.761189
     24          8           0        1.448752    6.856977   -2.443809
     25          6           0        3.445149    7.316681   -1.124602
     26          7           0        5.575543    2.417051    0.795206
     27          6           0        5.433859    3.777867    0.808214
     28          6           0        6.303912    4.320461    2.014822
     29          6           0        7.172140    3.154612    2.516618
     30          6           0        6.553224    1.963930    1.689687
     31          6           0        7.025379    5.610288    1.744975
     32          6           0        6.909746    2.927795    4.000246
     33          6           0        7.982130    2.228085    4.792319
     34          7           0        5.459942   -0.505680    0.359276
     35          6           0        6.468092   -0.573408    1.291081
     36          6           0        6.782756   -1.926164    1.575940
     37          6           0        5.820036   -2.715267    0.903107
     38          6           0        4.971319   -1.759494    0.276565
     39          6           0        7.794091   -2.434729    2.523208
     40          6           0        5.267455   -4.043537    0.605178
     41          8           0        5.708248   -5.153897    0.931252
     42          6           0        3.956699   -3.838555   -0.247201
     43          6           0        4.185442   -4.313608   -1.585732
     44          8           0        4.880303   -3.656719   -2.396681
     45          8           0        3.581123   -5.513113   -1.694477
     46          6           0        3.492502   -6.146790   -3.038582
     47          6           0       -3.081050   -5.630461   -0.525904
     48          6           0       -3.919876   -5.435831    0.734707
     49          6           0       -4.626555   -4.339271    1.029735
     50          6           0       -4.774277   -3.058376    0.158433
     51          6           0       -5.488133   -4.323588    2.294328
     52          6           0       -7.012023   -4.620721    2.051263
     53          6           0       -7.846369   -3.442786    2.706705
     54          6           0       -8.734528   -2.573860    1.703294
     55          6           0      -10.144876   -3.303519    1.448087
     56          6           0       -9.060172   -1.099096    2.057745
     57          6           0       -8.342599   -0.123208    1.143061
     58          6           0       -7.581281    1.047831    1.812954
     59          6           0       -7.892729    2.378150    0.994188
     60          6           0       -6.538154    3.015482    0.451563
     61          6           0       -8.685457    3.374428    1.840431
     62          6           0      -10.047963    3.758380    1.228895
     63          6           0       -9.974938    4.904983    0.246892
     64          6           0      -10.101597    4.406207   -1.222576
     65          6           0       -9.249437    5.439072   -2.079980
     66          6           0      -11.590962    4.452719   -1.758992
     67          1           0        0.625534    1.599831   -2.647548
     68          1           0        4.586565    5.620385    0.141443
     69          1           0        7.867654    0.370463    2.508645
     70          1           0        1.942458   -2.886238   -2.600000
     71          1           0        0.022132   -0.710582   -1.955176
     72          1           0        0.501281   -0.241749   -4.339436
     73          1           0        0.076949   -1.945361   -4.177957
     74          1           0        1.740153   -1.498660   -4.385266
     75          1           0       -0.318102   -2.628843   -1.109947
     76          1           0        0.894557   -2.825270    0.196270
     77          1           0        0.960961   -5.043295   -0.275591
     78          1           0        1.092530   -4.769863   -2.020663
     79          1           0       -0.272150    5.002512   -2.095246
     80          1           0       -0.357618    3.444880   -2.950224
     81          1           0        0.383371    4.716974   -3.766347
     82          1           0        3.223973    8.324279   -1.475368
     83          1           0        4.364249    6.884673   -1.521200
     84          1           0        3.302089    7.148279   -0.057276
     85          1           0        5.554849    4.555918    2.771665
     86          1           0        8.248912    3.245653    2.374220
     87          1           0        7.934008    5.625501    2.346239
     88          1           0        6.334014    6.403100    2.031264
     89          1           0        7.214798    5.809278    0.690811
     90          1           0        5.976669    2.397834    4.193771
     91          1           0        6.697347    3.858098    4.527013
     92          1           0        8.920356    2.133640    4.245892
     93          1           0        7.616557    1.230356    5.036058
     94          1           0        8.087285    2.677018    5.779946
     95          1           0        8.628939   -1.741730    2.632226
     96          1           0        8.136403   -3.380414    2.102265
     97          1           0        7.277815   -2.516115    3.480006
     98          1           0        3.047930   -4.228566    0.211224
     99          1           0        3.566092   -7.198058   -2.756365
    100          1           0        4.261914   -5.817522   -3.736309
    101          1           0        2.478986   -6.096664   -3.437968
    102          1           0       -2.995273   -6.693211   -0.753355
    103          1           0       -3.591184   -5.160579   -1.366345
    104          1           0       -4.148013   -6.329780    1.314529
    105          1           0       -3.819405   -2.963357   -0.359647
    106          1           0       -4.894002   -2.177452    0.789231
    107          1           0       -5.631547   -3.165079   -0.505479
    108          1           0       -5.385774   -3.390109    2.847226
    109          1           0       -5.025994   -5.072552    2.937559
    110          1           0       -7.323033   -5.557320    2.514109
    111          1           0       -7.308327   -4.652899    1.003454
    112          1           0       -7.380456   -2.746080    3.403684
    113          1           0       -8.533198   -4.070608    3.273640
    114          1           0       -8.278282   -2.581281    0.713467
    115          1           0      -10.012952   -4.370494    1.270321
    116          1           0      -10.544055   -2.944431    0.499154
    117          1           0      -10.889919   -3.176326    2.233974
    118          1           0       -8.748343   -0.951640    3.091438
    119          1           0      -10.146403   -1.049458    1.982873
    120          1           0       -9.291322    0.230195    0.739397
    121          1           0       -7.679023   -0.519116    0.374282
    122          1           0       -6.541280    0.734458    1.910187
    123          1           0       -7.847021    1.175277    2.862274
    124          1           0       -8.375777    2.011646    0.088052
    125          1           0       -5.701141    2.690365    1.068703
    126          1           0       -6.464078    4.098438    0.556174
    127          1           0       -6.394806    2.690559   -0.578887
    128          1           0       -8.198787    4.331391    2.031298
    129          1           0       -8.809170    3.181599    2.906025
    130          1           0      -10.599499    4.012133    2.133993
    131          1           0      -10.516664    2.950672    0.667281
    132          1           0       -9.120009    5.563100    0.397248
    133          1           0      -10.816668    5.518305    0.566158
    134          1           0       -9.783564    3.374627   -1.377131
    135          1           0       -9.019936    4.896590   -2.997780
    136          1           0       -8.281127    5.661375   -1.633351
    137          1           0       -9.816455    6.340399   -2.312633
    138          1           0      -11.740564    3.473539   -2.214174
    139          1           0      -11.745818    5.249230   -2.486620
    140          1           0      -12.331679    4.612859   -0.975489
 ---------------------------------------------------------------------

 SCF Done:  E(RwB97XD) =  -3007.84346197     A.U. after   19 cycles

 Excitation energies and oscillator strengths:

 Excited State   1:      Singlet-A      1.6731 eV  741.04 nm  f=0.3777  <S**2>=0.000
     245 -> 248       -0.17587
     246 -> 247        0.68535
     245 <- 248       -0.11219
 This state for optimization and/or second-order correction.
 Total Energy, E(TD-HF/TD-DFT) =  -3007.78197656
 Copying the excited state density for this state as the 1-particle RhoCI density.

 Excited State   2:      Singlet-A      2.2045 eV  562.42 nm  f=0.1151  <S**2>=0.000
     245 -> 247        0.63520
     246 -> 248        0.29142

 Excited State   3:      Singlet-A      3.2886 eV  377.01 nm  f=0.0021  <S**2>=0.000
     240 -> 247        0.11682
     244 -> 247        0.66475

 Excited State   4:      Singlet-A      3.5010 eV  354.14 nm  f=0.1322  <S**2>=0.000
     239 -> 247       -0.12570
     240 -> 247        0.32480
     242 -> 247       -0.26774
     243 -> 247        0.35552
     245 -> 247       -0.11253
     246 -> 248        0.37130

 Excited State   5:      Singlet-A      3.6171 eV  342.77 nm  f=0.2111  <S**2>=0.000
     241 -> 247       -0.12933
     242 -> 247        0.21617
     242 -> 249       -0.20021
     243 -> 247        0.41531
     243 -> 249       -0.24653
     243 -> 250        0.10005
     245 -> 247        0.15033
     246 -> 248       -0.29814

 The electronic state is 1-A.
 Alpha  occ. eigenvalues --  -46.94866 -19.31597 -19.30532 -19.24698 -19.24664
 Alpha  occ. eigenvalues --  -19.24509 -19.23750 -14.47184 -14.46774 -14.44165
 Alpha  occ. eigenvalues --  -14.43034 -10.43320 -10.43256 -10.39478 -10.39384
 Alpha  occ. eigenvalues --  -10.36314 -10.36302 -10.35709 -10.35503 -10.35102
 Alpha  occ. eigenvalues --  -10.34618 -10.34514 -10.33697 -10.32625 -10.32538
 Alpha  occ. eigenvalues --  -10.32410 -10.32198 -10.31969 -10.31958 -10.31801
 Alpha  occ. eigenvalues --  -10.31783 -10.31672 -10.31645 -10.31484 -10.31328
 Alpha  occ. eigenvalues --  -10.31288 -10.31118 -10.30984 -10.30962 -10.30401
 Alpha  occ. eigenvalues --  -10.30389 -10.30272 -10.30224 -10.30224 -10.30202
 Alpha  occ. eigenvalues --  -10.30101 -10.30083 -10.30048 -10.29863 -10.29816
 Alpha  occ. eigenvalues --  -10.29694 -10.29656 -10.29397 -10.29248 -10.28973
 Alpha  occ. eigenvalues --  -10.28841 -10.28767 -10.28723 -10.28639 -10.28579
 Alpha  occ. eigenvalues --  -10.28383 -10.28301 -10.28253 -10.28187 -10.28111
 Alpha  occ. eigenvalues --  -10.27879  -3.20905  -1.94470  -1.94009  -1.93898
 Alpha  occ. eigenvalues --   -1.18704  -1.17698  -1.14226  -1.10849  -1.09473
 Alpha  occ. eigenvalues --   -1.08934  -1.06153  -1.05235  -1.04842  -1.03755
 Alpha  occ. eigenvalues --   -0.94164  -0.92144  -0.91713  -0.91512  -0.91387
 Alpha  occ. eigenvalues --   -0.90676  -0.90280  -0.89306  -0.88665  -0.88425
 Alpha  occ. eigenvalues --   -0.88389  -0.87727  -0.86360  -0.86106  -0.85859
 Alpha  occ. eigenvalues --   -0.84257  -0.83871  -0.83206  -0.82680  -0.82283
 Alpha  occ. eigenvalues --   -0.81321  -0.79674  -0.79613  -0.79145  -0.78311
 Alpha  occ. eigenvalues --   -0.77908  -0.77116  -0.76747  -0.76370  -0.76082
 Alpha  occ. eigenvalues --   -0.75125  -0.74439  -0.73684  -0.72729  -0.70591
 Alpha  occ. eigenvalues --   -0.70507  -0.70243  -0.69356  -0.68638  -0.67750
 Alpha  occ. eigenvalues --   -0.67482  -0.67104  -0.66979  -0.66502  -0.66085
 Alpha  occ. eigenvalues --   -0.65494  -0.65231  -0.65052  -0.64156  -0.62183
 Alpha  occ. eigenvalues --   -0.61594  -0.61569  -0.61096  -0.60451  -0.60294
 Alpha  occ. eigenvalues --   -0.59201  -0.59059  -0.58348  -0.58006  -0.57347
 Alpha  occ. eigenvalues --   -0.56922  -0.56602  -0.56221  -0.56133  -0.55967
 Alpha  occ. eigenvalues --   -0.55570  -0.55169  -0.54983  -0.54782  -0.54561
 Alpha  occ. eigenvalues --   -0.54486  -0.54214  -0.54064  -0.53921  -0.53533
 Alpha  occ. eigenvalues --   -0.53332  -0.53109  -0.52620  -0.52475  -0.52388
 Alpha  occ. eigenvalues --   -0.52211  -0.52100  -0.52015  -0.51829  -0.51629
 Alpha  occ. eigenvalues --   -0.51569  -0.51164  -0.50958  -0.50665  -0.50408
 Alpha  occ. eigenvalues --   -0.50246  -0.50167  -0.50097  -0.49879  -0.49653
 Alpha  occ. eigenvalues --   -0.49483  -0.49410  -0.48807  -0.48568  -0.48310
 Alpha  occ. eigenvalues --   -0.48131  -0.48072  -0.47991  -0.47758  -0.47574
 Alpha  occ. eigenvalues --   -0.47418  -0.47292  -0.47180  -0.47044  -0.46883
 Alpha  occ. eigenvalues --   -0.46708  -0.46633  -0.46097  -0.46074  -0.45907
 Alpha  occ. eigenvalues --   -0.45845  -0.45736  -0.45618  -0.45243  -0.45138
 Alpha  occ. eigenvalues --   -0.44971  -0.44815  -0.44578  -0.44398  -0.44175
 Alpha  occ. eigenvalues --   -0.44003  -0.43800  -0.43708  -0.43541  -0.43288
 Alpha  occ. eigenvalues --   -0.42905  -0.42788  -0.42590  -0.42449  -0.42087
 Alpha  occ. eigenvalues --   -0.41966  -0.41908  -0.41127  -0.40978  -0.40338
 Alpha  occ. eigenvalues --   -0.40245  -0.40119  -0.40045  -0.39786  -0.39398
 Alpha  occ. eigenvalues --   -0.39390  -0.38934  -0.38792  -0.38430  -0.38256
 Alpha  occ. eigenvalues --   -0.37432  -0.37118  -0.36207  -0.36172  -0.36139
 Alpha  occ. eigenvalues --   -0.35975  -0.35257  -0.35183  -0.34030  -0.32982
 Alpha  occ. eigenvalues --   -0.32754  -0.32720  -0.32641  -0.31046  -0.26206
 Alpha  occ. eigenvalues --   -0.23062
 Alpha virt. eigenvalues --   -0.07082   0.00223   0.02678   0.04820   0.05469
 Alpha virt. eigenvalues --    0.06200   0.06852   0.06958   0.07895   0.10007
 Alpha virt. eigenvalues --    0.10894   0.11195   0.11677   0.12412   0.12524

 Mulliken charges:
               1
     1  Mg   0.985005
     2  C   -0.045304
     3  C   -0.132185
     4  C   -0.102615
     5  C   -0.063400
     6  N   -0.377572
     7  C    0.013684
     8  C   -0.049691
     9  C   -0.125224
    10  C    0.121938
    11  C    0.012361
    12  C    0.021759
    13  C    0.023324
    14  C    0.196530
    15  O   -0.289300
    16  O   -0.366104
    17  N   -0.504966
    18  C    0.212733
    19  C   -0.172098
    20  C   -0.054899
    21  C    0.150243
    22  C    0.105934
    23  C    0.008211
    24  O   -0.195182
    25  C   -0.027842
    26  N   -0.393449
    27  C    0.110664
    28  C   -0.081187
    29  C   -0.082593
    30  C    0.108096
    31  C    0.029377
    32  C   -0.045222
    33  C   -0.025561
    34  N   -0.385749
    35  C    0.093450
    36  C   -0.223075
    37  C    0.000866
    38  C    0.116899
    39  C    0.079525
    40  C    0.130065
    41  O   -0.222012
    42  C   -0.076900
    43  C    0.293998
    44  O   -0.279324
    45  O   -0.351364
    46  C    0.119858
    47  C    0.238146
    48  C   -0.127645
    49  C   -0.207844
    50  C    0.021565
    51  C    0.031887
    52  C   -0.018642
    53  C   -0.005592
    54  C   -0.205412
    55  C   -0.045854
    56  C    0.050122
    57  C   -0.075889
    58  C    0.023653
    59  C   -0.170208
    60  C   -0.007198
    61  C    0.040635
    62  C   -0.043992
    63  C    0.036309
    64  C   -0.239099
    65  C   -0.019104
    66  C   -0.003316
    67  H   -0.016169
    68  H   -0.040360
    69  H   -0.012812
    70  H    0.033462
    71  H    0.045824
    72  H    0.026941
    73  H    0.051116
    74  H    0.043265
    75  H    0.040204
    76  H    0.051203
    77  H    0.064084
    78  H    0.032001
    79  H    0.061618
    80  H    0.011796
    81  H    0.062917
    82  H    0.058140
    83  H    0.066314
    84  H    0.068362
    85  H    0.046671
    86  H    0.038473
    87  H    0.041322
    88  H    0.031562
    89  H    0.038641
    90  H    0.030317
    91  H    0.021403
    92  H    0.036133
    93  H    0.030075
    94  H    0.032873
    95  H    0.030632
    96  H    0.066949
    97  H    0.060742
    98  H    0.059527
    99  H    0.061287
   100  H    0.084974
   101  H    0.065709
   102  H    0.047532
   103  H    0.053499
   104  H    0.025621
   105  H    0.050013
   106  H    0.038839
   107  H    0.063556
   108  H    0.030797
   109  H    0.023012
   110  H    0.037227
   111  H    0.033223
   112  H    0.024179
   113  H    0.016194
   114  H    0.011536
   115  H    0.017988
   116  H    0.026233
   117  H    0.041586
   118  H    0.013042
   119  H    0.021787
   120  H    0.030681
   121  H    0.035566
   122  H    0.013889
   123  H    0.008531
   124  H    0.035288
   125  H    0.018297
   126  H    0.025214
   127  H    0.031208
   128  H   -0.005252
   129  H    0.003411
   130  H    0.012173
   131  H    0.017312
   132  H    0.006112
   133  H    0.012542
   134  H    0.035241
   135  H    0.021658
   136  H    0.033567
   137  H    0.040118
   138  H    0.028256
   139  H    0.030476
   140  H    0.030428
 Sum of Mulliken charges =  -0.00000

 Dipole moment (field-independent basis, Debye):
    X=             -2.7625    Y=              2.1854    Z=              2.1096  Tot=              4.1058
 Quadrupole moment (field-independent basis, Debye-Ang):
   XX=           -387.4771   YY=           -418.4767   ZZ=           -396.6441
   XY=             41.9233   XZ=              5.0647   YZ=             20.4115

 Normal termination of Gaussian 16 at Wed May  4 17:42:59 2022.
