 Gaussian 16, Revision A.03,
 Gaussian 16:  ES64L-G16RevA.03 25-Dec-2016

 --------------------
 #p ZINDO=(nstates=5)
 --------------------

 -----------------------------
 step_251_chromophore_23 ZINDO
 -----------------------------
 Symbolic Z-matrix:
 Charge =  0 Multiplicity = 1

                         Standard orientation:
 ---------------------------------------------------------------------
 Center     Atomic      Atomic             Coordinates (Angstroms)
 Number     Number       Type             X           Y           Z
 ---------------------------------------------------------------------
      1         12           0        4.507282    1.212068   -0.591501
      2          6           0        3.820606   -2.280584   -0.355817
      3          6           0        1.569355    1.478528   -2.111230
      4          6           0        4.560192    4.535287    0.020804
      5          6           0        7.027596    0.619240    1.857329
      6          7           0        2.999559   -0.197080   -1.249315
      7          6           0        2.937071   -1.603080   -1.138524
      8          6           0        1.657011   -2.213724   -1.791143
      9          6           0        0.991380   -0.944516   -2.394508
     10          6           0        1.947699    0.193332   -1.978915
     11          6           0        0.812528   -1.189922   -3.901991
     12          6           0        0.664153   -3.023816   -0.850492
     13          6           0        0.524332   -4.516691   -1.124895
     14          6           0       -0.893985   -5.059338   -1.394675
     15          8           0       -1.284727   -5.395992   -2.520344
     16          8           0       -1.707457   -5.038679   -0.294536
     17          7           0        3.334431    2.787778   -1.047302
     18          6           0        2.108408    2.675866   -1.702744
     19          6           0        1.589929    3.949491   -2.000583
     20          6           0        2.486857    4.895622   -1.539975
     21          6           0        3.497051    4.144076   -0.822998
     22          6           0        0.261442    4.321086   -2.758160
     23          6           0        2.305328    6.378998   -1.761189
     24          8           0        1.448752    6.856977   -2.443809
     25          6           0        3.445149    7.316681   -1.124602
     26          7           0        5.575543    2.417051    0.795206
     27          6           0        5.433859    3.777867    0.808214
     28          6           0        6.303912    4.320461    2.014822
     29          6           0        7.172140    3.154612    2.516618
     30          6           0        6.553224    1.963930    1.689687
     31          6           0        7.025379    5.610288    1.744975
     32          6           0        6.909746    2.927795    4.000246
     33          6           0        7.982130    2.228085    4.792319
     34          7           0        5.459942   -0.505680    0.359276
     35          6           0        6.468092   -0.573408    1.291081
     36          6           0        6.782756   -1.926164    1.575940
     37          6           0        5.820036   -2.715267    0.903107
     38          6           0        4.971319   -1.759494    0.276565
     39          6           0        7.794091   -2.434729    2.523208
     40          6           0        5.267455   -4.043537    0.605178
     41          8           0        5.708248   -5.153897    0.931252
     42          6           0        3.956699   -3.838555   -0.247201
     43          6           0        4.185442   -4.313608   -1.585732
     44          8           0        4.880303   -3.656719   -2.396681
     45          8           0        3.581123   -5.513113   -1.694477
     46          6           0        3.492502   -6.146790   -3.038582
     47          6           0       -3.081050   -5.630461   -0.525904
     48          6           0       -3.919876   -5.435831    0.734707
     49          6           0       -4.626555   -4.339271    1.029735
     50          6           0       -4.774277   -3.058376    0.158433
     51          6           0       -5.488133   -4.323588    2.294328
     52          6           0       -7.012023   -4.620721    2.051263
     53          6           0       -7.846369   -3.442786    2.706705
     54          6           0       -8.734528   -2.573860    1.703294
     55          6           0      -10.144876   -3.303519    1.448087
     56          6           0       -9.060172   -1.099096    2.057745
     57          6           0       -8.342599   -0.123208    1.143061
     58          6           0       -7.581281    1.047831    1.812954
     59          6           0       -7.892729    2.378150    0.994188
     60          6           0       -6.538154    3.015482    0.451563
     61          6           0       -8.685457    3.374428    1.840431
     62          6           0      -10.047963    3.758380    1.228895
     63          6           0       -9.974938    4.904983    0.246892
     64          6           0      -10.101597    4.406207   -1.222576
     65          6           0       -9.249437    5.439072   -2.079980
     66          6           0      -11.590962    4.452719   -1.758992
     67          1           0        0.625534    1.599831   -2.647548
     68          1           0        4.586565    5.620385    0.141443
     69          1           0        7.867654    0.370463    2.508645
     70          1           0        1.942458   -2.886238   -2.600000
     71          1           0        0.022132   -0.710582   -1.955176
     72          1           0        0.501281   -0.241749   -4.339436
     73          1           0        0.076949   -1.945361   -4.177957
     74          1           0        1.740153   -1.498660   -4.385266
     75          1           0       -0.318102   -2.628843   -1.109947
     76          1           0        0.894557   -2.825270    0.196270
     77          1           0        0.960961   -5.043295   -0.275591
     78          1           0        1.092530   -4.769863   -2.020663
     79          1           0       -0.272150    5.002512   -2.095246
     80          1           0       -0.357618    3.444880   -2.950224
     81          1           0        0.383371    4.716974   -3.766347
     82          1           0        3.223973    8.324279   -1.475368
     83          1           0        4.364249    6.884673   -1.521200
     84          1           0        3.302089    7.148279   -0.057276
     85          1           0        5.554849    4.555918    2.771665
     86          1           0        8.248912    3.245653    2.374220
     87          1           0        7.934008    5.625501    2.346239
     88          1           0        6.334014    6.403100    2.031264
     89          1           0        7.214798    5.809278    0.690811
     90          1           0        5.976669    2.397834    4.193771
     91          1           0        6.697347    3.858098    4.527013
     92          1           0        8.920356    2.133640    4.245892
     93          1           0        7.616557    1.230356    5.036058
     94          1           0        8.087285    2.677018    5.779946
     95          1           0        8.628939   -1.741730    2.632226
     96          1           0        8.136403   -3.380414    2.102265
     97          1           0        7.277815   -2.516115    3.480006
     98          1           0        3.047930   -4.228566    0.211224
     99          1           0        3.566092   -7.198058   -2.756365
    100          1           0        4.261914   -5.817522   -3.736309
    101          1           0        2.478986   -6.096664   -3.437968
    102          1           0       -2.995273   -6.693211   -0.753355
    103          1           0       -3.591184   -5.160579   -1.366345
    104          1           0       -4.148013   -6.329780    1.314529
    105          1           0       -3.819405   -2.963357   -0.359647
    106          1           0       -4.894002   -2.177452    0.789231
    107          1           0       -5.631547   -3.165079   -0.505479
    108          1           0       -5.385774   -3.390109    2.847226
    109          1           0       -5.025994   -5.072552    2.937559
    110          1           0       -7.323033   -5.557320    2.514109
    111          1           0       -7.308327   -4.652899    1.003454
    112          1           0       -7.380456   -2.746080    3.403684
    113          1           0       -8.533198   -4.070608    3.273640
    114          1           0       -8.278282   -2.581281    0.713467
    115          1           0      -10.012952   -4.370494    1.270321
    116          1           0      -10.544055   -2.944431    0.499154
    117          1           0      -10.889919   -3.176326    2.233974
    118          1           0       -8.748343   -0.951640    3.091438
    119          1           0      -10.146403   -1.049458    1.982873
    120          1           0       -9.291322    0.230195    0.739397
    121          1           0       -7.679023   -0.519116    0.374282
    122          1           0       -6.541280    0.734458    1.910187
    123          1           0       -7.847021    1.175277    2.862274
    124          1           0       -8.375777    2.011646    0.088052
    125          1           0       -5.701141    2.690365    1.068703
    126          1           0       -6.464078    4.098438    0.556174
    127          1           0       -6.394806    2.690559   -0.578887
    128          1           0       -8.198787    4.331391    2.031298
    129          1           0       -8.809170    3.181599    2.906025
    130          1           0      -10.599499    4.012133    2.133993
    131          1           0      -10.516664    2.950672    0.667281
    132          1           0       -9.120009    5.563100    0.397248
    133          1           0      -10.816668    5.518305    0.566158
    134          1           0       -9.783564    3.374627   -1.377131
    135          1           0       -9.019936    4.896590   -2.997780
    136          1           0       -8.281127    5.661375   -1.633351
    137          1           0       -9.816455    6.340399   -2.312633
    138          1           0      -11.740564    3.473539   -2.214174
    139          1           0      -11.745818    5.249230   -2.486620
    140          1           0      -12.331679    4.612859   -0.975489
 ---------------------------------------------------------------------

 SCF Done:  E(RZINDO/S) =  -474.116689752     A.U. after   19 cycles

 Excitation energies and oscillator strengths:

 Excited State   1:      Singlet-A      1.2725 eV  974.33 nm  f=0.5775  <S**2>=0.000
     175 ->178         0.16988
     176 ->177         0.66916
 This state for optimization and/or second-order correction.
 Total Energy, E(CIS/TDA) =  -474.069925938
 Copying the excited state density for this state as the 1-particle RhoCI density.

 Excited State   2:      Singlet-A      1.9457 eV  637.23 nm  f=0.0335  <S**2>=0.000
     175 ->177         0.53447
     176 ->178        -0.43315

 Excited State   3:      Singlet-A      2.9766 eV  416.53 nm  f=0.2648  <S**2>=0.000
     175 ->177         0.22516
     176 ->178         0.25897
     176 ->179         0.55567
     176 ->181        -0.10090
     176 ->183         0.11890

 Excited State   4:      Singlet-A      3.0220 eV  410.27 nm  f=0.5526  <S**2>=0.000
     168 ->177         0.17141
     168 ->178         0.10519
     168 ->179        -0.16912
     168 ->180        -0.10182
     168 ->181        -0.18534
     168 ->186        -0.12940
     170 ->177        -0.10921
     175 ->177         0.25852
     176 ->178         0.35178
     176 ->179        -0.25701
     176 ->180        -0.19610

 Excited State   5:      Singlet-A      3.0527 eV  406.14 nm  f=0.3042  <S**2>=0.000
     168 ->177         0.25232
     168 ->178         0.14465
     168 ->179        -0.24044
     168 ->180        -0.14613
     168 ->181        -0.26283
     168 ->186        -0.17800
     175 ->177        -0.18259
     176 ->178        -0.23759
     176 ->179         0.18249
     176 ->180         0.16379
     176 ->181        -0.11383

 The electronic state is 1-A.
 Alpha  occ. eigenvalues --   -1.83893  -1.82694  -1.78590  -1.72355  -1.71714
 Alpha  occ. eigenvalues --   -1.70296  -1.64442  -1.60655  -1.59884  -1.57440
 Alpha  occ. eigenvalues --   -1.54032  -1.50456  -1.49570  -1.49035  -1.47535
 Alpha  occ. eigenvalues --   -1.44265  -1.42357  -1.40065  -1.38915  -1.38645
 Alpha  occ. eigenvalues --   -1.35725  -1.34830  -1.33345  -1.32620  -1.28844
 Alpha  occ. eigenvalues --   -1.26951  -1.26759  -1.23707  -1.19915  -1.18323
 Alpha  occ. eigenvalues --   -1.17567  -1.15690  -1.14581  -1.13825  -1.12846
 Alpha  occ. eigenvalues --   -1.12721  -1.10605  -1.09728  -1.04744  -1.03956
 Alpha  occ. eigenvalues --   -1.01930  -1.00585  -0.99855  -0.98220  -0.96460
 Alpha  occ. eigenvalues --   -0.96042  -0.95441  -0.94283  -0.93111  -0.92184
 Alpha  occ. eigenvalues --   -0.90868  -0.90765  -0.89211  -0.88552  -0.87480
 Alpha  occ. eigenvalues --   -0.86608  -0.84369  -0.83051  -0.82170  -0.80015
 Alpha  occ. eigenvalues --   -0.79213  -0.78616  -0.77026  -0.76670  -0.76168
 Alpha  occ. eigenvalues --   -0.75881  -0.75644  -0.74972  -0.74053  -0.73822
 Alpha  occ. eigenvalues --   -0.72875  -0.72156  -0.71889  -0.71644  -0.70538
 Alpha  occ. eigenvalues --   -0.70268  -0.69666  -0.68809  -0.68151  -0.68028
 Alpha  occ. eigenvalues --   -0.67438  -0.66619  -0.66066  -0.65970  -0.65637
 Alpha  occ. eigenvalues --   -0.65529  -0.64607  -0.64121  -0.63954  -0.63556
 Alpha  occ. eigenvalues --   -0.63543  -0.63318  -0.63263  -0.62721  -0.62362
 Alpha  occ. eigenvalues --   -0.62049  -0.61385  -0.60809  -0.60139  -0.59682
 Alpha  occ. eigenvalues --   -0.59651  -0.59391  -0.59262  -0.58856  -0.58416
 Alpha  occ. eigenvalues --   -0.58372  -0.57740  -0.57269  -0.57193  -0.56930
 Alpha  occ. eigenvalues --   -0.56297  -0.56148  -0.55790  -0.55239  -0.54654
 Alpha  occ. eigenvalues --   -0.54273  -0.53978  -0.53566  -0.53300  -0.52880
 Alpha  occ. eigenvalues --   -0.52340  -0.52255  -0.51879  -0.51647  -0.51369
 Alpha  occ. eigenvalues --   -0.51013  -0.50683  -0.50632  -0.50522  -0.50427
 Alpha  occ. eigenvalues --   -0.50344  -0.50045  -0.49930  -0.49638  -0.49178
 Alpha  occ. eigenvalues --   -0.49034  -0.48686  -0.48147  -0.47999  -0.47962
 Alpha  occ. eigenvalues --   -0.47657  -0.47612  -0.47180  -0.47156  -0.47026
 Alpha  occ. eigenvalues --   -0.46741  -0.46676  -0.46436  -0.45908  -0.45568
 Alpha  occ. eigenvalues --   -0.45361  -0.44762  -0.44118  -0.44035  -0.43698
 Alpha  occ. eigenvalues --   -0.42915  -0.42795  -0.42665  -0.42433  -0.42261
 Alpha  occ. eigenvalues --   -0.42013  -0.41060  -0.40787  -0.39404  -0.39141
 Alpha  occ. eigenvalues --   -0.38023  -0.37586  -0.35959  -0.35010  -0.34456
 Alpha  occ. eigenvalues --   -0.34350  -0.33286  -0.32975  -0.31506  -0.27115
 Alpha  occ. eigenvalues --   -0.21989
 Alpha virt. eigenvalues --   -0.08621  -0.02243  -0.00577   0.00990   0.01253
 Alpha virt. eigenvalues --    0.01389   0.02572   0.02832   0.04301   0.04799
 Alpha virt. eigenvalues --    0.06273   0.06925   0.07628   0.07833   0.08163

 Mulliken charges:
               1
     1  Mg   0.433561
     2  C   -0.020967
     3  C   -0.061693
     4  C   -0.091032
     5  C   -0.063407
     6  N   -0.270557
     7  C    0.089563
     8  C   -0.006297
     9  C    0.004866
    10  C    0.166538
    11  C   -0.047008
    12  C   -0.024336
    13  C    0.005304
    14  C    0.465542
    15  O   -0.525372
    16  O   -0.265355
    17  N   -0.345988
    18  C    0.136032
    19  C    0.046107
    20  C   -0.036835
    21  C    0.146908
    22  C   -0.040004
    23  C    0.316047
    24  O   -0.497297
    25  C   -0.042588
    26  N   -0.270913
    27  C    0.150248
    28  C    0.010294
    29  C    0.008107
    30  C    0.080905
    31  C   -0.051374
    32  C   -0.025090
    33  C   -0.058361
    34  N   -0.322335
    35  C    0.075392
    36  C    0.026779
    37  C   -0.070273
    38  C    0.109482
    39  C   -0.039888
    40  C    0.340730
    41  O   -0.531744
    42  C    0.049976
    43  C    0.505821
    44  O   -0.549479
    45  O   -0.259867
    46  C    0.068035
    47  C    0.104644
    48  C   -0.097638
    49  C    0.003632
    50  C   -0.044923
    51  C   -0.025684
    52  C   -0.027101
    53  C   -0.047271
    54  C   -0.027400
    55  C   -0.065186
    56  C   -0.029289
    57  C   -0.045578
    58  C   -0.042634
    59  C   -0.008118
    60  C   -0.066366
    61  C   -0.034317
    62  C   -0.038262
    63  C   -0.032075
    64  C   -0.017759
    65  C   -0.062639
    66  C   -0.062232
    67  H    0.014889
    68  H    0.020779
    69  H    0.032796
    70  H    0.040964
    71  H    0.033579
    72  H    0.010385
    73  H    0.026631
    74  H    0.026477
    75  H    0.023500
    76  H    0.031327
    77  H    0.038516
    78  H    0.040168
    79  H    0.041292
    80  H    0.011820
    81  H    0.045866
    82  H    0.044324
    83  H    0.043558
    84  H    0.043138
    85  H    0.031444
    86  H    0.040527
    87  H    0.024622
    88  H    0.012831
    89  H    0.023771
    90  H    0.019420
    91  H    0.007398
    92  H    0.024955
    93  H    0.014031
    94  H    0.018119
    95  H    0.019372
    96  H    0.038709
    97  H    0.035880
    98  H    0.051074
    99  H    0.033739
   100  H    0.063909
   101  H    0.041073
   102  H    0.043818
   103  H    0.050836
   104  H    0.033117
   105  H    0.025806
   106  H    0.022908
   107  H    0.038802
   108  H    0.025307
   109  H    0.016061
   110  H    0.026134
   111  H    0.028835
   112  H    0.030900
   113  H    0.011252
   114  H    0.018285
   115  H    0.008687
   116  H    0.011280
   117  H    0.025196
   118  H    0.017222
   119  H    0.026654
   120  H    0.018792
   121  H    0.030244
   122  H    0.017709
   123  H    0.016820
   124  H    0.030587
   125  H    0.014220
   126  H    0.020648
   127  H    0.019784
   128  H    0.012829
   129  H    0.017485
   130  H    0.012154
   131  H    0.022987
   132  H    0.022189
   133  H    0.012735
   134  H    0.033018
   135  H    0.007545
   136  H    0.018601
   137  H    0.028827
   138  H    0.016057
   139  H    0.022773
   140  H    0.020026
 Sum of Mulliken charges =  -0.00000

 Dipole moment (field-independent basis, Debye):
    X=             -4.3217    Y=              5.1423    Z=              3.3219  Tot=              7.4937
 N-N= 4.416611217823D+03 E-N= 0.000000000000D+00  KE=-9.506960291535D+03
 Leave Link  601 at Wed May  4 17:55:50 2022, MaxMem=  6710886400 cpu:               0.8 elap:               0.1
 (Enter /sw/apps/gaussian-16.0/g16/l9999.exe)
 1\1\GINC-BP1-COMPUTE100\SP\RZINDO CIS\STO-3G\C55H74Mg1N4O6\OF15641\04-
 May-2022\0\\#p ZINDO=(nstates=5)\\step_251_chromophore_23 ZINDO\\0,1\M
 g,0,-9.427,40.512,41.96\C,0,-8.276,37.271,41.013\C,0,-7.189,41.707,39.
 821\C,0,-11.063,43.469,41.994\C,0,-12.243,38.824,43.346\N,0,-7.886,39.
 632,40.718\C,0,-7.508,38.285,40.529\C,0,-6.306,38.117,39.547\C,0,-5.96
 1,39.601,39.236\C,0,-7.016,40.39,40.04\C,0,-4.487,39.821,39.615\C,0,-6
 .546,37.266,38.226\C,0,-5.773,35.958,38.103\C,0,-4.886,35.772,36.855\O

 Normal termination of Gaussian 16 at Wed May  4 17:55:50 2022.
