 Gaussian 16, Revision A.03,
 Gaussian 16:  ES64L-G16RevA.03 25-Dec-2016

 ------------------------------
 #p blyp/Def2SVP td=(nstates=5)
 ------------------------------

 -------------------------------------------------
 step_551_chromophore_6 TDDFT with blyp functional
 -------------------------------------------------
 Symbolic Z-matrix:
 Charge =  0 Multiplicity = 1

                         Standard orientation:
 ---------------------------------------------------------------------
 Center     Atomic      Atomic             Coordinates (Angstroms)
 Number     Number       Type             X           Y           Z
 ---------------------------------------------------------------------
      1         12           0       -5.357845    1.093168   -0.185808
      2          6           0       -4.536417   -2.332735    0.096656
      3          6           0       -2.112671    1.820918   -0.523085
      4          6           0       -6.213786    4.245907    0.101599
      5          6           0       -8.820744    0.139160    0.088831
      6          7           0       -3.590517   -0.124992   -0.116272
      7          6           0       -3.476853   -1.461803   -0.028261
      8          6           0       -2.013071   -1.913432   -0.104815
      9          6           0       -1.285658   -0.579275   -0.206929
     10          6           0       -2.385103    0.459005   -0.240326
     11          6           0       -0.285499   -0.336239    0.887097
     12          6           0       -1.611908   -2.883819   -1.350442
     13          6           0       -0.863142   -4.175369   -0.914601
     14          6           0        0.293928   -3.987530    0.090711
     15          8           0        0.405901   -4.443640    1.208893
     16          8           0        1.323280   -3.270568   -0.534058
     17          7           0       -4.317962    2.765387   -0.239318
     18          6           0       -3.004391    2.867214   -0.431077
     19          6           0       -2.634439    4.288233   -0.407463
     20          6           0       -3.803823    5.051962   -0.318213
     21          6           0       -4.828514    4.044132   -0.179259
     22          6           0       -1.181712    4.806787   -0.541159
     23          6           0       -4.132163    6.539814   -0.265278
     24          8           0       -5.239952    7.033403   -0.130398
     25          6           0       -3.013230    7.549647   -0.412506
     26          7           0       -7.330281    2.113331   -0.070006
     27          6           0       -7.358216    3.404534    0.115236
     28          6           0       -8.816617    3.846815    0.555875
     29          6           0       -9.634262    2.526010    0.140105
     30          6           0       -8.563234    1.507229    0.020005
     31          6           0       -8.895096    4.243124    2.023163
     32          6           0      -10.315048    2.831187   -1.225523
     33          6           0      -11.230170    1.744570   -1.756133
     34          7           0       -6.533408   -0.698697    0.012914
     35          6           0       -7.873936   -0.921894    0.108628
     36          6           0       -8.103254   -2.330640    0.294243
     37          6           0       -6.819371   -2.934665    0.246892
     38          6           0       -5.929805   -1.926943    0.043069
     39          6           0       -9.447251   -3.044983    0.479748
     40          6           0       -6.094318   -4.188058    0.325786
     41          8           0       -6.526157   -5.336945    0.539422
     42          6           0       -4.605948   -3.841410    0.130155
     43          6           0       -3.738885   -4.504962    1.213701
     44          8           0       -3.443560   -3.966969    2.255659
     45          8           0       -3.330019   -5.714847    0.828498
     46          6           0       -2.614799   -6.431791    1.854264
     47          6           0        2.523331   -3.007780    0.299602
     48          6           0        3.750522   -2.729878   -0.538268
     49          6           0        4.873918   -3.475986   -0.682949
     50          6           0        5.143064   -4.851874   -0.052916
     51          6           0        5.879744   -3.030856   -1.734711
     52          6           0        7.354825   -2.949515   -1.292561
     53          6           0        8.192947   -1.890124   -2.096056
     54          6           0        8.581256   -0.716140   -1.273172
     55          6           0        7.800543    0.502267   -1.830398
     56          6           0       10.149332   -0.300674   -1.265451
     57          6           0       10.800557   -0.396466    0.181969
     58          6           0       12.126137   -1.056347    0.129373
     59          6           0       13.336256   -0.144646   -0.174508
     60          6           0       14.499226   -0.957950   -0.838313
     61          6           0       13.812328    0.553307    1.148634
     62          6           0       14.466034    1.977806    0.834015
     63          6           0       14.100178    3.104884    1.770762
     64          6           0       13.653312    4.453886    1.108025
     65          6           0       12.114394    4.620380    1.014245
     66          6           0       14.211107    5.784108    1.574936
     67          1           0       -1.086706    2.146033   -0.708571
     68          1           0       -6.628667    5.244227    0.254639
     69          1           0       -9.802815   -0.256157    0.356011
     70          1           0       -1.615478   -2.473357    0.742418
     71          1           0       -0.706444   -0.427621   -1.116775
     72          1           0       -0.945134    0.149410    1.606348
     73          1           0        0.515641    0.330896    0.569803
     74          1           0        0.087119   -1.187776    1.456712
     75          1           0       -0.941058   -2.414242   -2.070778
     76          1           0       -2.522949   -3.190356   -1.863919
     77          1           0       -0.464272   -4.742947   -1.754482
     78          1           0       -1.566278   -4.791744   -0.353792
     79          1           0       -0.418557    4.035883   -0.642514
     80          1           0       -0.921317    5.230169    0.428581
     81          1           0       -1.079445    5.443030   -1.420350
     82          1           0       -2.143271    7.022330   -0.020686
     83          1           0       -3.210780    8.483190    0.113499
     84          1           0       -2.841524    7.918546   -1.424366
     85          1           0       -9.031604    4.762224    0.004561
     86          1           0      -10.445049    2.216959    0.800346
     87          1           0       -9.125507    5.306934    2.082910
     88          1           0       -7.915696    4.097961    2.478408
     89          1           0       -9.634141    3.589741    2.487857
     90          1           0       -9.502315    3.024032   -1.926177
     91          1           0      -10.923079    3.735180   -1.195258
     92          1           0      -11.547618    1.029718   -0.997153
     93          1           0      -10.756666    1.245374   -2.600890
     94          1           0      -12.154704    2.230254   -2.071892
     95          1           0       -9.625617   -3.501272   -0.494505
     96          1           0      -10.250790   -2.366417    0.765439
     97          1           0       -9.398433   -3.802032    1.261582
     98          1           0       -4.353093   -4.261815   -0.842771
     99          1           0       -2.021423   -7.201190    1.359709
    100          1           0       -3.237358   -6.679987    2.714756
    101          1           0       -1.887408   -5.743974    2.285494
    102          1           0        2.714883   -3.824278    0.996025
    103          1           0        2.451982   -2.055713    0.825314
    104          1           0        3.773263   -1.819913   -1.137920
    105          1           0        5.266892   -5.656895   -0.777166
    106          1           0        4.507117   -5.122724    0.789671
    107          1           0        6.150730   -4.662240    0.316719
    108          1           0        5.644113   -2.065254   -2.182568
    109          1           0        5.867633   -3.789374   -2.518189
    110          1           0        7.753064   -3.912505   -1.611736
    111          1           0        7.464441   -2.853024   -0.212796
    112          1           0        7.583232   -1.629934   -2.961717
    113          1           0        9.037454   -2.413744   -2.543528
    114          1           0        8.369758   -0.892288   -0.218514
    115          1           0        6.975546    0.227146   -2.487843
    116          1           0        8.401386    1.162119   -2.456742
    117          1           0        7.285524    1.051953   -1.043445
    118          1           0       10.382274    0.713362   -1.591196
    119          1           0       10.759104   -0.815696   -2.007659
    120          1           0       10.174216   -0.939173    0.890228
    121          1           0       10.920415    0.572479    0.667618
    122          1           0       11.952326   -1.816169   -0.632634
    123          1           0       12.240216   -1.578361    1.080321
    124          1           0       13.033822    0.616125   -0.893945
    125          1           0       14.733777   -0.576145   -1.832343
    126          1           0       14.176875   -1.993471   -0.946722
    127          1           0       15.404715   -0.961298   -0.232272
    128          1           0       14.531768   -0.027061    1.726776
    129          1           0       12.933105    0.665734    1.783365
    130          1           0       14.351154    2.215572   -0.223781
    131          1           0       15.546402    1.887167    0.942700
    132          1           0       14.934836    3.281015    2.450332
    133          1           0       13.295300    2.770554    2.425337
    134          1           0       13.940857    4.381617    0.058808
    135          1           0       11.750019    3.723355    0.514380
    136          1           0       11.778601    5.459327    0.404538
    137          1           0       11.793784    4.643438    2.055280
    138          1           0       14.586310    5.612663    2.583933
    139          1           0       13.423464    6.536503    1.573083
    140          1           0       14.877812    6.122628    0.780730
 ---------------------------------------------------------------------

 SCF Done:  E(RB-LYP) =  -3007.39028158     A.U. after   21 cycles

 Excitation energies and oscillator strengths:

 Excited State   1:      Singlet-A      1.8295 eV  677.70 nm  f=0.2905  <S**2>=0.000
     245 -> 248       -0.15715
     245 -> 249       -0.12138
     246 -> 247        0.68186
     246 <- 247       -0.14094
 This state for optimization and/or second-order correction.
 Total Energy, E(TD-HF/TD-DFT) =  -3007.32304889
 Copying the excited state density for this state as the 1-particle RhoCI density.

 Excited State   2:      Singlet-A      1.8791 eV  659.82 nm  f=0.0197  <S**2>=0.000
     244 -> 247        0.64869
     245 -> 247        0.25430

 Excited State   3:      Singlet-A      1.9984 eV  620.43 nm  f=0.0483  <S**2>=0.000
     243 -> 247       -0.38766
     244 -> 247       -0.24388
     245 -> 247        0.50432
     246 -> 248        0.13795

 Excited State   4:      Singlet-A      2.0835 eV  595.07 nm  f=0.0295  <S**2>=0.000
     243 -> 247        0.58692
     244 -> 247       -0.10598
     245 -> 247        0.33710
     246 -> 248        0.12099

 Excited State   5:      Singlet-A      2.4198 eV  512.38 nm  f=0.0110  <S**2>=0.000
     242 -> 247        0.69201

 The electronic state is 1-A.
 Alpha  occ. eigenvalues --  -46.26757 -18.82440 -18.81799 -18.77857 -18.76328
 Alpha  occ. eigenvalues --  -18.76069 -18.75094 -14.03493 -14.02569 -14.01359
 Alpha  occ. eigenvalues --  -14.00115 -10.04460 -10.03603 -10.00558  -9.99253
 Alpha  occ. eigenvalues --   -9.97724  -9.96623  -9.96540  -9.96371  -9.96244
 Alpha  occ. eigenvalues --   -9.96117  -9.95955  -9.95703  -9.94780  -9.94641
 Alpha  occ. eigenvalues --   -9.93864  -9.93819  -9.93758  -9.93746  -9.93698
 Alpha  occ. eigenvalues --   -9.93677  -9.93631  -9.93542  -9.93444  -9.93340
 Alpha  occ. eigenvalues --   -9.93218  -9.93091  -9.92862  -9.92779  -9.92764
 Alpha  occ. eigenvalues --   -9.92646  -9.92627  -9.92327  -9.92186  -9.92058
 Alpha  occ. eigenvalues --   -9.92058  -9.92027  -9.91914  -9.91838  -9.91717
 Alpha  occ. eigenvalues --   -9.91710  -9.91665  -9.91618  -9.91594  -9.91439
 Alpha  occ. eigenvalues --   -9.91432  -9.91237  -9.91231  -9.91205  -9.90985
 Alpha  occ. eigenvalues --   -9.90948  -9.90781  -9.90731  -9.90565  -9.90490
 Alpha  occ. eigenvalues --   -9.90131  -2.91466  -1.71907  -1.71326  -1.71194
 Alpha  occ. eigenvalues --   -0.99336  -0.97320  -0.92239  -0.90421  -0.89971
 Alpha  occ. eigenvalues --   -0.89617  -0.87546  -0.86767  -0.86316  -0.85228
 Alpha  occ. eigenvalues --   -0.75479  -0.73914  -0.73001  -0.72824  -0.72335
 Alpha  occ. eigenvalues --   -0.72011  -0.71686  -0.71212  -0.71036  -0.70574
 Alpha  occ. eigenvalues --   -0.69552  -0.68928  -0.68149  -0.67512  -0.67248
 Alpha  occ. eigenvalues --   -0.66733  -0.65834  -0.65191  -0.65091  -0.64729
 Alpha  occ. eigenvalues --   -0.64285  -0.63067  -0.62094  -0.61866  -0.60840
 Alpha  occ. eigenvalues --   -0.60620  -0.59721  -0.59569  -0.59464  -0.58922
 Alpha  occ. eigenvalues --   -0.58248  -0.57453  -0.56468  -0.55872  -0.54107
 Alpha  occ. eigenvalues --   -0.53833  -0.53551  -0.52777  -0.52300  -0.51691
 Alpha  occ. eigenvalues --   -0.51566  -0.51553  -0.50737  -0.50698  -0.50333
 Alpha  occ. eigenvalues --   -0.49328  -0.49248  -0.48533  -0.48319  -0.46901
 Alpha  occ. eigenvalues --   -0.46585  -0.46016  -0.45876  -0.44926  -0.44541
 Alpha  occ. eigenvalues --   -0.44340  -0.43450  -0.43291  -0.43186  -0.42335
 Alpha  occ. eigenvalues --   -0.42132  -0.41710  -0.41592  -0.41297  -0.40969
 Alpha  occ. eigenvalues --   -0.40896  -0.40633  -0.40556  -0.40252  -0.40197
 Alpha  occ. eigenvalues --   -0.40157  -0.39954  -0.39820  -0.39383  -0.38961
 Alpha  occ. eigenvalues --   -0.38785  -0.38681  -0.38516  -0.38319  -0.38238
 Alpha  occ. eigenvalues --   -0.38016  -0.37905  -0.37819  -0.37574  -0.37425
 Alpha  occ. eigenvalues --   -0.37204  -0.36928  -0.36834  -0.36530  -0.36457
 Alpha  occ. eigenvalues --   -0.36409  -0.36276  -0.36034  -0.35940  -0.35849
 Alpha  occ. eigenvalues --   -0.35526  -0.35262  -0.35045  -0.34649  -0.34486
 Alpha  occ. eigenvalues --   -0.34443  -0.34333  -0.34221  -0.34004  -0.33842
 Alpha  occ. eigenvalues --   -0.33814  -0.33536  -0.33368  -0.33155  -0.32991
 Alpha  occ. eigenvalues --   -0.32911  -0.32818  -0.32513  -0.32385  -0.32224
 Alpha  occ. eigenvalues --   -0.32055  -0.31970  -0.31879  -0.31770  -0.31570
 Alpha  occ. eigenvalues --   -0.31349  -0.31219  -0.30930  -0.30549  -0.30448
 Alpha  occ. eigenvalues --   -0.30428  -0.30010  -0.29987  -0.29862  -0.29713
 Alpha  occ. eigenvalues --   -0.29596  -0.29540  -0.29339  -0.29223  -0.29006
 Alpha  occ. eigenvalues --   -0.28885  -0.28509  -0.28304  -0.28184  -0.28048
 Alpha  occ. eigenvalues --   -0.27501  -0.27168  -0.26787  -0.26518  -0.26488
 Alpha  occ. eigenvalues --   -0.26185  -0.26145  -0.25606  -0.25247  -0.25229
 Alpha  occ. eigenvalues --   -0.25135  -0.24932  -0.24737  -0.24341  -0.24039
 Alpha  occ. eigenvalues --   -0.22941  -0.22682  -0.22358  -0.21769  -0.21333
 Alpha  occ. eigenvalues --   -0.20786  -0.19821  -0.18928  -0.18348  -0.17099
 Alpha  occ. eigenvalues --   -0.15898
 Alpha virt. eigenvalues --   -0.11478  -0.06854  -0.06082  -0.04762  -0.03401
 Alpha virt. eigenvalues --   -0.02589  -0.01869  -0.01494  -0.00563  -0.00235
 Alpha virt. eigenvalues --    0.01152   0.01639   0.01999   0.02410   0.02686

 Mulliken charges:
               1
     1  Mg   0.704562
     2  C    0.041772
     3  C   -0.097125
     4  C   -0.011704
     5  C   -0.067536
     6  N   -0.191883
     7  C   -0.046003
     8  C   -0.015296
     9  C    0.017918
    10  C    0.045785
    11  C    0.104930
    12  C    0.109241
    13  C    0.108334
    14  C    0.072084
    15  O   -0.173644
    16  O   -0.300037
    17  N   -0.312913
    18  C    0.161491
    19  C   -0.170523
    20  C    0.073075
    21  C    0.117203
    22  C    0.160342
    23  C   -0.062082
    24  O   -0.150236
    25  C    0.123166
    26  N   -0.164652
    27  C   -0.079046
    28  C   -0.019536
    29  C    0.029768
    30  C    0.084829
    31  C    0.161634
    32  C    0.058766
    33  C    0.102766
    34  N   -0.239004
    35  C    0.058779
    36  C   -0.192767
    37  C    0.109252
    38  C    0.032222
    39  C    0.171577
    40  C   -0.073443
    41  O   -0.154589
    42  C    0.084528
    43  C    0.082381
    44  O   -0.166975
    45  O   -0.234676
    46  C    0.228469
    47  C    0.346509
    48  C   -0.129995
    49  C   -0.128482
    50  C    0.154396
    51  C    0.109469
    52  C    0.022535
    53  C    0.137591
    54  C   -0.031418
    55  C    0.095260
    56  C    0.087979
    57  C    0.055697
    58  C    0.092618
    59  C   -0.070714
    60  C    0.118015
    61  C    0.086517
    62  C    0.069600
    63  C    0.130002
    64  C   -0.128382
    65  C    0.079510
    66  C    0.144132
    67  H   -0.076189
    68  H   -0.048948
    69  H   -0.062605
    70  H    0.011500
    71  H   -0.026524
    72  H   -0.020094
    73  H   -0.008061
    74  H    0.008741
    75  H   -0.007569
    76  H   -0.015050
    77  H    0.005286
    78  H   -0.006404
    79  H   -0.029610
    80  H    0.022390
    81  H    0.022228
    82  H   -0.026104
    83  H   -0.006977
    84  H    0.014538
    85  H   -0.024582
    86  H   -0.038463
    87  H   -0.002459
    88  H   -0.008622
    89  H   -0.007357
    90  H   -0.027534
    91  H   -0.022768
    92  H   -0.018421
    93  H   -0.001240
    94  H   -0.019366
    95  H    0.013160
    96  H   -0.019091
    97  H    0.011762
    98  H    0.005007
    99  H    0.013806
   100  H    0.018325
   101  H    0.010696
   102  H   -0.007428
   103  H   -0.004402
   104  H   -0.047114
   105  H    0.003686
   106  H   -0.001854
   107  H   -0.018927
   108  H   -0.025463
   109  H   -0.016813
   110  H   -0.035548
   111  H   -0.006365
   112  H   -0.039815
   113  H   -0.044154
   114  H   -0.021657
   115  H   -0.032469
   116  H   -0.011125
   117  H   -0.020123
   118  H   -0.033650
   119  H   -0.036776
   120  H   -0.037283
   121  H   -0.033316
   122  H   -0.040630
   123  H   -0.043805
   124  H   -0.036757
   125  H   -0.016087
   126  H   -0.022814
   127  H   -0.017863
   128  H   -0.025390
   129  H   -0.029352
   130  H   -0.025153
   131  H   -0.036393
   132  H   -0.041439
   133  H   -0.041591
   134  H   -0.045598
   135  H   -0.022833
   136  H   -0.008914
   137  H   -0.011175
   138  H   -0.010692
   139  H   -0.031957
   140  H   -0.016406
 Sum of Mulliken charges =  -0.00000

 Dipole moment (field-independent basis, Debye):
    X=              4.5834    Y=              2.4934    Z=             -3.0019  Tot=              6.0197
 Quadrupole moment (field-independent basis, Debye-Ang):
   XX=           -385.1578   YY=           -428.0666   ZZ=           -406.7578
   XY=            -23.6745   XZ=              1.6124   YZ=              5.8328

 Normal termination of Gaussian 16 at Sat Apr 30 04:46:24 2022.
