 Gaussian 16, Revision A.03,
 Gaussian 16:  ES64L-G16RevA.03 25-Dec-2016

 -----------------------------------
 #p cam-b3lyp/Def2SVP td=(nstates=5)
 -----------------------------------

 ------------------------------------------------------
 step_551_chromophore_6 TDDFT with cam-b3lyp functional
 ------------------------------------------------------
 Symbolic Z-matrix:
 Charge =  0 Multiplicity = 1

                         Standard orientation:
 ---------------------------------------------------------------------
 Center     Atomic      Atomic             Coordinates (Angstroms)
 Number     Number       Type             X           Y           Z
 ---------------------------------------------------------------------
      1         12           0       -5.357845    1.093168   -0.185808
      2          6           0       -4.536417   -2.332735    0.096656
      3          6           0       -2.112671    1.820918   -0.523085
      4          6           0       -6.213786    4.245907    0.101599
      5          6           0       -8.820744    0.139160    0.088831
      6          7           0       -3.590517   -0.124992   -0.116272
      7          6           0       -3.476853   -1.461803   -0.028261
      8          6           0       -2.013071   -1.913432   -0.104815
      9          6           0       -1.285658   -0.579275   -0.206929
     10          6           0       -2.385103    0.459005   -0.240326
     11          6           0       -0.285499   -0.336239    0.887097
     12          6           0       -1.611908   -2.883819   -1.350442
     13          6           0       -0.863142   -4.175369   -0.914601
     14          6           0        0.293928   -3.987530    0.090711
     15          8           0        0.405901   -4.443640    1.208893
     16          8           0        1.323280   -3.270568   -0.534058
     17          7           0       -4.317962    2.765387   -0.239318
     18          6           0       -3.004391    2.867214   -0.431077
     19          6           0       -2.634439    4.288233   -0.407463
     20          6           0       -3.803823    5.051962   -0.318213
     21          6           0       -4.828514    4.044132   -0.179259
     22          6           0       -1.181712    4.806787   -0.541159
     23          6           0       -4.132163    6.539814   -0.265278
     24          8           0       -5.239952    7.033403   -0.130398
     25          6           0       -3.013230    7.549647   -0.412506
     26          7           0       -7.330281    2.113331   -0.070006
     27          6           0       -7.358216    3.404534    0.115236
     28          6           0       -8.816617    3.846815    0.555875
     29          6           0       -9.634262    2.526010    0.140105
     30          6           0       -8.563234    1.507229    0.020005
     31          6           0       -8.895096    4.243124    2.023163
     32          6           0      -10.315048    2.831187   -1.225523
     33          6           0      -11.230170    1.744570   -1.756133
     34          7           0       -6.533408   -0.698697    0.012914
     35          6           0       -7.873936   -0.921894    0.108628
     36          6           0       -8.103254   -2.330640    0.294243
     37          6           0       -6.819371   -2.934665    0.246892
     38          6           0       -5.929805   -1.926943    0.043069
     39          6           0       -9.447251   -3.044983    0.479748
     40          6           0       -6.094318   -4.188058    0.325786
     41          8           0       -6.526157   -5.336945    0.539422
     42          6           0       -4.605948   -3.841410    0.130155
     43          6           0       -3.738885   -4.504962    1.213701
     44          8           0       -3.443560   -3.966969    2.255659
     45          8           0       -3.330019   -5.714847    0.828498
     46          6           0       -2.614799   -6.431791    1.854264
     47          6           0        2.523331   -3.007780    0.299602
     48          6           0        3.750522   -2.729878   -0.538268
     49          6           0        4.873918   -3.475986   -0.682949
     50          6           0        5.143064   -4.851874   -0.052916
     51          6           0        5.879744   -3.030856   -1.734711
     52          6           0        7.354825   -2.949515   -1.292561
     53          6           0        8.192947   -1.890124   -2.096056
     54          6           0        8.581256   -0.716140   -1.273172
     55          6           0        7.800543    0.502267   -1.830398
     56          6           0       10.149332   -0.300674   -1.265451
     57          6           0       10.800557   -0.396466    0.181969
     58          6           0       12.126137   -1.056347    0.129373
     59          6           0       13.336256   -0.144646   -0.174508
     60          6           0       14.499226   -0.957950   -0.838313
     61          6           0       13.812328    0.553307    1.148634
     62          6           0       14.466034    1.977806    0.834015
     63          6           0       14.100178    3.104884    1.770762
     64          6           0       13.653312    4.453886    1.108025
     65          6           0       12.114394    4.620380    1.014245
     66          6           0       14.211107    5.784108    1.574936
     67          1           0       -1.086706    2.146033   -0.708571
     68          1           0       -6.628667    5.244227    0.254639
     69          1           0       -9.802815   -0.256157    0.356011
     70          1           0       -1.615478   -2.473357    0.742418
     71          1           0       -0.706444   -0.427621   -1.116775
     72          1           0       -0.945134    0.149410    1.606348
     73          1           0        0.515641    0.330896    0.569803
     74          1           0        0.087119   -1.187776    1.456712
     75          1           0       -0.941058   -2.414242   -2.070778
     76          1           0       -2.522949   -3.190356   -1.863919
     77          1           0       -0.464272   -4.742947   -1.754482
     78          1           0       -1.566278   -4.791744   -0.353792
     79          1           0       -0.418557    4.035883   -0.642514
     80          1           0       -0.921317    5.230169    0.428581
     81          1           0       -1.079445    5.443030   -1.420350
     82          1           0       -2.143271    7.022330   -0.020686
     83          1           0       -3.210780    8.483190    0.113499
     84          1           0       -2.841524    7.918546   -1.424366
     85          1           0       -9.031604    4.762224    0.004561
     86          1           0      -10.445049    2.216959    0.800346
     87          1           0       -9.125507    5.306934    2.082910
     88          1           0       -7.915696    4.097961    2.478408
     89          1           0       -9.634141    3.589741    2.487857
     90          1           0       -9.502315    3.024032   -1.926177
     91          1           0      -10.923079    3.735180   -1.195258
     92          1           0      -11.547618    1.029718   -0.997153
     93          1           0      -10.756666    1.245374   -2.600890
     94          1           0      -12.154704    2.230254   -2.071892
     95          1           0       -9.625617   -3.501272   -0.494505
     96          1           0      -10.250790   -2.366417    0.765439
     97          1           0       -9.398433   -3.802032    1.261582
     98          1           0       -4.353093   -4.261815   -0.842771
     99          1           0       -2.021423   -7.201190    1.359709
    100          1           0       -3.237358   -6.679987    2.714756
    101          1           0       -1.887408   -5.743974    2.285494
    102          1           0        2.714883   -3.824278    0.996025
    103          1           0        2.451982   -2.055713    0.825314
    104          1           0        3.773263   -1.819913   -1.137920
    105          1           0        5.266892   -5.656895   -0.777166
    106          1           0        4.507117   -5.122724    0.789671
    107          1           0        6.150730   -4.662240    0.316719
    108          1           0        5.644113   -2.065254   -2.182568
    109          1           0        5.867633   -3.789374   -2.518189
    110          1           0        7.753064   -3.912505   -1.611736
    111          1           0        7.464441   -2.853024   -0.212796
    112          1           0        7.583232   -1.629934   -2.961717
    113          1           0        9.037454   -2.413744   -2.543528
    114          1           0        8.369758   -0.892288   -0.218514
    115          1           0        6.975546    0.227146   -2.487843
    116          1           0        8.401386    1.162119   -2.456742
    117          1           0        7.285524    1.051953   -1.043445
    118          1           0       10.382274    0.713362   -1.591196
    119          1           0       10.759104   -0.815696   -2.007659
    120          1           0       10.174216   -0.939173    0.890228
    121          1           0       10.920415    0.572479    0.667618
    122          1           0       11.952326   -1.816169   -0.632634
    123          1           0       12.240216   -1.578361    1.080321
    124          1           0       13.033822    0.616125   -0.893945
    125          1           0       14.733777   -0.576145   -1.832343
    126          1           0       14.176875   -1.993471   -0.946722
    127          1           0       15.404715   -0.961298   -0.232272
    128          1           0       14.531768   -0.027061    1.726776
    129          1           0       12.933105    0.665734    1.783365
    130          1           0       14.351154    2.215572   -0.223781
    131          1           0       15.546402    1.887167    0.942700
    132          1           0       14.934836    3.281015    2.450332
    133          1           0       13.295300    2.770554    2.425337
    134          1           0       13.940857    4.381617    0.058808
    135          1           0       11.750019    3.723355    0.514380
    136          1           0       11.778601    5.459327    0.404538
    137          1           0       11.793784    4.643438    2.055280
    138          1           0       14.586310    5.612663    2.583933
    139          1           0       13.423464    6.536503    1.573083
    140          1           0       14.877812    6.122628    0.780730
 ---------------------------------------------------------------------

 SCF Done:  E(RCAM-B3LYP) =  -3007.19575867     A.U. after   18 cycles

 Excitation energies and oscillator strengths:

 Excited State   1:      Singlet-A      1.8125 eV  684.06 nm  f=0.3752  <S**2>=0.000
     245 -> 248        0.17291
     246 -> 247        0.68544
 This state for optimization and/or second-order correction.
 Total Energy, E(TD-HF/TD-DFT) =  -3007.12915168
 Copying the excited state density for this state as the 1-particle RhoCI density.

 Excited State   2:      Singlet-A      2.2626 eV  547.97 nm  f=0.1360  <S**2>=0.000
     245 -> 247        0.65028
     246 -> 248       -0.25790

 Excited State   3:      Singlet-A      3.3600 eV  369.00 nm  f=0.0066  <S**2>=0.000
     241 -> 247       -0.10703
     244 -> 247        0.68210

 Excited State   4:      Singlet-A      3.5305 eV  351.18 nm  f=0.0582  <S**2>=0.000
     240 -> 247        0.48429
     240 -> 248       -0.18174
     240 -> 249        0.32179
     240 -> 250        0.13596
     241 -> 247       -0.11849
     246 -> 248       -0.21729

 Excited State   5:      Singlet-A      3.6214 eV  342.36 nm  f=0.4464  <S**2>=0.000
     240 -> 247        0.16383
     241 -> 247        0.12896
     243 -> 247        0.25413
     243 -> 249       -0.13123
     243 -> 250        0.16305
     245 -> 247        0.20894
     246 -> 248        0.51637

 The electronic state is 1-A.
 Alpha  occ. eigenvalues --  -46.88278 -19.25174 -19.24657 -19.20862 -19.19857
 Alpha  occ. eigenvalues --  -19.19194 -19.17831 -14.42329 -14.41485 -14.40113
 Alpha  occ. eigenvalues --  -14.38145 -10.39789 -10.38781 -10.36285 -10.34196
 Alpha  occ. eigenvalues --  -10.31865 -10.31574 -10.31382 -10.30917 -10.30724
 Alpha  occ. eigenvalues --  -10.30331 -10.30326 -10.30213 -10.29887 -10.28438
 Alpha  occ. eigenvalues --  -10.28253 -10.28088 -10.27982 -10.27865 -10.27761
 Alpha  occ. eigenvalues --  -10.27663 -10.27619 -10.27593 -10.27420 -10.27261
 Alpha  occ. eigenvalues --  -10.27214 -10.27004 -10.26880 -10.26761 -10.26623
 Alpha  occ. eigenvalues --  -10.26458 -10.26427 -10.26388 -10.26174 -10.26066
 Alpha  occ. eigenvalues --  -10.25970 -10.25786 -10.25624 -10.25601 -10.25474
 Alpha  occ. eigenvalues --  -10.25395 -10.25394 -10.25347 -10.25314 -10.25170
 Alpha  occ. eigenvalues --  -10.25103 -10.24929 -10.24924 -10.24665 -10.24653
 Alpha  occ. eigenvalues --  -10.24587 -10.24408 -10.24369 -10.24154 -10.24135
 Alpha  occ. eigenvalues --  -10.23549  -3.16897  -1.91813  -1.91329  -1.91228
 Alpha  occ. eigenvalues --   -1.17714  -1.15781  -1.11194  -1.08212  -1.07771
 Alpha  occ. eigenvalues --   -1.07548  -1.05571  -1.04647  -1.04036  -1.02326
 Alpha  occ. eigenvalues --   -0.92329  -0.90806  -0.89826  -0.89622  -0.89096
 Alpha  occ. eigenvalues --   -0.88726  -0.88534  -0.88228  -0.87842  -0.87152
 Alpha  occ. eigenvalues --   -0.86016  -0.84959  -0.84418  -0.83574  -0.83356
 Alpha  occ. eigenvalues --   -0.82822  -0.82071  -0.81348  -0.80976  -0.80630
 Alpha  occ. eigenvalues --   -0.80039  -0.79148  -0.77610  -0.77273  -0.76206
 Alpha  occ. eigenvalues --   -0.75885  -0.75077  -0.74868  -0.74784  -0.74176
 Alpha  occ. eigenvalues --   -0.73301  -0.72297  -0.71387  -0.70725  -0.69054
 Alpha  occ. eigenvalues --   -0.68328  -0.68136  -0.67197  -0.66640  -0.65938
 Alpha  occ. eigenvalues --   -0.65840  -0.65616  -0.64789  -0.64695  -0.64346
 Alpha  occ. eigenvalues --   -0.63311  -0.62981  -0.62222  -0.62152  -0.60918
 Alpha  occ. eigenvalues --   -0.60290  -0.59485  -0.59387  -0.58336  -0.57878
 Alpha  occ. eigenvalues --   -0.57645  -0.56885  -0.56594  -0.56362  -0.55492
 Alpha  occ. eigenvalues --   -0.55006  -0.54767  -0.54534  -0.54334  -0.53883
 Alpha  occ. eigenvalues --   -0.53783  -0.53622  -0.53491  -0.53310  -0.53252
 Alpha  occ. eigenvalues --   -0.53019  -0.52759  -0.52596  -0.52065  -0.51639
 Alpha  occ. eigenvalues --   -0.51451  -0.51201  -0.51081  -0.50964  -0.50595
 Alpha  occ. eigenvalues --   -0.50406  -0.50279  -0.50163  -0.49986  -0.49710
 Alpha  occ. eigenvalues --   -0.49607  -0.49354  -0.49252  -0.49006  -0.48846
 Alpha  occ. eigenvalues --   -0.48495  -0.48456  -0.48285  -0.47916  -0.47879
 Alpha  occ. eigenvalues --   -0.47783  -0.47625  -0.47164  -0.46619  -0.46444
 Alpha  occ. eigenvalues --   -0.46264  -0.46109  -0.46072  -0.45942  -0.45621
 Alpha  occ. eigenvalues --   -0.45508  -0.45355  -0.45088  -0.44971  -0.44637
 Alpha  occ. eigenvalues --   -0.44514  -0.44436  -0.44203  -0.44071  -0.43940
 Alpha  occ. eigenvalues --   -0.43859  -0.43677  -0.43416  -0.43391  -0.43152
 Alpha  occ. eigenvalues --   -0.42962  -0.42637  -0.42445  -0.42254  -0.42045
 Alpha  occ. eigenvalues --   -0.41852  -0.41445  -0.41371  -0.41306  -0.41080
 Alpha  occ. eigenvalues --   -0.40879  -0.40676  -0.40434  -0.40348  -0.40045
 Alpha  occ. eigenvalues --   -0.39918  -0.39592  -0.39427  -0.39328  -0.38954
 Alpha  occ. eigenvalues --   -0.38505  -0.37989  -0.37691  -0.37615  -0.37267
 Alpha  occ. eigenvalues --   -0.36911  -0.36831  -0.36648  -0.36444  -0.36250
 Alpha  occ. eigenvalues --   -0.35880  -0.35827  -0.35357  -0.34826  -0.34540
 Alpha  occ. eigenvalues --   -0.34034  -0.33766  -0.33346  -0.32212  -0.31661
 Alpha  occ. eigenvalues --   -0.30734  -0.30402  -0.30032  -0.28562  -0.23902
 Alpha  occ. eigenvalues --   -0.21370
 Alpha virt. eigenvalues --   -0.08517  -0.01445   0.00134   0.02302   0.03604
 Alpha virt. eigenvalues --    0.04394   0.04915   0.05451   0.06151   0.06521
 Alpha virt. eigenvalues --    0.07929   0.08252   0.08342   0.08914   0.09436

 Mulliken charges:
               1
     1  Mg   0.839801
     2  C    0.018581
     3  C   -0.112057
     4  C   -0.038791
     5  C   -0.061331
     6  N   -0.269320
     7  C   -0.004195
     8  C   -0.062072
     9  C   -0.040773
    10  C    0.071977
    11  C    0.048644
    12  C    0.063401
    13  C    0.045954
    14  C    0.146831
    15  O   -0.214365
    16  O   -0.363044
    17  N   -0.408279
    18  C    0.176177
    19  C   -0.170306
    20  C    0.000642
    21  C    0.142984
    22  C    0.100182
    23  C    0.020458
    24  O   -0.186543
    25  C    0.048009
    26  N   -0.233754
    27  C   -0.048582
    28  C   -0.069643
    29  C   -0.031572
    30  C    0.092389
    31  C    0.100400
    32  C    0.010360
    33  C    0.038515
    34  N   -0.325445
    35  C    0.056324
    36  C   -0.194933
    37  C    0.026093
    38  C    0.063365
    39  C    0.125230
    40  C    0.028313
    41  O   -0.196572
    42  C    0.007564
    43  C    0.164705
    44  O   -0.203805
    45  O   -0.296454
    46  C    0.180932
    47  C    0.315698
    48  C   -0.149830
    49  C   -0.151150
    50  C    0.095759
    51  C    0.057229
    52  C   -0.036353
    53  C    0.082928
    54  C   -0.094028
    55  C    0.040523
    56  C    0.039121
    57  C    0.006569
    58  C    0.034047
    59  C   -0.127747
    60  C    0.060560
    61  C    0.037806
    62  C    0.015326
    63  C    0.072267
    64  C   -0.185611
    65  C    0.025484
    66  C    0.080473
    67  H   -0.040239
    68  H   -0.008069
    69  H   -0.028689
    70  H    0.041597
    71  H    0.009306
    72  H    0.007446
    73  H    0.015198
    74  H    0.032578
    75  H    0.022051
    76  H    0.015145
    77  H    0.039177
    78  H    0.021379
    79  H    0.003047
    80  H    0.049821
    81  H    0.049844
    82  H    0.000521
    83  H    0.028539
    84  H    0.044831
    85  H    0.009864
    86  H   -0.002886
    87  H    0.021432
    88  H    0.017484
    89  H    0.018568
    90  H   -0.000500
    91  H    0.004901
    92  H    0.003867
    93  H    0.022899
    94  H    0.004964
    95  H    0.036055
    96  H    0.001872
    97  H    0.035694
    98  H    0.045411
    99  H    0.037659
   100  H    0.043429
   101  H    0.036709
   102  H    0.023506
   103  H    0.018612
   104  H   -0.013865
   105  H    0.028904
   106  H    0.023124
   107  H    0.004582
   108  H    0.000775
   109  H    0.012132
   110  H   -0.005276
   111  H    0.018456
   112  H   -0.009795
   113  H   -0.012871
   114  H    0.009272
   115  H   -0.010086
   116  H    0.012737
   117  H    0.004653
   118  H   -0.005751
   119  H   -0.009356
   120  H   -0.008245
   121  H   -0.008179
   122  H   -0.011397
   123  H   -0.012858
   124  H   -0.006792
   125  H    0.007775
   126  H    0.002503
   127  H    0.005786
   128  H    0.003115
   129  H   -0.003692
   130  H    0.001397
   131  H   -0.006898
   132  H   -0.010633
   133  H   -0.013261
   134  H   -0.013708
   135  H   -0.002176
   136  H    0.014912
   137  H    0.011093
   138  H    0.012190
   139  H   -0.005077
   140  H    0.008426
 Sum of Mulliken charges =  -0.00000

 Dipole moment (field-independent basis, Debye):
    X=              5.5045    Y=              4.0808    Z=             -3.2215  Tot=              7.5717
 Quadrupole moment (field-independent basis, Debye-Ang):
   XX=           -392.6444   YY=           -421.7018   ZZ=           -407.0116
   XY=            -30.2306   XZ=              1.7266   YZ=              5.8482

 Normal termination of Gaussian 16 at Sat Apr 30 03:54:20 2022.
