 Gaussian 16, Revision A.03,
 Gaussian 16:  ES64L-G16RevA.03 25-Dec-2016

 ---------------------------------
 #p PBE1PBE/Def2SVP td=(nstates=5)
 ---------------------------------

 ----------------------------------------------------
 step_551_chromophore_6 TDDFT with PBE1PBE functional
 ----------------------------------------------------
 Symbolic Z-matrix:
 Charge =  0 Multiplicity = 1

                         Standard orientation:
 ---------------------------------------------------------------------
 Center     Atomic      Atomic             Coordinates (Angstroms)
 Number     Number       Type             X           Y           Z
 ---------------------------------------------------------------------
      1         12           0       -5.357845    1.093168   -0.185808
      2          6           0       -4.536417   -2.332735    0.096656
      3          6           0       -2.112671    1.820918   -0.523085
      4          6           0       -6.213786    4.245907    0.101599
      5          6           0       -8.820744    0.139160    0.088831
      6          7           0       -3.590517   -0.124992   -0.116272
      7          6           0       -3.476853   -1.461803   -0.028261
      8          6           0       -2.013071   -1.913432   -0.104815
      9          6           0       -1.285658   -0.579275   -0.206929
     10          6           0       -2.385103    0.459005   -0.240326
     11          6           0       -0.285499   -0.336239    0.887097
     12          6           0       -1.611908   -2.883819   -1.350442
     13          6           0       -0.863142   -4.175369   -0.914601
     14          6           0        0.293928   -3.987530    0.090711
     15          8           0        0.405901   -4.443640    1.208893
     16          8           0        1.323280   -3.270568   -0.534058
     17          7           0       -4.317962    2.765387   -0.239318
     18          6           0       -3.004391    2.867214   -0.431077
     19          6           0       -2.634439    4.288233   -0.407463
     20          6           0       -3.803823    5.051962   -0.318213
     21          6           0       -4.828514    4.044132   -0.179259
     22          6           0       -1.181712    4.806787   -0.541159
     23          6           0       -4.132163    6.539814   -0.265278
     24          8           0       -5.239952    7.033403   -0.130398
     25          6           0       -3.013230    7.549647   -0.412506
     26          7           0       -7.330281    2.113331   -0.070006
     27          6           0       -7.358216    3.404534    0.115236
     28          6           0       -8.816617    3.846815    0.555875
     29          6           0       -9.634262    2.526010    0.140105
     30          6           0       -8.563234    1.507229    0.020005
     31          6           0       -8.895096    4.243124    2.023163
     32          6           0      -10.315048    2.831187   -1.225523
     33          6           0      -11.230170    1.744570   -1.756133
     34          7           0       -6.533408   -0.698697    0.012914
     35          6           0       -7.873936   -0.921894    0.108628
     36          6           0       -8.103254   -2.330640    0.294243
     37          6           0       -6.819371   -2.934665    0.246892
     38          6           0       -5.929805   -1.926943    0.043069
     39          6           0       -9.447251   -3.044983    0.479748
     40          6           0       -6.094318   -4.188058    0.325786
     41          8           0       -6.526157   -5.336945    0.539422
     42          6           0       -4.605948   -3.841410    0.130155
     43          6           0       -3.738885   -4.504962    1.213701
     44          8           0       -3.443560   -3.966969    2.255659
     45          8           0       -3.330019   -5.714847    0.828498
     46          6           0       -2.614799   -6.431791    1.854264
     47          6           0        2.523331   -3.007780    0.299602
     48          6           0        3.750522   -2.729878   -0.538268
     49          6           0        4.873918   -3.475986   -0.682949
     50          6           0        5.143064   -4.851874   -0.052916
     51          6           0        5.879744   -3.030856   -1.734711
     52          6           0        7.354825   -2.949515   -1.292561
     53          6           0        8.192947   -1.890124   -2.096056
     54          6           0        8.581256   -0.716140   -1.273172
     55          6           0        7.800543    0.502267   -1.830398
     56          6           0       10.149332   -0.300674   -1.265451
     57          6           0       10.800557   -0.396466    0.181969
     58          6           0       12.126137   -1.056347    0.129373
     59          6           0       13.336256   -0.144646   -0.174508
     60          6           0       14.499226   -0.957950   -0.838313
     61          6           0       13.812328    0.553307    1.148634
     62          6           0       14.466034    1.977806    0.834015
     63          6           0       14.100178    3.104884    1.770762
     64          6           0       13.653312    4.453886    1.108025
     65          6           0       12.114394    4.620380    1.014245
     66          6           0       14.211107    5.784108    1.574936
     67          1           0       -1.086706    2.146033   -0.708571
     68          1           0       -6.628667    5.244227    0.254639
     69          1           0       -9.802815   -0.256157    0.356011
     70          1           0       -1.615478   -2.473357    0.742418
     71          1           0       -0.706444   -0.427621   -1.116775
     72          1           0       -0.945134    0.149410    1.606348
     73          1           0        0.515641    0.330896    0.569803
     74          1           0        0.087119   -1.187776    1.456712
     75          1           0       -0.941058   -2.414242   -2.070778
     76          1           0       -2.522949   -3.190356   -1.863919
     77          1           0       -0.464272   -4.742947   -1.754482
     78          1           0       -1.566278   -4.791744   -0.353792
     79          1           0       -0.418557    4.035883   -0.642514
     80          1           0       -0.921317    5.230169    0.428581
     81          1           0       -1.079445    5.443030   -1.420350
     82          1           0       -2.143271    7.022330   -0.020686
     83          1           0       -3.210780    8.483190    0.113499
     84          1           0       -2.841524    7.918546   -1.424366
     85          1           0       -9.031604    4.762224    0.004561
     86          1           0      -10.445049    2.216959    0.800346
     87          1           0       -9.125507    5.306934    2.082910
     88          1           0       -7.915696    4.097961    2.478408
     89          1           0       -9.634141    3.589741    2.487857
     90          1           0       -9.502315    3.024032   -1.926177
     91          1           0      -10.923079    3.735180   -1.195258
     92          1           0      -11.547618    1.029718   -0.997153
     93          1           0      -10.756666    1.245374   -2.600890
     94          1           0      -12.154704    2.230254   -2.071892
     95          1           0       -9.625617   -3.501272   -0.494505
     96          1           0      -10.250790   -2.366417    0.765439
     97          1           0       -9.398433   -3.802032    1.261582
     98          1           0       -4.353093   -4.261815   -0.842771
     99          1           0       -2.021423   -7.201190    1.359709
    100          1           0       -3.237358   -6.679987    2.714756
    101          1           0       -1.887408   -5.743974    2.285494
    102          1           0        2.714883   -3.824278    0.996025
    103          1           0        2.451982   -2.055713    0.825314
    104          1           0        3.773263   -1.819913   -1.137920
    105          1           0        5.266892   -5.656895   -0.777166
    106          1           0        4.507117   -5.122724    0.789671
    107          1           0        6.150730   -4.662240    0.316719
    108          1           0        5.644113   -2.065254   -2.182568
    109          1           0        5.867633   -3.789374   -2.518189
    110          1           0        7.753064   -3.912505   -1.611736
    111          1           0        7.464441   -2.853024   -0.212796
    112          1           0        7.583232   -1.629934   -2.961717
    113          1           0        9.037454   -2.413744   -2.543528
    114          1           0        8.369758   -0.892288   -0.218514
    115          1           0        6.975546    0.227146   -2.487843
    116          1           0        8.401386    1.162119   -2.456742
    117          1           0        7.285524    1.051953   -1.043445
    118          1           0       10.382274    0.713362   -1.591196
    119          1           0       10.759104   -0.815696   -2.007659
    120          1           0       10.174216   -0.939173    0.890228
    121          1           0       10.920415    0.572479    0.667618
    122          1           0       11.952326   -1.816169   -0.632634
    123          1           0       12.240216   -1.578361    1.080321
    124          1           0       13.033822    0.616125   -0.893945
    125          1           0       14.733777   -0.576145   -1.832343
    126          1           0       14.176875   -1.993471   -0.946722
    127          1           0       15.404715   -0.961298   -0.232272
    128          1           0       14.531768   -0.027061    1.726776
    129          1           0       12.933105    0.665734    1.783365
    130          1           0       14.351154    2.215572   -0.223781
    131          1           0       15.546402    1.887167    0.942700
    132          1           0       14.934836    3.281015    2.450332
    133          1           0       13.295300    2.770554    2.425337
    134          1           0       13.940857    4.381617    0.058808
    135          1           0       11.750019    3.723355    0.514380
    136          1           0       11.778601    5.459327    0.404538
    137          1           0       11.793784    4.643438    2.055280
    138          1           0       14.586310    5.612663    2.583933
    139          1           0       13.423464    6.536503    1.573083
    140          1           0       14.877812    6.122628    0.780730
 ---------------------------------------------------------------------

 SCF Done:  E(RPBE1PBE) =  -3005.38211267     A.U. after   16 cycles

 Excitation energies and oscillator strengths:

 Excited State   1:      Singlet-A      1.9038 eV  651.26 nm  f=0.3624  <S**2>=0.000
     245 -> 248       -0.16596
     246 -> 247        0.69106
 This state for optimization and/or second-order correction.
 Total Energy, E(TD-HF/TD-DFT) =  -3005.31215059
 Copying the excited state density for this state as the 1-particle RhoCI density.

 Excited State   2:      Singlet-A      2.2446 eV  552.38 nm  f=0.1272  <S**2>=0.000
     245 -> 247        0.66063
     246 -> 248        0.22834

 Excited State   3:      Singlet-A      2.9514 eV  420.09 nm  f=0.0085  <S**2>=0.000
     244 -> 247        0.69537

 Excited State   4:      Singlet-A      3.0301 eV  409.17 nm  f=0.0010  <S**2>=0.000
     243 -> 247        0.67182
     243 -> 249       -0.13797
     243 -> 250        0.12948

 Excited State   5:      Singlet-A      3.1095 eV  398.73 nm  f=0.0010  <S**2>=0.000
     240 -> 247        0.19113
     241 -> 247        0.62785
     241 -> 248       -0.13160
     241 -> 249        0.16234

 The electronic state is 1-A.
 Alpha  occ. eigenvalues --  -46.91667 -19.25937 -19.25353 -19.21139 -19.19736
 Alpha  occ. eigenvalues --  -19.19562 -19.18402 -14.41849 -14.40899 -14.39572
 Alpha  occ. eigenvalues --  -14.38046 -10.36877 -10.35929 -10.33103 -10.31635
 Alpha  occ. eigenvalues --  -10.29247 -10.28974 -10.28696 -10.28382 -10.28278
 Alpha  occ. eigenvalues --  -10.27900 -10.27887 -10.27656 -10.27401 -10.26294
 Alpha  occ. eigenvalues --  -10.25782 -10.25683 -10.25631 -10.25548 -10.25501
 Alpha  occ. eigenvalues --  -10.25397 -10.25394 -10.25377 -10.25218 -10.25153
 Alpha  occ. eigenvalues --  -10.25131 -10.24991 -10.24558 -10.24557 -10.24342
 Alpha  occ. eigenvalues --  -10.24104 -10.23924 -10.23863 -10.23670 -10.23635
 Alpha  occ. eigenvalues --  -10.23347 -10.23303 -10.23216 -10.23195 -10.23063
 Alpha  occ. eigenvalues --  -10.23022 -10.22928 -10.22835 -10.22818 -10.22792
 Alpha  occ. eigenvalues --  -10.22690 -10.22461 -10.22447 -10.22209 -10.22143
 Alpha  occ. eigenvalues --  -10.21991 -10.21788 -10.21737 -10.21692 -10.21683
 Alpha  occ. eigenvalues --  -10.21511  -3.13865  -1.86724  -1.86215  -1.86121
 Alpha  occ. eigenvalues --   -1.12636  -1.10578  -1.05610  -1.03163  -1.02660
 Alpha  occ. eigenvalues --   -1.02570  -1.00032  -0.99179  -0.98632  -0.97346
 Alpha  occ. eigenvalues --   -0.86910  -0.84932  -0.83969  -0.83798  -0.83355
 Alpha  occ. eigenvalues --   -0.82850  -0.82711  -0.82232  -0.81963  -0.81431
 Alpha  occ. eigenvalues --   -0.80250  -0.79562  -0.78585  -0.77893  -0.77679
 Alpha  occ. eigenvalues --   -0.77041  -0.76174  -0.75481  -0.75188  -0.74967
 Alpha  occ. eigenvalues --   -0.74239  -0.73222  -0.71943  -0.71680  -0.70442
 Alpha  occ. eigenvalues --   -0.70274  -0.69201  -0.69160  -0.68891  -0.68339
 Alpha  occ. eigenvalues --   -0.67614  -0.66860  -0.65795  -0.65057  -0.63289
 Alpha  occ. eigenvalues --   -0.62810  -0.62349  -0.61626  -0.60938  -0.60313
 Alpha  occ. eigenvalues --   -0.60036  -0.59999  -0.59314  -0.58960  -0.58944
 Alpha  occ. eigenvalues --   -0.57532  -0.57422  -0.56836  -0.56405  -0.55246
 Alpha  occ. eigenvalues --   -0.54746  -0.54016  -0.53888  -0.52881  -0.52575
 Alpha  occ. eigenvalues --   -0.52282  -0.51333  -0.51082  -0.50800  -0.50022
 Alpha  occ. eigenvalues --   -0.49487  -0.49428  -0.49043  -0.48870  -0.48480
 Alpha  occ. eigenvalues --   -0.48361  -0.48028  -0.47870  -0.47787  -0.47674
 Alpha  occ. eigenvalues --   -0.47402  -0.47228  -0.47103  -0.46654  -0.46074
 Alpha  occ. eigenvalues --   -0.45917  -0.45791  -0.45627  -0.45602  -0.45154
 Alpha  occ. eigenvalues --   -0.44966  -0.44857  -0.44679  -0.44579  -0.44296
 Alpha  occ. eigenvalues --   -0.44168  -0.43882  -0.43668  -0.43566  -0.43354
 Alpha  occ. eigenvalues --   -0.43136  -0.43106  -0.42987  -0.42645  -0.42541
 Alpha  occ. eigenvalues --   -0.42396  -0.42242  -0.41761  -0.41237  -0.41083
 Alpha  occ. eigenvalues --   -0.40994  -0.40913  -0.40650  -0.40620  -0.40409
 Alpha  occ. eigenvalues --   -0.40234  -0.40127  -0.39833  -0.39749  -0.39452
 Alpha  occ. eigenvalues --   -0.39388  -0.39159  -0.38943  -0.38879  -0.38689
 Alpha  occ. eigenvalues --   -0.38499  -0.38412  -0.38204  -0.38105  -0.37930
 Alpha  occ. eigenvalues --   -0.37764  -0.37382  -0.37259  -0.36959  -0.36876
 Alpha  occ. eigenvalues --   -0.36727  -0.36359  -0.36275  -0.36053  -0.35810
 Alpha  occ. eigenvalues --   -0.35747  -0.35591  -0.35336  -0.35096  -0.35025
 Alpha  occ. eigenvalues --   -0.34642  -0.34441  -0.34336  -0.34214  -0.33717
 Alpha  occ. eigenvalues --   -0.33499  -0.32850  -0.32717  -0.32437  -0.32048
 Alpha  occ. eigenvalues --   -0.31974  -0.31710  -0.31610  -0.31447  -0.31108
 Alpha  occ. eigenvalues --   -0.30868  -0.30721  -0.30192  -0.29750  -0.29439
 Alpha  occ. eigenvalues --   -0.29312  -0.28958  -0.28636  -0.27522  -0.26388
 Alpha  occ. eigenvalues --   -0.26068  -0.25741  -0.25192  -0.24566  -0.20792
 Alpha  occ. eigenvalues --   -0.18898
 Alpha virt. eigenvalues --   -0.11051  -0.05042  -0.03959  -0.02190  -0.00212
 Alpha virt. eigenvalues --    0.00418   0.00813   0.01523   0.02041   0.02357
 Alpha virt. eigenvalues --    0.04031   0.04671   0.04784   0.05392   0.05603

 Mulliken charges:
               1
     1  Mg   0.992597
     2  C    0.008330
     3  C   -0.090247
     4  C   -0.039822
     5  C   -0.053940
     6  N   -0.386457
     7  C    0.067611
     8  C   -0.124714
     9  C   -0.120383
    10  C    0.106061
    11  C   -0.006601
    12  C    0.016227
    13  C   -0.041852
    14  C    0.211137
    15  O   -0.249182
    16  O   -0.389524
    17  N   -0.531589
    18  C    0.192948
    19  C   -0.197362
    20  C   -0.049662
    21  C    0.169424
    22  C    0.039618
    23  C    0.072395
    24  O   -0.226565
    25  C   -0.023718
    26  N   -0.338902
    27  C   -0.006164
    28  C   -0.143205
    29  C   -0.120897
    30  C    0.136086
    31  C    0.043616
    32  C   -0.045787
    33  C   -0.032542
    34  N   -0.449904
    35  C    0.089295
    36  C   -0.213984
    37  C   -0.017513
    38  C    0.115773
    39  C    0.072579
    40  C    0.123496
    41  O   -0.240426
    42  C   -0.101293
    43  C    0.250674
    44  O   -0.238055
    45  O   -0.330111
    46  C    0.121849
    47  C    0.269729
    48  C   -0.163237
    49  C   -0.191465
    50  C    0.033812
    51  C   -0.005924
    52  C   -0.101963
    53  C    0.032654
    54  C   -0.185951
    55  C   -0.016486
    56  C   -0.005396
    57  C   -0.053476
    58  C   -0.029615
    59  C   -0.214971
    60  C    0.004539
    61  C   -0.014736
    62  C   -0.044864
    63  C    0.017351
    64  C   -0.273200
    65  C   -0.043957
    66  C    0.017570
    67  H   -0.006601
    68  H    0.024138
    69  H    0.003684
    70  H    0.081851
    71  H    0.045657
    72  H    0.037540
    73  H    0.041519
    74  H    0.058990
    75  H    0.053842
    76  H    0.048223
    77  H    0.071200
    78  H    0.066167
    79  H    0.028471
    80  H    0.075226
    81  H    0.075721
    82  H    0.029425
    83  H    0.054659
    84  H    0.070043
    85  H    0.045337
    86  H    0.032416
    87  H    0.048295
    88  H    0.046340
    89  H    0.045554
    90  H    0.034470
    91  H    0.038822
    92  H    0.030878
    93  H    0.050745
    94  H    0.033940
    95  H    0.065972
    96  H    0.030118
    97  H    0.064176
    98  H    0.083095
    99  H    0.059835
   100  H    0.066623
   101  H    0.060405
   102  H    0.050303
   103  H    0.046942
   104  H    0.016106
   105  H    0.055864
   106  H    0.049883
   107  H    0.034670
   108  H    0.033107
   109  H    0.046356
   110  H    0.029049
   111  H    0.049185
   112  H    0.022055
   113  H    0.019623
   114  H    0.046347
   115  H    0.016834
   116  H    0.039437
   117  H    0.032704
   118  H    0.025507
   119  H    0.020397
   120  H    0.023784
   121  H    0.026192
   122  H    0.022534
   123  H    0.020773
   124  H    0.031446
   125  H    0.034763
   126  H    0.029493
   127  H    0.032622
   128  H    0.034784
   129  H    0.028477
   130  H    0.031337
   131  H    0.026676
   132  H    0.021729
   133  H    0.018809
   134  H    0.026000
   135  H    0.028677
   136  H    0.042700
   137  H    0.039986
   138  H    0.039421
   139  H    0.023057
   140  H    0.035869
 Sum of Mulliken charges =  -0.00000

 Dipole moment (field-independent basis, Debye):
    X=              5.0750    Y=              3.2836    Z=             -3.1938  Tot=              6.8365
 Quadrupole moment (field-independent basis, Debye-Ang):
   XX=           -381.9335   YY=           -420.4453   ZZ=           -404.5032
   XY=            -27.3880   XZ=              1.1641   YZ=              5.8161

 Normal termination of Gaussian 16 at Sat Apr 30 04:09:26 2022.
