 Gaussian 16, Revision A.03,
 Gaussian 16:  ES64L-G16RevA.03 25-Dec-2016

 --------------------------------
 #p wB97XD/Def2SVP td=(nstates=5)
 --------------------------------

 ---------------------------------------------------
 step_551_chromophore_6 TDDFT with wB97XD functional
 ---------------------------------------------------
 Symbolic Z-matrix:
 Charge =  0 Multiplicity = 1

                         Standard orientation:
 ---------------------------------------------------------------------
 Center     Atomic      Atomic             Coordinates (Angstroms)
 Number     Number       Type             X           Y           Z
 ---------------------------------------------------------------------
      1         12           0       -5.357845    1.093168   -0.185808
      2          6           0       -4.536417   -2.332735    0.096656
      3          6           0       -2.112671    1.820918   -0.523085
      4          6           0       -6.213786    4.245907    0.101599
      5          6           0       -8.820744    0.139160    0.088831
      6          7           0       -3.590517   -0.124992   -0.116272
      7          6           0       -3.476853   -1.461803   -0.028261
      8          6           0       -2.013071   -1.913432   -0.104815
      9          6           0       -1.285658   -0.579275   -0.206929
     10          6           0       -2.385103    0.459005   -0.240326
     11          6           0       -0.285499   -0.336239    0.887097
     12          6           0       -1.611908   -2.883819   -1.350442
     13          6           0       -0.863142   -4.175369   -0.914601
     14          6           0        0.293928   -3.987530    0.090711
     15          8           0        0.405901   -4.443640    1.208893
     16          8           0        1.323280   -3.270568   -0.534058
     17          7           0       -4.317962    2.765387   -0.239318
     18          6           0       -3.004391    2.867214   -0.431077
     19          6           0       -2.634439    4.288233   -0.407463
     20          6           0       -3.803823    5.051962   -0.318213
     21          6           0       -4.828514    4.044132   -0.179259
     22          6           0       -1.181712    4.806787   -0.541159
     23          6           0       -4.132163    6.539814   -0.265278
     24          8           0       -5.239952    7.033403   -0.130398
     25          6           0       -3.013230    7.549647   -0.412506
     26          7           0       -7.330281    2.113331   -0.070006
     27          6           0       -7.358216    3.404534    0.115236
     28          6           0       -8.816617    3.846815    0.555875
     29          6           0       -9.634262    2.526010    0.140105
     30          6           0       -8.563234    1.507229    0.020005
     31          6           0       -8.895096    4.243124    2.023163
     32          6           0      -10.315048    2.831187   -1.225523
     33          6           0      -11.230170    1.744570   -1.756133
     34          7           0       -6.533408   -0.698697    0.012914
     35          6           0       -7.873936   -0.921894    0.108628
     36          6           0       -8.103254   -2.330640    0.294243
     37          6           0       -6.819371   -2.934665    0.246892
     38          6           0       -5.929805   -1.926943    0.043069
     39          6           0       -9.447251   -3.044983    0.479748
     40          6           0       -6.094318   -4.188058    0.325786
     41          8           0       -6.526157   -5.336945    0.539422
     42          6           0       -4.605948   -3.841410    0.130155
     43          6           0       -3.738885   -4.504962    1.213701
     44          8           0       -3.443560   -3.966969    2.255659
     45          8           0       -3.330019   -5.714847    0.828498
     46          6           0       -2.614799   -6.431791    1.854264
     47          6           0        2.523331   -3.007780    0.299602
     48          6           0        3.750522   -2.729878   -0.538268
     49          6           0        4.873918   -3.475986   -0.682949
     50          6           0        5.143064   -4.851874   -0.052916
     51          6           0        5.879744   -3.030856   -1.734711
     52          6           0        7.354825   -2.949515   -1.292561
     53          6           0        8.192947   -1.890124   -2.096056
     54          6           0        8.581256   -0.716140   -1.273172
     55          6           0        7.800543    0.502267   -1.830398
     56          6           0       10.149332   -0.300674   -1.265451
     57          6           0       10.800557   -0.396466    0.181969
     58          6           0       12.126137   -1.056347    0.129373
     59          6           0       13.336256   -0.144646   -0.174508
     60          6           0       14.499226   -0.957950   -0.838313
     61          6           0       13.812328    0.553307    1.148634
     62          6           0       14.466034    1.977806    0.834015
     63          6           0       14.100178    3.104884    1.770762
     64          6           0       13.653312    4.453886    1.108025
     65          6           0       12.114394    4.620380    1.014245
     66          6           0       14.211107    5.784108    1.574936
     67          1           0       -1.086706    2.146033   -0.708571
     68          1           0       -6.628667    5.244227    0.254639
     69          1           0       -9.802815   -0.256157    0.356011
     70          1           0       -1.615478   -2.473357    0.742418
     71          1           0       -0.706444   -0.427621   -1.116775
     72          1           0       -0.945134    0.149410    1.606348
     73          1           0        0.515641    0.330896    0.569803
     74          1           0        0.087119   -1.187776    1.456712
     75          1           0       -0.941058   -2.414242   -2.070778
     76          1           0       -2.522949   -3.190356   -1.863919
     77          1           0       -0.464272   -4.742947   -1.754482
     78          1           0       -1.566278   -4.791744   -0.353792
     79          1           0       -0.418557    4.035883   -0.642514
     80          1           0       -0.921317    5.230169    0.428581
     81          1           0       -1.079445    5.443030   -1.420350
     82          1           0       -2.143271    7.022330   -0.020686
     83          1           0       -3.210780    8.483190    0.113499
     84          1           0       -2.841524    7.918546   -1.424366
     85          1           0       -9.031604    4.762224    0.004561
     86          1           0      -10.445049    2.216959    0.800346
     87          1           0       -9.125507    5.306934    2.082910
     88          1           0       -7.915696    4.097961    2.478408
     89          1           0       -9.634141    3.589741    2.487857
     90          1           0       -9.502315    3.024032   -1.926177
     91          1           0      -10.923079    3.735180   -1.195258
     92          1           0      -11.547618    1.029718   -0.997153
     93          1           0      -10.756666    1.245374   -2.600890
     94          1           0      -12.154704    2.230254   -2.071892
     95          1           0       -9.625617   -3.501272   -0.494505
     96          1           0      -10.250790   -2.366417    0.765439
     97          1           0       -9.398433   -3.802032    1.261582
     98          1           0       -4.353093   -4.261815   -0.842771
     99          1           0       -2.021423   -7.201190    1.359709
    100          1           0       -3.237358   -6.679987    2.714756
    101          1           0       -1.887408   -5.743974    2.285494
    102          1           0        2.714883   -3.824278    0.996025
    103          1           0        2.451982   -2.055713    0.825314
    104          1           0        3.773263   -1.819913   -1.137920
    105          1           0        5.266892   -5.656895   -0.777166
    106          1           0        4.507117   -5.122724    0.789671
    107          1           0        6.150730   -4.662240    0.316719
    108          1           0        5.644113   -2.065254   -2.182568
    109          1           0        5.867633   -3.789374   -2.518189
    110          1           0        7.753064   -3.912505   -1.611736
    111          1           0        7.464441   -2.853024   -0.212796
    112          1           0        7.583232   -1.629934   -2.961717
    113          1           0        9.037454   -2.413744   -2.543528
    114          1           0        8.369758   -0.892288   -0.218514
    115          1           0        6.975546    0.227146   -2.487843
    116          1           0        8.401386    1.162119   -2.456742
    117          1           0        7.285524    1.051953   -1.043445
    118          1           0       10.382274    0.713362   -1.591196
    119          1           0       10.759104   -0.815696   -2.007659
    120          1           0       10.174216   -0.939173    0.890228
    121          1           0       10.920415    0.572479    0.667618
    122          1           0       11.952326   -1.816169   -0.632634
    123          1           0       12.240216   -1.578361    1.080321
    124          1           0       13.033822    0.616125   -0.893945
    125          1           0       14.733777   -0.576145   -1.832343
    126          1           0       14.176875   -1.993471   -0.946722
    127          1           0       15.404715   -0.961298   -0.232272
    128          1           0       14.531768   -0.027061    1.726776
    129          1           0       12.933105    0.665734    1.783365
    130          1           0       14.351154    2.215572   -0.223781
    131          1           0       15.546402    1.887167    0.942700
    132          1           0       14.934836    3.281015    2.450332
    133          1           0       13.295300    2.770554    2.425337
    134          1           0       13.940857    4.381617    0.058808
    135          1           0       11.750019    3.723355    0.514380
    136          1           0       11.778601    5.459327    0.404538
    137          1           0       11.793784    4.643438    2.055280
    138          1           0       14.586310    5.612663    2.583933
    139          1           0       13.423464    6.536503    1.573083
    140          1           0       14.877812    6.122628    0.780730
 ---------------------------------------------------------------------

 SCF Done:  E(RwB97XD) =  -3007.89378076     A.U. after   19 cycles

 Excitation energies and oscillator strengths:

 Excited State   1:      Singlet-A      1.7845 eV  694.78 nm  f=0.3736  <S**2>=0.000
     245 -> 248        0.17591
     246 -> 247        0.68340
     245 <- 248        0.10500
 This state for optimization and/or second-order correction.
 Total Energy, E(TD-HF/TD-DFT) =  -3007.82820145
 Copying the excited state density for this state as the 1-particle RhoCI density.

 Excited State   2:      Singlet-A      2.2163 eV  559.41 nm  f=0.1321  <S**2>=0.000
     245 -> 247        0.64751
     246 -> 248       -0.26046

 Excited State   3:      Singlet-A      3.4251 eV  361.99 nm  f=0.0058  <S**2>=0.000
     241 -> 247        0.14212
     244 -> 247        0.66825
     244 -> 249       -0.10277

 Excited State   4:      Singlet-A      3.5273 eV  351.50 nm  f=0.0436  <S**2>=0.000
     240 -> 247        0.48429
     240 -> 248       -0.17986
     240 -> 249        0.34438
     240 -> 250        0.13714
     241 -> 247        0.13873
     246 -> 248       -0.18954

 Excited State   5:      Singlet-A      3.6365 eV  340.94 nm  f=0.5704  <S**2>=0.000
     239 -> 247        0.15405
     240 -> 247        0.19944
     240 -> 249        0.11861
     241 -> 247       -0.13809
     245 -> 247        0.22653
     246 -> 248        0.57619
     245 <- 247       -0.10173

 The electronic state is 1-A.
 Alpha  occ. eigenvalues --  -46.94617 -19.30358 -19.29896 -19.25762 -19.24959
 Alpha  occ. eigenvalues --  -19.24092 -19.22825 -14.46914 -14.46071 -14.44773
 Alpha  occ. eigenvalues --  -14.42698 -10.43611 -10.42596 -10.40332 -10.38152
 Alpha  occ. eigenvalues --  -10.35776 -10.35671 -10.35548 -10.34999 -10.34856
 Alpha  occ. eigenvalues --  -10.34485 -10.34297 -10.34047 -10.33840 -10.32630
 Alpha  occ. eigenvalues --  -10.32275 -10.31993 -10.31988 -10.31895 -10.31831
 Alpha  occ. eigenvalues --  -10.31684 -10.31650 -10.31513 -10.31351 -10.31325
 Alpha  occ. eigenvalues --  -10.31250 -10.31073 -10.30917 -10.30782 -10.30633
 Alpha  occ. eigenvalues --  -10.30563 -10.30395 -10.30310 -10.30093 -10.30016
 Alpha  occ. eigenvalues --  -10.29963 -10.29732 -10.29575 -10.29504 -10.29369
 Alpha  occ. eigenvalues --  -10.29355 -10.29300 -10.29244 -10.29116 -10.29104
 Alpha  occ. eigenvalues --  -10.29049 -10.28843 -10.28831 -10.28579 -10.28453
 Alpha  occ. eigenvalues --  -10.28434 -10.28228 -10.28188 -10.28056 -10.27950
 Alpha  occ. eigenvalues --  -10.27490  -3.20662  -1.94273  -1.93765  -1.93662
 Alpha  occ. eigenvalues --   -1.19863  -1.17924  -1.13485  -1.10362  -1.09972
 Alpha  occ. eigenvalues --   -1.09710  -1.07653  -1.06699  -1.06049  -1.04304
 Alpha  occ. eigenvalues --   -0.94262  -0.92609  -0.91623  -0.91458  -0.91026
 Alpha  occ. eigenvalues --   -0.90556  -0.90497  -0.90175  -0.89634  -0.89054
 Alpha  occ. eigenvalues --   -0.87910  -0.86838  -0.86236  -0.85427  -0.85267
 Alpha  occ. eigenvalues --   -0.84699  -0.84030  -0.83256  -0.82834  -0.82591
 Alpha  occ. eigenvalues --   -0.81907  -0.81149  -0.79497  -0.79186  -0.78062
 Alpha  occ. eigenvalues --   -0.77798  -0.76870  -0.76828  -0.76596  -0.76017
 Alpha  occ. eigenvalues --   -0.75218  -0.74249  -0.73366  -0.72666  -0.71108
 Alpha  occ. eigenvalues --   -0.70261  -0.70001  -0.69166  -0.68551  -0.67874
 Alpha  occ. eigenvalues --   -0.67676  -0.67527  -0.66687  -0.66619  -0.66341
 Alpha  occ. eigenvalues --   -0.65124  -0.64966  -0.64109  -0.64053  -0.62994
 Alpha  occ. eigenvalues --   -0.62236  -0.61419  -0.61322  -0.60311  -0.59801
 Alpha  occ. eigenvalues --   -0.59615  -0.58884  -0.58493  -0.58252  -0.57434
 Alpha  occ. eigenvalues --   -0.56893  -0.56748  -0.56458  -0.56245  -0.55795
 Alpha  occ. eigenvalues --   -0.55721  -0.55479  -0.55450  -0.55256  -0.55164
 Alpha  occ. eigenvalues --   -0.54937  -0.54643  -0.54490  -0.54013  -0.53621
 Alpha  occ. eigenvalues --   -0.53370  -0.53094  -0.52985  -0.52871  -0.52495
 Alpha  occ. eigenvalues --   -0.52307  -0.52243  -0.52039  -0.51901  -0.51671
 Alpha  occ. eigenvalues --   -0.51506  -0.51234  -0.51227  -0.50926  -0.50809
 Alpha  occ. eigenvalues --   -0.50386  -0.50340  -0.50219  -0.49806  -0.49777
 Alpha  occ. eigenvalues --   -0.49679  -0.49566  -0.49039  -0.48549  -0.48300
 Alpha  occ. eigenvalues --   -0.48173  -0.48020  -0.47915  -0.47859  -0.47525
 Alpha  occ. eigenvalues --   -0.47398  -0.47268  -0.47002  -0.46861  -0.46559
 Alpha  occ. eigenvalues --   -0.46380  -0.46332  -0.46147  -0.45997  -0.45849
 Alpha  occ. eigenvalues --   -0.45785  -0.45563  -0.45326  -0.45256  -0.45054
 Alpha  occ. eigenvalues --   -0.44887  -0.44517  -0.44512  -0.44193  -0.43952
 Alpha  occ. eigenvalues --   -0.43746  -0.43395  -0.43290  -0.43177  -0.42944
 Alpha  occ. eigenvalues --   -0.42786  -0.42611  -0.42303  -0.42205  -0.41902
 Alpha  occ. eigenvalues --   -0.41751  -0.41514  -0.41335  -0.41228  -0.40801
 Alpha  occ. eigenvalues --   -0.40446  -0.39842  -0.39588  -0.39472  -0.39108
 Alpha  occ. eigenvalues --   -0.38983  -0.38708  -0.38593  -0.38404  -0.38125
 Alpha  occ. eigenvalues --   -0.37805  -0.37718  -0.37201  -0.36680  -0.36438
 Alpha  occ. eigenvalues --   -0.36078  -0.35718  -0.35465  -0.34473  -0.33678
 Alpha  occ. eigenvalues --   -0.32917  -0.32437  -0.31966  -0.30668  -0.25854
 Alpha  occ. eigenvalues --   -0.23205
 Alpha virt. eigenvalues --   -0.06844   0.00478   0.02155   0.04414   0.06559
 Alpha virt. eigenvalues --    0.06721   0.07143   0.08376   0.08430   0.08826
 Alpha virt. eigenvalues --    0.10716   0.11420   0.11455   0.12166   0.12295

 Mulliken charges:
               1
     1  Mg   0.981617
     2  C    0.007678
     3  C   -0.117974
     4  C   -0.053943
     5  C   -0.063359
     6  N   -0.347894
     7  C    0.034814
     8  C   -0.098088
     9  C   -0.093966
    10  C    0.099080
    11  C    0.003443
    12  C    0.023429
    13  C   -0.005538
    14  C    0.192797
    15  O   -0.243946
    16  O   -0.388742
    17  N   -0.499500
    18  C    0.192928
    19  C   -0.186427
    20  C   -0.042615
    21  C    0.165252
    22  C    0.050542
    23  C    0.068606
    24  O   -0.217682
    25  C   -0.010987
    26  N   -0.303585
    27  C   -0.019979
    28  C   -0.118222
    29  C   -0.086997
    30  C    0.113267
    31  C    0.051725
    32  C   -0.032840
    33  C   -0.018506
    34  N   -0.411851
    35  C    0.072436
    36  C   -0.212826
    37  C   -0.016455
    38  C    0.096482
    39  C    0.084358
    40  C    0.104284
    41  O   -0.233033
    42  C   -0.062494
    43  C    0.227157
    44  O   -0.232056
    45  O   -0.326865
    46  C    0.137247
    47  C    0.287864
    48  C   -0.169528
    49  C   -0.181198
    50  C    0.046874
    51  C    0.016157
    52  C   -0.085787
    53  C    0.047017
    54  C   -0.154653
    55  C   -0.002649
    56  C    0.004911
    57  C   -0.037712
    58  C   -0.005988
    59  C   -0.185185
    60  C    0.014389
    61  C   -0.000420
    62  C   -0.029260
    63  C    0.031144
    64  C   -0.244593
    65  C   -0.025639
    66  C    0.029038
    67  H   -0.015080
    68  H    0.019341
    69  H   -0.005497
    70  H    0.063161
    71  H    0.035342
    72  H    0.029848
    73  H    0.037298
    74  H    0.052690
    75  H    0.046408
    76  H    0.039791
    77  H    0.067160
    78  H    0.044097
    79  H    0.027471
    80  H    0.071911
    81  H    0.072675
    82  H    0.021025
    83  H    0.054447
    84  H    0.068302
    85  H    0.035676
    86  H    0.023571
    87  H    0.043853
    88  H    0.039168
    89  H    0.041042
    90  H    0.023904
    91  H    0.029767
    92  H    0.024000
    93  H    0.045494
    94  H    0.028406
    95  H    0.058551
    96  H    0.022778
    97  H    0.058476
    98  H    0.074361
    99  H    0.057478
   100  H    0.063414
   101  H    0.053763
   102  H    0.043471
   103  H    0.040304
   104  H    0.012755
   105  H    0.051565
   106  H    0.045676
   107  H    0.025900
   108  H    0.020363
   109  H    0.038237
   110  H    0.020757
   111  H    0.039374
   112  H    0.011432
   113  H    0.012669
   114  H    0.031736
   115  H    0.008884
   116  H    0.033242
   117  H    0.027505
   118  H    0.016456
   119  H    0.010904
   120  H    0.015698
   121  H    0.015172
   122  H    0.010043
   123  H    0.012628
   124  H    0.016960
   125  H    0.029928
   126  H    0.023467
   127  H    0.026637
   128  H    0.027723
   129  H    0.015489
   130  H    0.020734
   131  H    0.019171
   132  H    0.014799
   133  H    0.008164
   134  H    0.012633
   135  H    0.019596
   136  H    0.037087
   137  H    0.032041
   138  H    0.033438
   139  H    0.016773
   140  H    0.030944
 Sum of Mulliken charges =  -0.00000

 Dipole moment (field-independent basis, Debye):
    X=              5.6693    Y=              4.3361    Z=             -3.2707  Tot=              7.8512
 Quadrupole moment (field-independent basis, Debye-Ang):
   XX=           -388.8126   YY=           -416.6621   ZZ=           -404.3204
   XY=            -31.5114   XZ=              1.4902   YZ=              5.8607

 Normal termination of Gaussian 16 at Sat Apr 30 04:35:16 2022.
