 Gaussian 16, Revision A.03,
 Gaussian 16:  ES64L-G16RevA.03 25-Dec-2016

 --------------------
 #p ZINDO=(nstates=5)
 --------------------

 ----------------------------
 step_551_chromophore_6 ZINDO
 ----------------------------
 Symbolic Z-matrix:
 Charge =  0 Multiplicity = 1

                         Standard orientation:
 ---------------------------------------------------------------------
 Center     Atomic      Atomic             Coordinates (Angstroms)
 Number     Number       Type             X           Y           Z
 ---------------------------------------------------------------------
      1         12           0       -5.357845    1.093168   -0.185808
      2          6           0       -4.536417   -2.332735    0.096656
      3          6           0       -2.112671    1.820918   -0.523085
      4          6           0       -6.213786    4.245907    0.101599
      5          6           0       -8.820744    0.139160    0.088831
      6          7           0       -3.590517   -0.124992   -0.116272
      7          6           0       -3.476853   -1.461803   -0.028261
      8          6           0       -2.013071   -1.913432   -0.104815
      9          6           0       -1.285658   -0.579275   -0.206929
     10          6           0       -2.385103    0.459005   -0.240326
     11          6           0       -0.285499   -0.336239    0.887097
     12          6           0       -1.611908   -2.883819   -1.350442
     13          6           0       -0.863142   -4.175369   -0.914601
     14          6           0        0.293928   -3.987530    0.090711
     15          8           0        0.405901   -4.443640    1.208893
     16          8           0        1.323280   -3.270568   -0.534058
     17          7           0       -4.317962    2.765387   -0.239318
     18          6           0       -3.004391    2.867214   -0.431077
     19          6           0       -2.634439    4.288233   -0.407463
     20          6           0       -3.803823    5.051962   -0.318213
     21          6           0       -4.828514    4.044132   -0.179259
     22          6           0       -1.181712    4.806787   -0.541159
     23          6           0       -4.132163    6.539814   -0.265278
     24          8           0       -5.239952    7.033403   -0.130398
     25          6           0       -3.013230    7.549647   -0.412506
     26          7           0       -7.330281    2.113331   -0.070006
     27          6           0       -7.358216    3.404534    0.115236
     28          6           0       -8.816617    3.846815    0.555875
     29          6           0       -9.634262    2.526010    0.140105
     30          6           0       -8.563234    1.507229    0.020005
     31          6           0       -8.895096    4.243124    2.023163
     32          6           0      -10.315048    2.831187   -1.225523
     33          6           0      -11.230170    1.744570   -1.756133
     34          7           0       -6.533408   -0.698697    0.012914
     35          6           0       -7.873936   -0.921894    0.108628
     36          6           0       -8.103254   -2.330640    0.294243
     37          6           0       -6.819371   -2.934665    0.246892
     38          6           0       -5.929805   -1.926943    0.043069
     39          6           0       -9.447251   -3.044983    0.479748
     40          6           0       -6.094318   -4.188058    0.325786
     41          8           0       -6.526157   -5.336945    0.539422
     42          6           0       -4.605948   -3.841410    0.130155
     43          6           0       -3.738885   -4.504962    1.213701
     44          8           0       -3.443560   -3.966969    2.255659
     45          8           0       -3.330019   -5.714847    0.828498
     46          6           0       -2.614799   -6.431791    1.854264
     47          6           0        2.523331   -3.007780    0.299602
     48          6           0        3.750522   -2.729878   -0.538268
     49          6           0        4.873918   -3.475986   -0.682949
     50          6           0        5.143064   -4.851874   -0.052916
     51          6           0        5.879744   -3.030856   -1.734711
     52          6           0        7.354825   -2.949515   -1.292561
     53          6           0        8.192947   -1.890124   -2.096056
     54          6           0        8.581256   -0.716140   -1.273172
     55          6           0        7.800543    0.502267   -1.830398
     56          6           0       10.149332   -0.300674   -1.265451
     57          6           0       10.800557   -0.396466    0.181969
     58          6           0       12.126137   -1.056347    0.129373
     59          6           0       13.336256   -0.144646   -0.174508
     60          6           0       14.499226   -0.957950   -0.838313
     61          6           0       13.812328    0.553307    1.148634
     62          6           0       14.466034    1.977806    0.834015
     63          6           0       14.100178    3.104884    1.770762
     64          6           0       13.653312    4.453886    1.108025
     65          6           0       12.114394    4.620380    1.014245
     66          6           0       14.211107    5.784108    1.574936
     67          1           0       -1.086706    2.146033   -0.708571
     68          1           0       -6.628667    5.244227    0.254639
     69          1           0       -9.802815   -0.256157    0.356011
     70          1           0       -1.615478   -2.473357    0.742418
     71          1           0       -0.706444   -0.427621   -1.116775
     72          1           0       -0.945134    0.149410    1.606348
     73          1           0        0.515641    0.330896    0.569803
     74          1           0        0.087119   -1.187776    1.456712
     75          1           0       -0.941058   -2.414242   -2.070778
     76          1           0       -2.522949   -3.190356   -1.863919
     77          1           0       -0.464272   -4.742947   -1.754482
     78          1           0       -1.566278   -4.791744   -0.353792
     79          1           0       -0.418557    4.035883   -0.642514
     80          1           0       -0.921317    5.230169    0.428581
     81          1           0       -1.079445    5.443030   -1.420350
     82          1           0       -2.143271    7.022330   -0.020686
     83          1           0       -3.210780    8.483190    0.113499
     84          1           0       -2.841524    7.918546   -1.424366
     85          1           0       -9.031604    4.762224    0.004561
     86          1           0      -10.445049    2.216959    0.800346
     87          1           0       -9.125507    5.306934    2.082910
     88          1           0       -7.915696    4.097961    2.478408
     89          1           0       -9.634141    3.589741    2.487857
     90          1           0       -9.502315    3.024032   -1.926177
     91          1           0      -10.923079    3.735180   -1.195258
     92          1           0      -11.547618    1.029718   -0.997153
     93          1           0      -10.756666    1.245374   -2.600890
     94          1           0      -12.154704    2.230254   -2.071892
     95          1           0       -9.625617   -3.501272   -0.494505
     96          1           0      -10.250790   -2.366417    0.765439
     97          1           0       -9.398433   -3.802032    1.261582
     98          1           0       -4.353093   -4.261815   -0.842771
     99          1           0       -2.021423   -7.201190    1.359709
    100          1           0       -3.237358   -6.679987    2.714756
    101          1           0       -1.887408   -5.743974    2.285494
    102          1           0        2.714883   -3.824278    0.996025
    103          1           0        2.451982   -2.055713    0.825314
    104          1           0        3.773263   -1.819913   -1.137920
    105          1           0        5.266892   -5.656895   -0.777166
    106          1           0        4.507117   -5.122724    0.789671
    107          1           0        6.150730   -4.662240    0.316719
    108          1           0        5.644113   -2.065254   -2.182568
    109          1           0        5.867633   -3.789374   -2.518189
    110          1           0        7.753064   -3.912505   -1.611736
    111          1           0        7.464441   -2.853024   -0.212796
    112          1           0        7.583232   -1.629934   -2.961717
    113          1           0        9.037454   -2.413744   -2.543528
    114          1           0        8.369758   -0.892288   -0.218514
    115          1           0        6.975546    0.227146   -2.487843
    116          1           0        8.401386    1.162119   -2.456742
    117          1           0        7.285524    1.051953   -1.043445
    118          1           0       10.382274    0.713362   -1.591196
    119          1           0       10.759104   -0.815696   -2.007659
    120          1           0       10.174216   -0.939173    0.890228
    121          1           0       10.920415    0.572479    0.667618
    122          1           0       11.952326   -1.816169   -0.632634
    123          1           0       12.240216   -1.578361    1.080321
    124          1           0       13.033822    0.616125   -0.893945
    125          1           0       14.733777   -0.576145   -1.832343
    126          1           0       14.176875   -1.993471   -0.946722
    127          1           0       15.404715   -0.961298   -0.232272
    128          1           0       14.531768   -0.027061    1.726776
    129          1           0       12.933105    0.665734    1.783365
    130          1           0       14.351154    2.215572   -0.223781
    131          1           0       15.546402    1.887167    0.942700
    132          1           0       14.934836    3.281015    2.450332
    133          1           0       13.295300    2.770554    2.425337
    134          1           0       13.940857    4.381617    0.058808
    135          1           0       11.750019    3.723355    0.514380
    136          1           0       11.778601    5.459327    0.404538
    137          1           0       11.793784    4.643438    2.055280
    138          1           0       14.586310    5.612663    2.583933
    139          1           0       13.423464    6.536503    1.573083
    140          1           0       14.877812    6.122628    0.780730
 ---------------------------------------------------------------------

 SCF Done:  E(RZINDO/S) =  -474.534465355     A.U. after   18 cycles

 Excitation energies and oscillator strengths:

 Excited State   1:      Singlet-A      1.4112 eV  878.58 nm  f=0.5327  <S**2>=0.000
     175 ->178         0.15876
     176 ->177         0.67323
 This state for optimization and/or second-order correction.
 Total Energy, E(CIS/TDA) =  -474.482604842
 Copying the excited state density for this state as the 1-particle RhoCI density.

 Excited State   2:      Singlet-A      1.9907 eV  622.81 nm  f=0.0661  <S**2>=0.000
     175 ->177         0.56095
     176 ->178        -0.39112

 Excited State   3:      Singlet-A      2.8530 eV  434.57 nm  f=0.0139  <S**2>=0.000
     167 ->177        -0.25618
     167 ->178         0.11031
     167 ->179         0.37721
     167 ->180        -0.15201
     167 ->186        -0.14716
     168 ->177        -0.21334
     168 ->179         0.29470
     168 ->180        -0.11710
     168 ->186        -0.11579

 Excited State   4:      Singlet-A      3.0569 eV  405.59 nm  f=1.0607  <S**2>=0.000
     175 ->177         0.36869
     176 ->178         0.53205
     176 ->179        -0.10521
     176 ->180        -0.14254

 Excited State   5:      Singlet-A      3.1178 eV  397.67 nm  f=0.0085  <S**2>=0.000
     171 ->177         0.23318
     171 ->178        -0.12776
     171 ->179         0.23545
     171 ->180         0.46381
     171 ->186        -0.19659
     171 ->188        -0.15210
     171 ->189         0.11239
     171 ->205        -0.11821

 The electronic state is 1-A.
 Alpha  occ. eigenvalues --   -1.85301  -1.83461  -1.81770  -1.75192  -1.73519
 Alpha  occ. eigenvalues --   -1.70390  -1.64794  -1.60769  -1.60711  -1.57906
 Alpha  occ. eigenvalues --   -1.56322  -1.50779  -1.47791  -1.47519  -1.46331
 Alpha  occ. eigenvalues --   -1.45316  -1.43256  -1.39990  -1.39841  -1.39519
 Alpha  occ. eigenvalues --   -1.37254  -1.34939  -1.32468  -1.31028  -1.29294
 Alpha  occ. eigenvalues --   -1.28488  -1.25010  -1.22446  -1.20921  -1.18500
 Alpha  occ. eigenvalues --   -1.16740  -1.15306  -1.14486  -1.13783  -1.13399
 Alpha  occ. eigenvalues --   -1.12290  -1.11790  -1.10257  -1.04496  -1.03309
 Alpha  occ. eigenvalues --   -1.03280  -1.00638  -0.99139  -0.97699  -0.96961
 Alpha  occ. eigenvalues --   -0.96214  -0.95471  -0.95225  -0.92551  -0.92150
 Alpha  occ. eigenvalues --   -0.90795  -0.90177  -0.89474  -0.87990  -0.86242
 Alpha  occ. eigenvalues --   -0.86093  -0.83639  -0.83229  -0.81703  -0.80319
 Alpha  occ. eigenvalues --   -0.79480  -0.78975  -0.77565  -0.77061  -0.75936
 Alpha  occ. eigenvalues --   -0.75907  -0.75303  -0.74645  -0.73876  -0.73529
 Alpha  occ. eigenvalues --   -0.73102  -0.72964  -0.72280  -0.71304  -0.71145
 Alpha  occ. eigenvalues --   -0.70034  -0.69423  -0.68466  -0.68254  -0.67864
 Alpha  occ. eigenvalues --   -0.67572  -0.67272  -0.67144  -0.65864  -0.65101
 Alpha  occ. eigenvalues --   -0.64867  -0.64753  -0.64313  -0.64200  -0.63804
 Alpha  occ. eigenvalues --   -0.63444  -0.63179  -0.63073  -0.61735  -0.61533
 Alpha  occ. eigenvalues --   -0.61387  -0.61225  -0.61107  -0.60779  -0.60430
 Alpha  occ. eigenvalues --   -0.59745  -0.59134  -0.58931  -0.58599  -0.58458
 Alpha  occ. eigenvalues --   -0.58291  -0.57988  -0.57354  -0.56848  -0.56471
 Alpha  occ. eigenvalues --   -0.56302  -0.55996  -0.55548  -0.54948  -0.54414
 Alpha  occ. eigenvalues --   -0.54265  -0.53961  -0.53409  -0.52461  -0.52236
 Alpha  occ. eigenvalues --   -0.52023  -0.51744  -0.51693  -0.51319  -0.51196
 Alpha  occ. eigenvalues --   -0.50848  -0.50625  -0.50377  -0.50184  -0.49776
 Alpha  occ. eigenvalues --   -0.49472  -0.49452  -0.49355  -0.49271  -0.48915
 Alpha  occ. eigenvalues --   -0.48589  -0.48000  -0.47855  -0.47461  -0.47344
 Alpha  occ. eigenvalues --   -0.47120  -0.47027  -0.46782  -0.46493  -0.46355
 Alpha  occ. eigenvalues --   -0.46265  -0.45924  -0.45735  -0.45677  -0.45454
 Alpha  occ. eigenvalues --   -0.45082  -0.44915  -0.44549  -0.43788  -0.43672
 Alpha  occ. eigenvalues --   -0.43466  -0.43072  -0.42798  -0.42364  -0.42094
 Alpha  occ. eigenvalues --   -0.41973  -0.41493  -0.40898  -0.39097  -0.38961
 Alpha  occ. eigenvalues --   -0.37401  -0.36628  -0.36183  -0.35544  -0.34590
 Alpha  occ. eigenvalues --   -0.33946  -0.32622  -0.32349  -0.30846  -0.26665
 Alpha  occ. eigenvalues --   -0.22082
 Alpha virt. eigenvalues --   -0.08130  -0.01704  -0.00765   0.01549   0.02058
 Alpha virt. eigenvalues --    0.03105   0.03173   0.03789   0.04369   0.04812
 Alpha virt. eigenvalues --    0.05753   0.06565   0.06789   0.07796   0.08353

 Mulliken charges:
               1
     1  Mg   0.423661
     2  C   -0.033210
     3  C   -0.104962
     4  C   -0.080526
     5  C   -0.058229
     6  N   -0.267418
     7  C    0.098600
     8  C   -0.003903
     9  C    0.012184
    10  C    0.183526
    11  C   -0.055416
    12  C   -0.030907
    13  C    0.000045
    14  C    0.464177
    15  O   -0.500264
    16  O   -0.284420
    17  N   -0.324653
    18  C    0.156661
    19  C    0.029911
    20  C   -0.026485
    21  C    0.148938
    22  C   -0.047333
    23  C    0.335489
    24  O   -0.503423
    25  C   -0.036046
    26  N   -0.258432
    27  C    0.172522
    28  C   -0.001420
    29  C    0.008493
    30  C    0.090053
    31  C   -0.048898
    32  C   -0.027417
    33  C   -0.057462
    34  N   -0.330660
    35  C    0.064368
    36  C   -0.008002
    37  C   -0.057768
    38  C    0.083920
    39  C   -0.042880
    40  C    0.332415
    41  O   -0.545439
    42  C    0.059244
    43  C    0.490109
    44  O   -0.522521
    45  O   -0.253178
    46  C    0.070598
    47  C    0.103793
    48  C   -0.097095
    49  C   -0.006479
    50  C   -0.047727
    51  C   -0.021402
    52  C   -0.041947
    53  C   -0.026486
    54  C   -0.001575
    55  C   -0.058925
    56  C   -0.049599
    57  C   -0.037725
    58  C   -0.030801
    59  C   -0.009049
    60  C   -0.061886
    61  C   -0.036166
    62  C   -0.038657
    63  C   -0.023754
    64  C   -0.020676
    65  C   -0.058007
    66  C   -0.057060
    67  H    0.027285
    68  H    0.038287
    69  H    0.030090
    70  H    0.052915
    71  H    0.024364
    72  H    0.016697
    73  H    0.019370
    74  H    0.035610
    75  H    0.026200
    76  H    0.024021
    77  H    0.043725
    78  H    0.040624
    79  H    0.021919
    80  H    0.037015
    81  H    0.037410
    82  H    0.023987
    83  H    0.041795
    84  H    0.046120
    85  H    0.032429
    86  H    0.031693
    87  H    0.024905
    88  H    0.024826
    89  H    0.027118
    90  H    0.019031
    91  H    0.015045
    92  H    0.022059
    93  H    0.023941
    94  H    0.012200
    95  H    0.032648
    96  H    0.018279
    97  H    0.033963
    98  H    0.053564
    99  H    0.035384
   100  H    0.056137
   101  H    0.040207
   102  H    0.057511
   103  H    0.040915
   104  H    0.025523
   105  H    0.034933
   106  H    0.033104
   107  H    0.021341
   108  H    0.022368
   109  H    0.024938
   110  H    0.010854
   111  H    0.028752
   112  H    0.019742
   113  H    0.012965
   114  H    0.030362
   115  H    0.009486
   116  H    0.022769
   117  H    0.013586
   118  H    0.016216
   119  H    0.022433
   120  H    0.013011
   121  H    0.015086
   122  H    0.013556
   123  H    0.012030
   124  H    0.025239
   125  H    0.017965
   126  H    0.017067
   127  H    0.020523
   128  H    0.024875
   129  H    0.018223
   130  H    0.024211
   131  H    0.010203
   132  H    0.015399
   133  H    0.015300
   134  H    0.006340
   135  H    0.006281
   136  H    0.023745
   137  H    0.022260
   138  H    0.028363
   139  H    0.016433
   140  H    0.022813
 Sum of Mulliken charges =   0.00000

 Dipole moment (field-independent basis, Debye):
    X=              8.4222    Y=              8.1221    Z=             -5.1468  Tot=             12.7825
 N-N= 4.277443460851D+03 E-N= 0.000000000000D+00  KE=-9.229629237837D+03
 Leave Link  601 at Sat Apr 30 04:46:32 2022, MaxMem=  6710886400 cpu:               0.8 elap:               0.1
 (Enter /sw/apps/gaussian-16.0/g16/l9999.exe)
 1\1\GINC-BP1-COMPUTE139\SP\RZINDO CIS\STO-3G\C55H74Mg1N4O6\OF15641\30-
 Apr-2022\0\\#p ZINDO=(nstates=5)\\step_551_chromophore_6 ZINDO\\0,1\Mg
 ,0,16.863,-2.81,27.557\C,0,16.01,-0.635,30.209\C,0,18.662,-4.66,29.682
 \C,0,17.992,-4.416,24.93\C,0,14.804,-0.774,25.414\N,0,17.322,-2.577,29
 .642\C,0,16.863,-1.67,30.522\C,0,17.389,-1.936,31.938\C,0,18.284,-3.14
 7,31.71\C,0,18.128,-3.472,30.241\C,0,19.716,-2.941,32.114\C,0,16.275,-
 2.252,33.084\C,0,16.426,-1.37,34.356\C,0,17.853,-1.241,34.932\O,0,18.5

 Normal termination of Gaussian 16 at Sat Apr 30 04:46:32 2022.
