 Gaussian 16, Revision A.03,
 Gaussian 16:  ES64L-G16RevA.03 25-Dec-2016

 ------------------------------
 #p blyp/Def2SVP td=(nstates=5)
 ------------------------------

 ---------------------------------------------------
 step_1851_chromophore_16 TDDFT with blyp functional
 ---------------------------------------------------
 Symbolic Z-matrix:
 Charge =  0 Multiplicity = 1

                         Standard orientation:
 ---------------------------------------------------------------------
 Center     Atomic      Atomic             Coordinates (Angstroms)
 Number     Number       Type             X           Y           Z
 ---------------------------------------------------------------------
      1         12           0        6.335320    0.661272    0.148906
      2          6           0        4.003634   -2.020231   -0.100335
      3          6           0        3.795323    2.852458   -0.909572
      4          6           0        8.544601    3.082301    0.160905
      5          6           0        8.887614   -1.698125    0.588564
      6          7           0        4.245691    0.442315   -0.395882
      7          6           0        3.502637   -0.693063   -0.377840
      8          6           0        2.012504   -0.436222   -0.699643
      9          6           0        1.953387    1.061482   -0.952225
     10          6           0        3.445808    1.546186   -0.757525
     11          6           0        1.352245    1.522119   -2.320133
     12          6           0        0.987565   -0.991811    0.239489
     13          6           0       -0.259751   -1.499338   -0.438422
     14          6           0       -1.266197   -2.421760    0.293833
     15          8           0       -0.976383   -3.173122    1.208032
     16          8           0       -2.501526   -2.311804   -0.207052
     17          7           0        6.254828    2.675412   -0.346689
     18          6           0        5.131556    3.395717   -0.680343
     19          6           0        5.544352    4.774458   -0.749670
     20          6           0        6.907363    4.885840   -0.371187
     21          6           0        7.272634    3.455859   -0.288777
     22          6           0        4.542370    5.896540   -0.968938
     23          6           0        7.684552    6.165261   -0.186823
     24          8           0        8.863636    6.071330    0.094852
     25          6           0        7.029242    7.573670   -0.300092
     26          7           0        8.327465    0.647133    0.157142
     27          6           0        9.062181    1.845188    0.373388
     28          6           0       10.588200    1.618730    0.757682
     29          6           0       10.630043    0.056425    0.711350
     30          6           0        9.226366   -0.359149    0.451568
     31          6           0       11.606889    2.211824   -0.161244
     32          6           0       11.328856   -0.540050    1.952620
     33          6           0       10.458797   -0.671822    3.219050
     34          7           0        6.440862   -1.436287    0.395881
     35          6           0        7.566867   -2.240570    0.500981
     36          6           0        7.111947   -3.600193    0.557774
     37          6           0        5.737898   -3.551694    0.396033
     38          6           0        5.381242   -2.229736    0.181651
     39          6           0        7.972407   -4.742466    0.647423
     40          6           0        4.554018   -4.422552    0.372216
     41          8           0        4.519548   -5.630730    0.559150
     42          6           0        3.374562   -3.383124    0.102510
     43          6           0        2.679815   -3.986350   -1.098416
     44          8           0        2.913039   -3.687512   -2.266703
     45          8           0        1.726472   -4.870514   -0.580593
     46          6           0        0.886402   -5.444649   -1.600259
     47          6           0       -3.589391   -3.015512    0.457616
     48          6           0       -4.803218   -2.434111   -0.176595
     49          6           0       -6.000782   -2.925581   -0.310893
     50          6           0       -6.530611   -4.266155    0.269999
     51          6           0       -7.165234   -2.204150   -0.933686
     52          6           0       -7.663822   -0.750548   -0.263337
     53          6           0       -9.220464   -0.492198   -0.463508
     54          6           0       -9.466380    0.876709   -1.109962
     55          6           0       -9.501671    1.972919    0.008921
     56          6           0      -10.740785    0.939479   -1.920269
     57          6           0      -12.004185    0.850957   -1.087966
     58          6           0      -13.149149    1.448013   -1.795706
     59          6           0      -14.533482    0.924964   -1.380678
     60          6           0      -15.249040    0.050955   -2.468144
     61          6           0      -15.483905    1.952047   -0.711427
     62          6           0      -15.779171    1.685449    0.750230
     63          6           0      -14.711203    2.163962    1.739092
     64          6           0      -14.959548    1.594487    3.147632
     65          6           0      -13.670191    1.457414    3.971557
     66          6           0      -16.102869    2.440623    3.950247
     67          1           0        3.039903    3.604898   -1.144858
     68          1           0        9.322668    3.834869    0.299152
     69          1           0        9.707115   -2.411902    0.688274
     70          1           0        1.988061   -0.864424   -1.701978
     71          1           0        1.335449    1.585394   -0.222729
     72          1           0        1.964732    2.312705   -2.754151
     73          1           0        0.346495    1.831301   -2.034559
     74          1           0        1.308035    0.667041   -2.994142
     75          1           0        0.641292   -0.174294    0.872787
     76          1           0        1.322512   -1.789396    0.901727
     77          1           0       -0.005054   -1.973391   -1.385868
     78          1           0       -0.759894   -0.572026   -0.716177
     79          1           0        4.453098    6.545667   -0.098363
     80          1           0        3.524988    5.610879   -1.236202
     81          1           0        4.755919    6.494126   -1.856207
     82          1           0        6.506515    7.799550   -1.229011
     83          1           0        7.738114    8.378338   -0.100106
     84          1           0        6.269276    7.535563    0.480272
     85          1           0       10.753045    2.040244    1.749789
     86          1           0       11.074533   -0.399095   -0.173589
     87          1           0       12.129313    2.986315    0.401222
     88          1           0       11.010395    2.692981   -0.937004
     89          1           0       12.293216    1.470631   -0.571563
     90          1           0       12.005259    0.276908    2.201409
     91          1           0       11.784548   -1.462289    1.592024
     92          1           0       10.736833   -1.662648    3.577620
     93          1           0        9.381512   -0.645083    3.055320
     94          1           0       10.852244    0.104935    3.874900
     95          1           0        8.719724   -4.541941    1.414380
     96          1           0        8.427156   -4.999884   -0.309161
     97          1           0        7.484107   -5.639174    1.030775
     98          1           0        2.734387   -3.424229    0.982894
     99          1           0        1.366239   -5.493730   -2.578067
    100          1           0        0.018450   -4.817848   -1.804475
    101          1           0        0.577563   -6.420137   -1.224467
    102          1           0       -3.578227   -2.916092    1.542845
    103          1           0       -3.642763   -4.080590    0.229487
    104          1           0       -4.668606   -1.428183   -0.573841
    105          1           0       -7.272871   -3.971761    1.012119
    106          1           0       -5.768330   -4.892218    0.733480
    107          1           0       -7.054334   -4.832504   -0.500489
    108          1           0       -8.013487   -2.847853   -1.169853
    109          1           0       -6.868352   -1.865110   -1.926681
    110          1           0       -7.056179    0.035509   -0.709846
    111          1           0       -7.431037   -0.821842    0.798815
    112          1           0       -9.727657   -0.419372    0.498685
    113          1           0       -9.785209   -1.278369   -0.965621
    114          1           0       -8.574829    1.086705   -1.700259
    115          1           0      -10.151122    2.808141   -0.252320
    116          1           0       -8.523701    2.403817    0.221032
    117          1           0       -9.904542    1.506446    0.907491
    118          1           0      -10.826880    0.034525   -2.521045
    119          1           0      -10.775158    1.835743   -2.539180
    120          1           0      -11.850203    1.457314   -0.194855
    121          1           0      -12.185107   -0.157657   -0.716140
    122          1           0      -12.977938    1.303295   -2.861896
    123          1           0      -13.186127    2.524512   -1.630030
    124          1           0      -14.373887    0.125279   -0.658169
    125          1           0      -16.005499    0.635427   -2.991494
    126          1           0      -15.857800   -0.737799   -2.024548
    127          1           0      -14.524889   -0.421469   -3.130844
    128          1           0      -16.443465    1.903938   -1.224945
    129          1           0      -15.113932    2.976826   -0.767258
    130          1           0      -15.816780    0.612518    0.941218
    131          1           0      -16.766114    2.026620    1.065587
    132          1           0      -14.655036    3.252330    1.718642
    133          1           0      -13.758599    1.795262    1.358009
    134          1           0      -15.347990    0.580095    3.065637
    135          1           0      -13.031794    2.300694    3.706128
    136          1           0      -13.177882    0.545785    3.630703
    137          1           0      -13.733269    1.427355    5.058870
    138          1           0      -15.662296    2.836766    4.865931
    139          1           0      -16.997823    1.848336    4.138331
    140          1           0      -16.459050    3.225019    3.282613
 ---------------------------------------------------------------------

 SCF Done:  E(RB-LYP) =  -3007.38450671     A.U. after   19 cycles

 Excitation energies and oscillator strengths:

 Excited State   1:      Singlet-A      1.7520 eV  707.68 nm  f=0.3175  <S**2>=0.000
     244 -> 247        0.14383
     245 -> 248       -0.15267
     246 -> 247        0.68790
     246 <- 247       -0.16638
 This state for optimization and/or second-order correction.
 Total Energy, E(TD-HF/TD-DFT) =  -3007.32012284
 Copying the excited state density for this state as the 1-particle RhoCI density.

 Excited State   2:      Singlet-A      1.8492 eV  670.49 nm  f=0.0174  <S**2>=0.000
     244 -> 247        0.69172
     246 -> 247       -0.14101

 Excited State   3:      Singlet-A      1.9900 eV  623.03 nm  f=0.0247  <S**2>=0.000
     243 -> 247        0.59155
     245 -> 247        0.36580
     246 -> 248        0.10359

 Excited State   4:      Singlet-A      2.0627 eV  601.08 nm  f=0.0692  <S**2>=0.000
     242 -> 247        0.12631
     243 -> 247       -0.37759
     245 -> 247        0.54153
     246 -> 248        0.19267

 Excited State   5:      Singlet-A      2.4342 eV  509.34 nm  f=0.0002  <S**2>=0.000
     240 -> 247        0.69048
     241 -> 247        0.14602

 The electronic state is 1-A.
 Alpha  occ. eigenvalues --  -46.25921 -18.82884 -18.81962 -18.77484 -18.76774
 Alpha  occ. eigenvalues --  -18.76384 -18.75146 -14.03686 -14.02965 -14.00955
 Alpha  occ. eigenvalues --  -14.00131 -10.04429 -10.04067 -10.00010  -9.99934
 Alpha  occ. eigenvalues --   -9.98592  -9.97436  -9.96789  -9.96331  -9.96101
 Alpha  occ. eigenvalues --   -9.95600  -9.95301  -9.95256  -9.95020  -9.94247
 Alpha  occ. eigenvalues --   -9.93890  -9.93869  -9.93671  -9.93638  -9.93581
 Alpha  occ. eigenvalues --   -9.93495  -9.93210  -9.93085  -9.93017  -9.93011
 Alpha  occ. eigenvalues --   -9.92844  -9.92756  -9.92689  -9.92603  -9.92568
 Alpha  occ. eigenvalues --   -9.92556  -9.92508  -9.92466  -9.92383  -9.92244
 Alpha  occ. eigenvalues --   -9.92159  -9.91890  -9.91850  -9.91772  -9.91747
 Alpha  occ. eigenvalues --   -9.91608  -9.91530  -9.91465  -9.91196  -9.91086
 Alpha  occ. eigenvalues --   -9.91079  -9.91047  -9.91039  -9.90970  -9.90961
 Alpha  occ. eigenvalues --   -9.90824  -9.90818  -9.90816  -9.90575  -9.90498
 Alpha  occ. eigenvalues --   -9.90145  -2.90809  -1.71226  -1.70680  -1.70536
 Alpha  occ. eigenvalues --   -0.99364  -0.97043  -0.91647  -0.91548  -0.90379
 Alpha  occ. eigenvalues --   -0.90244  -0.87217  -0.86142  -0.84917  -0.84333
 Alpha  occ. eigenvalues --   -0.75102  -0.74212  -0.73926  -0.73391  -0.73044
 Alpha  occ. eigenvalues --   -0.72561  -0.71846  -0.70920  -0.70806  -0.70505
 Alpha  occ. eigenvalues --   -0.69902  -0.69340  -0.68258  -0.67586  -0.67387
 Alpha  occ. eigenvalues --   -0.66824  -0.65412  -0.65151  -0.64826  -0.64076
 Alpha  occ. eigenvalues --   -0.63833  -0.62519  -0.62424  -0.62026  -0.60492
 Alpha  occ. eigenvalues --   -0.60210  -0.59887  -0.59840  -0.59703  -0.59263
 Alpha  occ. eigenvalues --   -0.58788  -0.57652  -0.56131  -0.55646  -0.54803
 Alpha  occ. eigenvalues --   -0.54475  -0.53555  -0.52982  -0.52546  -0.51643
 Alpha  occ. eigenvalues --   -0.51127  -0.50868  -0.50792  -0.50597  -0.50123
 Alpha  occ. eigenvalues --   -0.49543  -0.49169  -0.48250  -0.48195  -0.46940
 Alpha  occ. eigenvalues --   -0.46659  -0.45850  -0.45383  -0.44870  -0.44475
 Alpha  occ. eigenvalues --   -0.43963  -0.43554  -0.42922  -0.42752  -0.42592
 Alpha  occ. eigenvalues --   -0.42469  -0.41924  -0.41719  -0.41535  -0.41177
 Alpha  occ. eigenvalues --   -0.41110  -0.40881  -0.40595  -0.40434  -0.40209
 Alpha  occ. eigenvalues --   -0.40016  -0.39881  -0.39575  -0.39415  -0.39269
 Alpha  occ. eigenvalues --   -0.39007  -0.38792  -0.38679  -0.38443  -0.38275
 Alpha  occ. eigenvalues --   -0.38093  -0.37846  -0.37643  -0.37504  -0.37284
 Alpha  occ. eigenvalues --   -0.37162  -0.37049  -0.36965  -0.36852  -0.36804
 Alpha  occ. eigenvalues --   -0.36479  -0.36363  -0.36157  -0.35848  -0.35762
 Alpha  occ. eigenvalues --   -0.35635  -0.35119  -0.35032  -0.34952  -0.34551
 Alpha  occ. eigenvalues --   -0.34287  -0.34229  -0.34157  -0.33877  -0.33831
 Alpha  occ. eigenvalues --   -0.33555  -0.33294  -0.33201  -0.33176  -0.32948
 Alpha  occ. eigenvalues --   -0.32854  -0.32772  -0.32658  -0.32443  -0.32360
 Alpha  occ. eigenvalues --   -0.32213  -0.31915  -0.31748  -0.31494  -0.31466
 Alpha  occ. eigenvalues --   -0.31186  -0.31099  -0.31059  -0.30891  -0.30740
 Alpha  occ. eigenvalues --   -0.30722  -0.30513  -0.30442  -0.30285  -0.29942
 Alpha  occ. eigenvalues --   -0.29930  -0.29608  -0.29285  -0.29112  -0.28949
 Alpha  occ. eigenvalues --   -0.28573  -0.28321  -0.28232  -0.28161  -0.27557
 Alpha  occ. eigenvalues --   -0.27143  -0.27140  -0.27036  -0.26680  -0.26627
 Alpha  occ. eigenvalues --   -0.26335  -0.26300  -0.25973  -0.25714  -0.25586
 Alpha  occ. eigenvalues --   -0.25213  -0.25155  -0.24760  -0.24743  -0.23622
 Alpha  occ. eigenvalues --   -0.23257  -0.22520  -0.22089  -0.21917  -0.20636
 Alpha  occ. eigenvalues --   -0.20603  -0.20145  -0.18946  -0.18399  -0.17342
 Alpha  occ. eigenvalues --   -0.15619
 Alpha virt. eigenvalues --   -0.11688  -0.06161  -0.05763  -0.04507  -0.02633
 Alpha virt. eigenvalues --   -0.02409  -0.01977  -0.01352  -0.01182   0.00674
 Alpha virt. eigenvalues --    0.01435   0.01638   0.02343   0.02450   0.02811

 Mulliken charges:
               1
     1  Mg   0.712867
     2  C    0.043900
     3  C   -0.066453
     4  C   -0.075198
     5  C   -0.107357
     6  N   -0.224206
     7  C   -0.090551
     8  C    0.096835
     9  C   -0.077254
    10  C    0.084292
    11  C    0.130241
    12  C    0.176772
    13  C    0.052472
    14  C    0.088177
    15  O   -0.188532
    16  O   -0.244847
    17  N   -0.221820
    18  C    0.080922
    19  C   -0.120623
    20  C    0.009099
    21  C    0.116104
    22  C    0.152371
    23  C   -0.070283
    24  O   -0.158631
    25  C    0.134627
    26  N   -0.300773
    27  C    0.028638
    28  C    0.006518
    29  C    0.028424
    30  C    0.048784
    31  C    0.149539
    32  C    0.070950
    33  C    0.071769
    34  N   -0.254877
    35  C    0.121735
    36  C   -0.167102
    37  C    0.092846
    38  C    0.065864
    39  C    0.168005
    40  C   -0.049058
    41  O   -0.112745
    42  C   -0.015826
    43  C    0.132095
    44  O   -0.180626
    45  O   -0.263895
    46  C    0.215840
    47  C    0.345214
    48  C   -0.134725
    49  C   -0.100142
    50  C    0.122631
    51  C    0.090706
    52  C    0.072978
    53  C    0.090840
    54  C   -0.069634
    55  C    0.096457
    56  C    0.129724
    57  C    0.000165
    58  C    0.159489
    59  C   -0.075704
    60  C    0.086034
    61  C    0.177751
    62  C    0.029796
    63  C    0.092722
    64  C   -0.087003
    65  C    0.103457
    66  C    0.086663
    67  H   -0.057566
    68  H   -0.048283
    69  H   -0.068498
    70  H   -0.015864
    71  H   -0.026295
    72  H   -0.000005
    73  H   -0.009213
    74  H   -0.011053
    75  H   -0.032213
    76  H   -0.008055
    77  H    0.005358
    78  H   -0.016501
    79  H    0.002554
    80  H   -0.033158
    81  H   -0.009742
    82  H    0.004653
    83  H   -0.006102
    84  H   -0.000352
    85  H   -0.014919
    86  H   -0.020924
    87  H   -0.009943
    88  H   -0.000807
    89  H   -0.003403
    90  H   -0.020804
    91  H   -0.012897
    92  H   -0.008347
    93  H    0.023859
    94  H   -0.004902
    95  H   -0.015339
    96  H    0.011823
    97  H   -0.006018
    98  H    0.034920
    99  H    0.011857
   100  H   -0.002394
   101  H    0.021252
   102  H    0.013311
   103  H    0.002864
   104  H   -0.045186
   105  H    0.004301
   106  H   -0.017434
   107  H   -0.000237
   108  H   -0.034252
   109  H   -0.022796
   110  H   -0.008219
   111  H   -0.020180
   112  H   -0.033918
   113  H   -0.029506
   114  H   -0.042940
   115  H   -0.012126
   116  H   -0.020608
   117  H   -0.010108
   118  H   -0.039040
   119  H   -0.029315
   120  H   -0.027317
   121  H   -0.028609
   122  H   -0.044334
   123  H   -0.044454
   124  H   -0.037895
   125  H   -0.019440
   126  H   -0.023608
   127  H   -0.013705
   128  H   -0.048387
   129  H   -0.038990
   130  H   -0.046092
   131  H   -0.041300
   132  H   -0.031491
   133  H   -0.040250
   134  H   -0.036372
   135  H   -0.019140
   136  H   -0.016867
   137  H   -0.014345
   138  H   -0.010390
   139  H   -0.012675
   140  H   -0.018078
 Sum of Mulliken charges =  -0.00000

 Dipole moment (field-independent basis, Debye):
    X=             -3.4110    Y=              2.5024    Z=              0.2432  Tot=              4.2375
 Quadrupole moment (field-independent basis, Debye-Ang):
   XX=           -378.2473   YY=           -424.1152   ZZ=           -411.3933
   XY=              0.2782   XZ=             11.8878   YZ=              2.6431

 Normal termination of Gaussian 16 at Fri Apr 29 03:48:45 2022.
