 Gaussian 16, Revision A.03,
 Gaussian 16:  ES64L-G16RevA.03 25-Dec-2016

 -----------------------------------
 #p cam-b3lyp/Def2SVP td=(nstates=5)
 -----------------------------------

 --------------------------------------------------------
 step_1851_chromophore_16 TDDFT with cam-b3lyp functional
 --------------------------------------------------------
 Symbolic Z-matrix:
 Charge =  0 Multiplicity = 1

                         Standard orientation:
 ---------------------------------------------------------------------
 Center     Atomic      Atomic             Coordinates (Angstroms)
 Number     Number       Type             X           Y           Z
 ---------------------------------------------------------------------
      1         12           0        6.335320    0.661272    0.148906
      2          6           0        4.003634   -2.020231   -0.100335
      3          6           0        3.795323    2.852458   -0.909572
      4          6           0        8.544601    3.082301    0.160905
      5          6           0        8.887614   -1.698125    0.588564
      6          7           0        4.245691    0.442315   -0.395882
      7          6           0        3.502637   -0.693063   -0.377840
      8          6           0        2.012504   -0.436222   -0.699643
      9          6           0        1.953387    1.061482   -0.952225
     10          6           0        3.445808    1.546186   -0.757525
     11          6           0        1.352245    1.522119   -2.320133
     12          6           0        0.987565   -0.991811    0.239489
     13          6           0       -0.259751   -1.499338   -0.438422
     14          6           0       -1.266197   -2.421760    0.293833
     15          8           0       -0.976383   -3.173122    1.208032
     16          8           0       -2.501526   -2.311804   -0.207052
     17          7           0        6.254828    2.675412   -0.346689
     18          6           0        5.131556    3.395717   -0.680343
     19          6           0        5.544352    4.774458   -0.749670
     20          6           0        6.907363    4.885840   -0.371187
     21          6           0        7.272634    3.455859   -0.288777
     22          6           0        4.542370    5.896540   -0.968938
     23          6           0        7.684552    6.165261   -0.186823
     24          8           0        8.863636    6.071330    0.094852
     25          6           0        7.029242    7.573670   -0.300092
     26          7           0        8.327465    0.647133    0.157142
     27          6           0        9.062181    1.845188    0.373388
     28          6           0       10.588200    1.618730    0.757682
     29          6           0       10.630043    0.056425    0.711350
     30          6           0        9.226366   -0.359149    0.451568
     31          6           0       11.606889    2.211824   -0.161244
     32          6           0       11.328856   -0.540050    1.952620
     33          6           0       10.458797   -0.671822    3.219050
     34          7           0        6.440862   -1.436287    0.395881
     35          6           0        7.566867   -2.240570    0.500981
     36          6           0        7.111947   -3.600193    0.557774
     37          6           0        5.737898   -3.551694    0.396033
     38          6           0        5.381242   -2.229736    0.181651
     39          6           0        7.972407   -4.742466    0.647423
     40          6           0        4.554018   -4.422552    0.372216
     41          8           0        4.519548   -5.630730    0.559150
     42          6           0        3.374562   -3.383124    0.102510
     43          6           0        2.679815   -3.986350   -1.098416
     44          8           0        2.913039   -3.687512   -2.266703
     45          8           0        1.726472   -4.870514   -0.580593
     46          6           0        0.886402   -5.444649   -1.600259
     47          6           0       -3.589391   -3.015512    0.457616
     48          6           0       -4.803218   -2.434111   -0.176595
     49          6           0       -6.000782   -2.925581   -0.310893
     50          6           0       -6.530611   -4.266155    0.269999
     51          6           0       -7.165234   -2.204150   -0.933686
     52          6           0       -7.663822   -0.750548   -0.263337
     53          6           0       -9.220464   -0.492198   -0.463508
     54          6           0       -9.466380    0.876709   -1.109962
     55          6           0       -9.501671    1.972919    0.008921
     56          6           0      -10.740785    0.939479   -1.920269
     57          6           0      -12.004185    0.850957   -1.087966
     58          6           0      -13.149149    1.448013   -1.795706
     59          6           0      -14.533482    0.924964   -1.380678
     60          6           0      -15.249040    0.050955   -2.468144
     61          6           0      -15.483905    1.952047   -0.711427
     62          6           0      -15.779171    1.685449    0.750230
     63          6           0      -14.711203    2.163962    1.739092
     64          6           0      -14.959548    1.594487    3.147632
     65          6           0      -13.670191    1.457414    3.971557
     66          6           0      -16.102869    2.440623    3.950247
     67          1           0        3.039903    3.604898   -1.144858
     68          1           0        9.322668    3.834869    0.299152
     69          1           0        9.707115   -2.411902    0.688274
     70          1           0        1.988061   -0.864424   -1.701978
     71          1           0        1.335449    1.585394   -0.222729
     72          1           0        1.964732    2.312705   -2.754151
     73          1           0        0.346495    1.831301   -2.034559
     74          1           0        1.308035    0.667041   -2.994142
     75          1           0        0.641292   -0.174294    0.872787
     76          1           0        1.322512   -1.789396    0.901727
     77          1           0       -0.005054   -1.973391   -1.385868
     78          1           0       -0.759894   -0.572026   -0.716177
     79          1           0        4.453098    6.545667   -0.098363
     80          1           0        3.524988    5.610879   -1.236202
     81          1           0        4.755919    6.494126   -1.856207
     82          1           0        6.506515    7.799550   -1.229011
     83          1           0        7.738114    8.378338   -0.100106
     84          1           0        6.269276    7.535563    0.480272
     85          1           0       10.753045    2.040244    1.749789
     86          1           0       11.074533   -0.399095   -0.173589
     87          1           0       12.129313    2.986315    0.401222
     88          1           0       11.010395    2.692981   -0.937004
     89          1           0       12.293216    1.470631   -0.571563
     90          1           0       12.005259    0.276908    2.201409
     91          1           0       11.784548   -1.462289    1.592024
     92          1           0       10.736833   -1.662648    3.577620
     93          1           0        9.381512   -0.645083    3.055320
     94          1           0       10.852244    0.104935    3.874900
     95          1           0        8.719724   -4.541941    1.414380
     96          1           0        8.427156   -4.999884   -0.309161
     97          1           0        7.484107   -5.639174    1.030775
     98          1           0        2.734387   -3.424229    0.982894
     99          1           0        1.366239   -5.493730   -2.578067
    100          1           0        0.018450   -4.817848   -1.804475
    101          1           0        0.577563   -6.420137   -1.224467
    102          1           0       -3.578227   -2.916092    1.542845
    103          1           0       -3.642763   -4.080590    0.229487
    104          1           0       -4.668606   -1.428183   -0.573841
    105          1           0       -7.272871   -3.971761    1.012119
    106          1           0       -5.768330   -4.892218    0.733480
    107          1           0       -7.054334   -4.832504   -0.500489
    108          1           0       -8.013487   -2.847853   -1.169853
    109          1           0       -6.868352   -1.865110   -1.926681
    110          1           0       -7.056179    0.035509   -0.709846
    111          1           0       -7.431037   -0.821842    0.798815
    112          1           0       -9.727657   -0.419372    0.498685
    113          1           0       -9.785209   -1.278369   -0.965621
    114          1           0       -8.574829    1.086705   -1.700259
    115          1           0      -10.151122    2.808141   -0.252320
    116          1           0       -8.523701    2.403817    0.221032
    117          1           0       -9.904542    1.506446    0.907491
    118          1           0      -10.826880    0.034525   -2.521045
    119          1           0      -10.775158    1.835743   -2.539180
    120          1           0      -11.850203    1.457314   -0.194855
    121          1           0      -12.185107   -0.157657   -0.716140
    122          1           0      -12.977938    1.303295   -2.861896
    123          1           0      -13.186127    2.524512   -1.630030
    124          1           0      -14.373887    0.125279   -0.658169
    125          1           0      -16.005499    0.635427   -2.991494
    126          1           0      -15.857800   -0.737799   -2.024548
    127          1           0      -14.524889   -0.421469   -3.130844
    128          1           0      -16.443465    1.903938   -1.224945
    129          1           0      -15.113932    2.976826   -0.767258
    130          1           0      -15.816780    0.612518    0.941218
    131          1           0      -16.766114    2.026620    1.065587
    132          1           0      -14.655036    3.252330    1.718642
    133          1           0      -13.758599    1.795262    1.358009
    134          1           0      -15.347990    0.580095    3.065637
    135          1           0      -13.031794    2.300694    3.706128
    136          1           0      -13.177882    0.545785    3.630703
    137          1           0      -13.733269    1.427355    5.058870
    138          1           0      -15.662296    2.836766    4.865931
    139          1           0      -16.997823    1.848336    4.138331
    140          1           0      -16.459050    3.225019    3.282613
 ---------------------------------------------------------------------

 SCF Done:  E(RCAM-B3LYP) =  -3007.18979618     A.U. after   18 cycles

 Excitation energies and oscillator strengths:

 Excited State   1:      Singlet-A      1.6433 eV  754.48 nm  f=0.4010  <S**2>=0.000
     245 -> 248        0.14916
     246 -> 247        0.69440
     245 <- 248        0.10228
 This state for optimization and/or second-order correction.
 Total Energy, E(TD-HF/TD-DFT) =  -3007.12940613
 Copying the excited state density for this state as the 1-particle RhoCI density.

 Excited State   2:      Singlet-A      2.2371 eV  554.22 nm  f=0.1574  <S**2>=0.000
     245 -> 247        0.65221
     246 -> 248       -0.25282

 Excited State   3:      Singlet-A      3.1677 eV  391.40 nm  f=0.0029  <S**2>=0.000
     243 -> 247        0.65296
     244 -> 247       -0.17947
     246 -> 248        0.12549

 Excited State   4:      Singlet-A      3.4251 eV  361.99 nm  f=0.0005  <S**2>=0.000
     239 -> 247        0.39262
     239 -> 249       -0.20259
     240 -> 247        0.42111
     240 -> 249       -0.18980
     244 -> 247        0.23189

 Excited State   5:      Singlet-A      3.5025 eV  353.98 nm  f=0.0080  <S**2>=0.000
     239 -> 247       -0.18173
     243 -> 247        0.18143
     244 -> 247        0.62054

 The electronic state is 1-A.
 Alpha  occ. eigenvalues --  -46.87357 -19.25845 -19.25153 -19.20916 -19.20054
 Alpha  occ. eigenvalues --  -19.19785 -19.17929 -14.42606 -14.41807 -14.39106
 Alpha  occ. eigenvalues --  -14.38719 -10.39939 -10.39747 -10.35842 -10.34732
 Alpha  occ. eigenvalues --  -10.32673 -10.32410 -10.30909 -10.30871 -10.30421
 Alpha  occ. eigenvalues --  -10.30129 -10.29675 -10.28987 -10.28864 -10.28761
 Alpha  occ. eigenvalues --  -10.28685 -10.28367 -10.27692 -10.27604 -10.27583
 Alpha  occ. eigenvalues --  -10.27545 -10.27458 -10.27157 -10.26939 -10.26926
 Alpha  occ. eigenvalues --  -10.26914 -10.26897 -10.26866 -10.26759 -10.26485
 Alpha  occ. eigenvalues --  -10.26276 -10.26271 -10.26156 -10.26050 -10.26037
 Alpha  occ. eigenvalues --  -10.26000 -10.25593 -10.25504 -10.25498 -10.25491
 Alpha  occ. eigenvalues --  -10.25390 -10.25358 -10.25158 -10.25013 -10.24756
 Alpha  occ. eigenvalues --  -10.24753 -10.24747 -10.24708 -10.24660 -10.24606
 Alpha  occ. eigenvalues --  -10.24600 -10.24530 -10.24483 -10.24422 -10.24219
 Alpha  occ. eigenvalues --  -10.24133  -3.16159  -1.91048  -1.90622  -1.90472
 Alpha  occ. eigenvalues --   -1.17905  -1.15840  -1.10380  -1.09662  -1.08492
 Alpha  occ. eigenvalues --   -1.08333  -1.04506  -1.04105  -1.02566  -1.01878
 Alpha  occ. eigenvalues --   -0.92552  -0.91132  -0.90868  -0.90276  -0.89759
 Alpha  occ. eigenvalues --   -0.89331  -0.88400  -0.87650  -0.87400  -0.87207
 Alpha  occ. eigenvalues --   -0.86224  -0.85637  -0.84519  -0.83716  -0.83650
 Alpha  occ. eigenvalues --   -0.82874  -0.81431  -0.81134  -0.80706  -0.79919
 Alpha  occ. eigenvalues --   -0.79635  -0.78348  -0.77937  -0.77468  -0.75893
 Alpha  occ. eigenvalues --   -0.75687  -0.75234  -0.75169  -0.74914  -0.74538
 Alpha  occ. eigenvalues --   -0.73888  -0.72802  -0.70970  -0.70472  -0.69514
 Alpha  occ. eigenvalues --   -0.69157  -0.68315  -0.67406  -0.66768  -0.65991
 Alpha  occ. eigenvalues --   -0.65226  -0.64935  -0.64778  -0.64502  -0.64153
 Alpha  occ. eigenvalues --   -0.63546  -0.63157  -0.62136  -0.62009  -0.60433
 Alpha  occ. eigenvalues --   -0.60346  -0.59495  -0.58874  -0.58543  -0.58208
 Alpha  occ. eigenvalues --   -0.57420  -0.56898  -0.56183  -0.55993  -0.55631
 Alpha  occ. eigenvalues --   -0.55385  -0.55047  -0.54740  -0.54524  -0.54301
 Alpha  occ. eigenvalues --   -0.54023  -0.53861  -0.53530  -0.53269  -0.53163
 Alpha  occ. eigenvalues --   -0.52981  -0.52560  -0.52342  -0.52077  -0.51774
 Alpha  occ. eigenvalues --   -0.51608  -0.51540  -0.51416  -0.51021  -0.50608
 Alpha  occ. eigenvalues --   -0.50553  -0.50385  -0.50156  -0.50065  -0.49604
 Alpha  occ. eigenvalues --   -0.49476  -0.49307  -0.49186  -0.49049  -0.48927
 Alpha  occ. eigenvalues --   -0.48817  -0.48510  -0.48378  -0.48279  -0.47833
 Alpha  occ. eigenvalues --   -0.47691  -0.47085  -0.46954  -0.46873  -0.46726
 Alpha  occ. eigenvalues --   -0.46317  -0.46154  -0.45986  -0.45907  -0.45578
 Alpha  occ. eigenvalues --   -0.45472  -0.45360  -0.45209  -0.44861  -0.44609
 Alpha  occ. eigenvalues --   -0.44604  -0.44556  -0.44313  -0.44229  -0.44183
 Alpha  occ. eigenvalues --   -0.43968  -0.43648  -0.43492  -0.43235  -0.43035
 Alpha  occ. eigenvalues --   -0.42740  -0.42532  -0.42480  -0.42377  -0.42179
 Alpha  occ. eigenvalues --   -0.42053  -0.42013  -0.41827  -0.41723  -0.41496
 Alpha  occ. eigenvalues --   -0.41382  -0.40736  -0.40556  -0.40153  -0.40115
 Alpha  occ. eigenvalues --   -0.39534  -0.39438  -0.39263  -0.39135  -0.38398
 Alpha  occ. eigenvalues --   -0.38195  -0.38013  -0.37808  -0.37674  -0.37377
 Alpha  occ. eigenvalues --   -0.37199  -0.36966  -0.36894  -0.36817  -0.36533
 Alpha  occ. eigenvalues --   -0.36310  -0.35955  -0.35683  -0.35327  -0.34957
 Alpha  occ. eigenvalues --   -0.34374  -0.34061  -0.32909  -0.31210  -0.31109
 Alpha  occ. eigenvalues --   -0.30445  -0.30323  -0.29779  -0.29427  -0.24215
 Alpha  occ. eigenvalues --   -0.20922
 Alpha virt. eigenvalues --   -0.08936  -0.00657   0.00768   0.02453   0.03149
 Alpha virt. eigenvalues --    0.04946   0.05147   0.05758   0.06351   0.07355
 Alpha virt. eigenvalues --    0.07866   0.08478   0.08564   0.08857   0.09174

 Mulliken charges:
               1
     1  Mg   0.847717
     2  C    0.018914
     3  C   -0.069368
     4  C   -0.092275
     5  C   -0.117207
     6  N   -0.298095
     7  C   -0.026534
     8  C    0.030491
     9  C   -0.117566
    10  C    0.092354
    11  C    0.073574
    12  C    0.110602
    13  C   -0.007933
    14  C    0.168755
    15  O   -0.229455
    16  O   -0.309962
    17  N   -0.308613
    18  C    0.078184
    19  C   -0.132286
    20  C   -0.056845
    21  C    0.140577
    22  C    0.091290
    23  C    0.001723
    24  O   -0.204148
    25  C    0.059528
    26  N   -0.373984
    27  C    0.039036
    28  C   -0.042779
    29  C   -0.029532
    30  C    0.075058
    31  C    0.086859
    32  C    0.015225
    33  C    0.011469
    34  N   -0.344525
    35  C    0.133139
    36  C   -0.162441
    37  C    0.018495
    38  C    0.100868
    39  C    0.109277
    40  C    0.056021
    41  O   -0.147999
    42  C   -0.090360
    43  C    0.217466
    44  O   -0.216629
    45  O   -0.325028
    46  C    0.175758
    47  C    0.312957
    48  C   -0.153069
    49  C   -0.129931
    50  C    0.064059
    51  C    0.033984
    52  C    0.026547
    53  C    0.036209
    54  C   -0.124008
    55  C    0.034653
    56  C    0.071536
    57  C   -0.048319
    58  C    0.102952
    59  C   -0.136313
    60  C    0.034902
    61  C    0.116342
    62  C   -0.016806
    63  C    0.038701
    64  C   -0.146562
    65  C    0.045003
    66  C    0.030124
    67  H   -0.023511
    68  H   -0.007942
    69  H   -0.030812
    70  H    0.020204
    71  H    0.007271
    72  H    0.026015
    73  H    0.013112
    74  H    0.012777
    75  H    0.001615
    76  H    0.023083
    77  H    0.032986
    78  H    0.015960
    79  H    0.025791
    80  H   -0.005550
    81  H    0.014969
    82  H    0.031473
    83  H    0.027508
    84  H    0.024475
    85  H    0.018514
    86  H    0.015633
    87  H    0.015036
    88  H    0.026406
    89  H    0.020450
    90  H    0.008685
    91  H    0.013689
    92  H    0.015173
    93  H    0.045204
    94  H    0.019040
    95  H    0.011157
    96  H    0.041107
    97  H    0.025871
    98  H    0.077038
    99  H    0.038683
   100  H    0.016980
   101  H    0.045435
   102  H    0.043072
   103  H    0.028628
   104  H   -0.009102
   105  H    0.027604
   106  H    0.006438
   107  H    0.023956
   108  H   -0.004196
   109  H    0.007402
   110  H    0.015572
   111  H    0.007971
   112  H   -0.005975
   113  H   -0.001603
   114  H   -0.009970
   115  H    0.011946
   116  H    0.005981
   117  H    0.010654
   118  H   -0.009456
   119  H    0.001258
   120  H   -0.001821
   121  H   -0.001196
   122  H   -0.013626
   123  H   -0.014728
   124  H   -0.006433
   125  H    0.003451
   126  H    0.000453
   127  H    0.009729
   128  H   -0.016003
   129  H   -0.010117
   130  H   -0.018936
   131  H   -0.012315
   132  H   -0.003795
   133  H   -0.015578
   134  H   -0.004204
   135  H    0.003948
   136  H    0.006252
   137  H    0.010886
   138  H    0.013222
   139  H    0.010940
   140  H    0.004391
 Sum of Mulliken charges =  -0.00000

 Dipole moment (field-independent basis, Debye):
    X=             -3.7229    Y=              1.8297    Z=              0.2805  Tot=              4.1577
 Quadrupole moment (field-independent basis, Debye-Ang):
   XX=           -376.6141   YY=           -420.8528   ZZ=           -411.7879
   XY=             -4.7244   XZ=             13.1889   YZ=              2.7890

 Normal termination of Gaussian 16 at Fri Apr 29 02:30:54 2022.
