 Gaussian 16, Revision A.03,
 Gaussian 16:  ES64L-G16RevA.03 25-Dec-2016

 ---------------------------------
 #p PBE1PBE/Def2SVP td=(nstates=5)
 ---------------------------------

 ------------------------------------------------------
 step_1851_chromophore_16 TDDFT with PBE1PBE functional
 ------------------------------------------------------
 Symbolic Z-matrix:
 Charge =  0 Multiplicity = 1

                         Standard orientation:
 ---------------------------------------------------------------------
 Center     Atomic      Atomic             Coordinates (Angstroms)
 Number     Number       Type             X           Y           Z
 ---------------------------------------------------------------------
      1         12           0        6.335320    0.661272    0.148906
      2          6           0        4.003634   -2.020231   -0.100335
      3          6           0        3.795323    2.852458   -0.909572
      4          6           0        8.544601    3.082301    0.160905
      5          6           0        8.887614   -1.698125    0.588564
      6          7           0        4.245691    0.442315   -0.395882
      7          6           0        3.502637   -0.693063   -0.377840
      8          6           0        2.012504   -0.436222   -0.699643
      9          6           0        1.953387    1.061482   -0.952225
     10          6           0        3.445808    1.546186   -0.757525
     11          6           0        1.352245    1.522119   -2.320133
     12          6           0        0.987565   -0.991811    0.239489
     13          6           0       -0.259751   -1.499338   -0.438422
     14          6           0       -1.266197   -2.421760    0.293833
     15          8           0       -0.976383   -3.173122    1.208032
     16          8           0       -2.501526   -2.311804   -0.207052
     17          7           0        6.254828    2.675412   -0.346689
     18          6           0        5.131556    3.395717   -0.680343
     19          6           0        5.544352    4.774458   -0.749670
     20          6           0        6.907363    4.885840   -0.371187
     21          6           0        7.272634    3.455859   -0.288777
     22          6           0        4.542370    5.896540   -0.968938
     23          6           0        7.684552    6.165261   -0.186823
     24          8           0        8.863636    6.071330    0.094852
     25          6           0        7.029242    7.573670   -0.300092
     26          7           0        8.327465    0.647133    0.157142
     27          6           0        9.062181    1.845188    0.373388
     28          6           0       10.588200    1.618730    0.757682
     29          6           0       10.630043    0.056425    0.711350
     30          6           0        9.226366   -0.359149    0.451568
     31          6           0       11.606889    2.211824   -0.161244
     32          6           0       11.328856   -0.540050    1.952620
     33          6           0       10.458797   -0.671822    3.219050
     34          7           0        6.440862   -1.436287    0.395881
     35          6           0        7.566867   -2.240570    0.500981
     36          6           0        7.111947   -3.600193    0.557774
     37          6           0        5.737898   -3.551694    0.396033
     38          6           0        5.381242   -2.229736    0.181651
     39          6           0        7.972407   -4.742466    0.647423
     40          6           0        4.554018   -4.422552    0.372216
     41          8           0        4.519548   -5.630730    0.559150
     42          6           0        3.374562   -3.383124    0.102510
     43          6           0        2.679815   -3.986350   -1.098416
     44          8           0        2.913039   -3.687512   -2.266703
     45          8           0        1.726472   -4.870514   -0.580593
     46          6           0        0.886402   -5.444649   -1.600259
     47          6           0       -3.589391   -3.015512    0.457616
     48          6           0       -4.803218   -2.434111   -0.176595
     49          6           0       -6.000782   -2.925581   -0.310893
     50          6           0       -6.530611   -4.266155    0.269999
     51          6           0       -7.165234   -2.204150   -0.933686
     52          6           0       -7.663822   -0.750548   -0.263337
     53          6           0       -9.220464   -0.492198   -0.463508
     54          6           0       -9.466380    0.876709   -1.109962
     55          6           0       -9.501671    1.972919    0.008921
     56          6           0      -10.740785    0.939479   -1.920269
     57          6           0      -12.004185    0.850957   -1.087966
     58          6           0      -13.149149    1.448013   -1.795706
     59          6           0      -14.533482    0.924964   -1.380678
     60          6           0      -15.249040    0.050955   -2.468144
     61          6           0      -15.483905    1.952047   -0.711427
     62          6           0      -15.779171    1.685449    0.750230
     63          6           0      -14.711203    2.163962    1.739092
     64          6           0      -14.959548    1.594487    3.147632
     65          6           0      -13.670191    1.457414    3.971557
     66          6           0      -16.102869    2.440623    3.950247
     67          1           0        3.039903    3.604898   -1.144858
     68          1           0        9.322668    3.834869    0.299152
     69          1           0        9.707115   -2.411902    0.688274
     70          1           0        1.988061   -0.864424   -1.701978
     71          1           0        1.335449    1.585394   -0.222729
     72          1           0        1.964732    2.312705   -2.754151
     73          1           0        0.346495    1.831301   -2.034559
     74          1           0        1.308035    0.667041   -2.994142
     75          1           0        0.641292   -0.174294    0.872787
     76          1           0        1.322512   -1.789396    0.901727
     77          1           0       -0.005054   -1.973391   -1.385868
     78          1           0       -0.759894   -0.572026   -0.716177
     79          1           0        4.453098    6.545667   -0.098363
     80          1           0        3.524988    5.610879   -1.236202
     81          1           0        4.755919    6.494126   -1.856207
     82          1           0        6.506515    7.799550   -1.229011
     83          1           0        7.738114    8.378338   -0.100106
     84          1           0        6.269276    7.535563    0.480272
     85          1           0       10.753045    2.040244    1.749789
     86          1           0       11.074533   -0.399095   -0.173589
     87          1           0       12.129313    2.986315    0.401222
     88          1           0       11.010395    2.692981   -0.937004
     89          1           0       12.293216    1.470631   -0.571563
     90          1           0       12.005259    0.276908    2.201409
     91          1           0       11.784548   -1.462289    1.592024
     92          1           0       10.736833   -1.662648    3.577620
     93          1           0        9.381512   -0.645083    3.055320
     94          1           0       10.852244    0.104935    3.874900
     95          1           0        8.719724   -4.541941    1.414380
     96          1           0        8.427156   -4.999884   -0.309161
     97          1           0        7.484107   -5.639174    1.030775
     98          1           0        2.734387   -3.424229    0.982894
     99          1           0        1.366239   -5.493730   -2.578067
    100          1           0        0.018450   -4.817848   -1.804475
    101          1           0        0.577563   -6.420137   -1.224467
    102          1           0       -3.578227   -2.916092    1.542845
    103          1           0       -3.642763   -4.080590    0.229487
    104          1           0       -4.668606   -1.428183   -0.573841
    105          1           0       -7.272871   -3.971761    1.012119
    106          1           0       -5.768330   -4.892218    0.733480
    107          1           0       -7.054334   -4.832504   -0.500489
    108          1           0       -8.013487   -2.847853   -1.169853
    109          1           0       -6.868352   -1.865110   -1.926681
    110          1           0       -7.056179    0.035509   -0.709846
    111          1           0       -7.431037   -0.821842    0.798815
    112          1           0       -9.727657   -0.419372    0.498685
    113          1           0       -9.785209   -1.278369   -0.965621
    114          1           0       -8.574829    1.086705   -1.700259
    115          1           0      -10.151122    2.808141   -0.252320
    116          1           0       -8.523701    2.403817    0.221032
    117          1           0       -9.904542    1.506446    0.907491
    118          1           0      -10.826880    0.034525   -2.521045
    119          1           0      -10.775158    1.835743   -2.539180
    120          1           0      -11.850203    1.457314   -0.194855
    121          1           0      -12.185107   -0.157657   -0.716140
    122          1           0      -12.977938    1.303295   -2.861896
    123          1           0      -13.186127    2.524512   -1.630030
    124          1           0      -14.373887    0.125279   -0.658169
    125          1           0      -16.005499    0.635427   -2.991494
    126          1           0      -15.857800   -0.737799   -2.024548
    127          1           0      -14.524889   -0.421469   -3.130844
    128          1           0      -16.443465    1.903938   -1.224945
    129          1           0      -15.113932    2.976826   -0.767258
    130          1           0      -15.816780    0.612518    0.941218
    131          1           0      -16.766114    2.026620    1.065587
    132          1           0      -14.655036    3.252330    1.718642
    133          1           0      -13.758599    1.795262    1.358009
    134          1           0      -15.347990    0.580095    3.065637
    135          1           0      -13.031794    2.300694    3.706128
    136          1           0      -13.177882    0.545785    3.630703
    137          1           0      -13.733269    1.427355    5.058870
    138          1           0      -15.662296    2.836766    4.865931
    139          1           0      -16.997823    1.848336    4.138331
    140          1           0      -16.459050    3.225019    3.282613
 ---------------------------------------------------------------------

 SCF Done:  E(RPBE1PBE) =  -3005.37763897     A.U. after   15 cycles

 Excitation energies and oscillator strengths:

 Excited State   1:      Singlet-A      1.7846 eV  694.74 nm  f=0.3916  <S**2>=0.000
     245 -> 248       -0.14533
     246 -> 247        0.70305
     246 <- 247       -0.12656
 This state for optimization and/or second-order correction.
 Total Energy, E(TD-HF/TD-DFT) =  -3005.31205597
 Copying the excited state density for this state as the 1-particle RhoCI density.

 Excited State   2:      Singlet-A      2.2465 eV  551.89 nm  f=0.1398  <S**2>=0.000
     245 -> 247        0.65822
     246 -> 248        0.23538

 Excited State   3:      Singlet-A      2.8799 eV  430.52 nm  f=0.0077  <S**2>=0.000
     240 -> 247        0.24414
     243 -> 247       -0.23736
     244 -> 247        0.59503

 Excited State   4:      Singlet-A      2.9950 eV  413.97 nm  f=0.0007  <S**2>=0.000
     240 -> 247       -0.31240
     243 -> 247        0.50453
     244 -> 247        0.34698

 Excited State   5:      Singlet-A      3.0243 eV  409.97 nm  f=0.0046  <S**2>=0.000
     240 -> 247        0.49097
     242 -> 247        0.25854
     243 -> 247        0.39732

 The electronic state is 1-A.
 Alpha  occ. eigenvalues --  -46.90789 -19.26486 -19.25651 -19.20961 -19.20009
 Alpha  occ. eigenvalues --  -19.19975 -19.18442 -14.42140 -14.41397 -14.38935
 Alpha  occ. eigenvalues --  -14.38240 -10.36778 -10.36718 -10.32738 -10.32165
 Alpha  occ. eigenvalues --  -10.30021 -10.29923 -10.28448 -10.28354 -10.27988
 Alpha  occ. eigenvalues --  -10.27715 -10.27444 -10.27108 -10.26788 -10.26428
 Alpha  occ. eigenvalues --  -10.26081 -10.26001 -10.25466 -10.25348 -10.25328
 Alpha  occ. eigenvalues --  -10.25101 -10.25027 -10.24944 -10.24765 -10.24719
 Alpha  occ. eigenvalues --  -10.24549 -10.24513 -10.24372 -10.24287 -10.24082
 Alpha  occ. eigenvalues --  -10.23871 -10.23859 -10.23718 -10.23694 -10.23648
 Alpha  occ. eigenvalues --  -10.23605 -10.23504 -10.23303 -10.23089 -10.23078
 Alpha  occ. eigenvalues --  -10.22763 -10.22642 -10.22640 -10.22562 -10.22355
 Alpha  occ. eigenvalues --  -10.22309 -10.22281 -10.22166 -10.22113 -10.22106
 Alpha  occ. eigenvalues --  -10.22091 -10.22007 -10.22001 -10.21798 -10.21753
 Alpha  occ. eigenvalues --  -10.21648  -3.13163  -1.85994  -1.85547  -1.85400
 Alpha  occ. eigenvalues --   -1.12700  -1.10416  -1.04843  -1.04692  -1.03157
 Alpha  occ. eigenvalues --   -1.03127  -0.99473  -0.98597  -0.97138  -0.96476
 Alpha  occ. eigenvalues --   -0.86690  -0.85242  -0.85035  -0.84437  -0.84051
 Alpha  occ. eigenvalues --   -0.83423  -0.82833  -0.81867  -0.81508  -0.81471
 Alpha  occ. eigenvalues --   -0.80719  -0.79935  -0.78708  -0.77960  -0.77899
 Alpha  occ. eigenvalues --   -0.77167  -0.75628  -0.75329  -0.75044  -0.74238
 Alpha  occ. eigenvalues --   -0.73788  -0.72547  -0.72325  -0.71845  -0.70105
 Alpha  occ. eigenvalues --   -0.69870  -0.69353  -0.69327  -0.69280  -0.68689
 Alpha  occ. eigenvalues --   -0.68205  -0.67180  -0.65383  -0.64805  -0.63805
 Alpha  occ. eigenvalues --   -0.63368  -0.62689  -0.61604  -0.61414  -0.60169
 Alpha  occ. eigenvalues --   -0.59697  -0.59383  -0.59218  -0.59132  -0.58644
 Alpha  occ. eigenvalues --   -0.57672  -0.57327  -0.56601  -0.56270  -0.55072
 Alpha  occ. eigenvalues --   -0.54772  -0.54001  -0.53370  -0.52935  -0.52591
 Alpha  occ. eigenvalues --   -0.51711  -0.51513  -0.50639  -0.50587  -0.50186
 Alpha  occ. eigenvalues --   -0.49720  -0.49541  -0.49316  -0.49051  -0.48870
 Alpha  occ. eigenvalues --   -0.48518  -0.48297  -0.48056  -0.47805  -0.47610
 Alpha  occ. eigenvalues --   -0.47472  -0.47063  -0.46843  -0.46632  -0.46356
 Alpha  occ. eigenvalues --   -0.46073  -0.46001  -0.45873  -0.45623  -0.45175
 Alpha  occ. eigenvalues --   -0.45010  -0.44923  -0.44812  -0.44631  -0.44188
 Alpha  occ. eigenvalues --   -0.44135  -0.43953  -0.43877  -0.43591  -0.43452
 Alpha  occ. eigenvalues --   -0.43425  -0.43130  -0.43041  -0.43014  -0.42519
 Alpha  occ. eigenvalues --   -0.42358  -0.41787  -0.41635  -0.41481  -0.41269
 Alpha  occ. eigenvalues --   -0.41139  -0.40836  -0.40777  -0.40549  -0.40205
 Alpha  occ. eigenvalues --   -0.40139  -0.39950  -0.39829  -0.39424  -0.39389
 Alpha  occ. eigenvalues --   -0.39186  -0.39156  -0.39073  -0.38968  -0.38948
 Alpha  occ. eigenvalues --   -0.38601  -0.38387  -0.38230  -0.37954  -0.37817
 Alpha  occ. eigenvalues --   -0.37596  -0.37357  -0.37202  -0.37174  -0.37009
 Alpha  occ. eigenvalues --   -0.36947  -0.36827  -0.36735  -0.36574  -0.36318
 Alpha  occ. eigenvalues --   -0.36181  -0.35594  -0.35442  -0.35049  -0.34938
 Alpha  occ. eigenvalues --   -0.34364  -0.34329  -0.34269  -0.33964  -0.33226
 Alpha  occ. eigenvalues --   -0.33187  -0.32855  -0.32659  -0.32530  -0.32156
 Alpha  occ. eigenvalues --   -0.32091  -0.32054  -0.31827  -0.31781  -0.31363
 Alpha  occ. eigenvalues --   -0.31203  -0.30981  -0.30582  -0.30197  -0.29673
 Alpha  occ. eigenvalues --   -0.29356  -0.29010  -0.28514  -0.26858  -0.25886
 Alpha  occ. eigenvalues --   -0.25698  -0.25611  -0.25142  -0.25100  -0.21087
 Alpha  occ. eigenvalues --   -0.18547
 Alpha virt. eigenvalues --   -0.11360  -0.04318  -0.03427  -0.01926   0.00204
 Alpha virt. eigenvalues --    0.00524   0.00785   0.01431   0.01847   0.03679
 Alpha virt. eigenvalues --    0.04379   0.04551   0.05291   0.05346   0.05614

 Mulliken charges:
               1
     1  Mg   1.001983
     2  C    0.028603
     3  C   -0.064042
     4  C   -0.086122
     5  C   -0.101781
     6  N   -0.409984
     7  C    0.049342
     8  C   -0.042441
     9  C   -0.184861
    10  C    0.125743
    11  C    0.015394
    12  C    0.049661
    13  C   -0.081358
    14  C    0.239816
    15  O   -0.263532
    16  O   -0.344441
    17  N   -0.434024
    18  C    0.112877
    19  C   -0.167372
    20  C   -0.094212
    21  C    0.177824
    22  C    0.032733
    23  C    0.049701
    24  O   -0.238599
    25  C   -0.014413
    26  N   -0.478121
    27  C    0.065782
    28  C   -0.120133
    29  C   -0.092363
    30  C    0.106352
    31  C    0.030330
    32  C   -0.055306
    33  C   -0.057624
    34  N   -0.468257
    35  C    0.155699
    36  C   -0.195564
    37  C   -0.021504
    38  C    0.137242
    39  C    0.057956
    40  C    0.151426
    41  O   -0.196553
    42  C   -0.200239
    43  C    0.304031
    44  O   -0.252302
    45  O   -0.355569
    46  C    0.120878
    47  C    0.272996
    48  C   -0.163780
    49  C   -0.177297
    50  C   -0.000904
    51  C   -0.024008
    52  C   -0.035023
    53  C   -0.011897
    54  C   -0.213256
    55  C   -0.025815
    56  C    0.008666
    57  C   -0.111015
    58  C    0.047958
    59  C   -0.218160
    60  C   -0.024914
    61  C    0.058481
    62  C   -0.078282
    63  C   -0.029795
    64  C   -0.233418
    65  C   -0.018706
    66  C   -0.029435
    67  H    0.008139
    68  H    0.025047
    69  H    0.000279
    70  H    0.059717
    71  H    0.044679
    72  H    0.052714
    73  H    0.040634
    74  H    0.041158
    75  H    0.034884
    76  H    0.057835
    77  H    0.065019
    78  H    0.048580
    79  H    0.054792
    80  H    0.023481
    81  H    0.044628
    82  H    0.058251
    83  H    0.056106
    84  H    0.052775
    85  H    0.054857
    86  H    0.053300
    87  H    0.042459
    88  H    0.054709
    89  H    0.048319
    90  H    0.043706
    91  H    0.044156
    92  H    0.043723
    93  H    0.074546
    94  H    0.045395
    95  H    0.036942
    96  H    0.067096
    97  H    0.052782
    98  H    0.111822
    99  H    0.059611
   100  H    0.040353
   101  H    0.066677
   102  H    0.068730
   103  H    0.055315
   104  H    0.021764
   105  H    0.056623
   106  H    0.033684
   107  H    0.051633
   108  H    0.025573
   109  H    0.041890
   110  H    0.044690
   111  H    0.041149
   112  H    0.026353
   113  H    0.028887
   114  H    0.028875
   115  H    0.040458
   116  H    0.034984
   117  H    0.036691
   118  H    0.026043
   119  H    0.034009
   120  H    0.034135
   121  H    0.029914
   122  H    0.019181
   123  H    0.018540
   124  H    0.032117
   125  H    0.030753
   126  H    0.028428
   127  H    0.037122
   128  H    0.017429
   129  H    0.021997
   130  H    0.014646
   131  H    0.020585
   132  H    0.028434
   133  H    0.027577
   134  H    0.033289
   135  H    0.032161
   136  H    0.034452
   137  H    0.037964
   138  H    0.040271
   139  H    0.037999
   140  H    0.031433
 Sum of Mulliken charges =  -0.00000

 Dipole moment (field-independent basis, Debye):
    X=             -3.6545    Y=              2.5966    Z=              0.2366  Tot=              4.4893
 Quadrupole moment (field-independent basis, Debye-Ang):
   XX=           -370.0477   YY=           -417.1402   ZZ=           -409.5697
   XY=             -0.4395   XZ=             13.5152   YZ=              2.4596

 Normal termination of Gaussian 16 at Fri Apr 29 02:54:35 2022.
