 Gaussian 16, Revision A.03,
 Gaussian 16:  ES64L-G16RevA.03 25-Dec-2016

 --------------------------------
 #p wB97XD/Def2SVP td=(nstates=5)
 --------------------------------

 -----------------------------------------------------
 step_1851_chromophore_16 TDDFT with wB97XD functional
 -----------------------------------------------------
 Symbolic Z-matrix:
 Charge =  0 Multiplicity = 1

                         Standard orientation:
 ---------------------------------------------------------------------
 Center     Atomic      Atomic             Coordinates (Angstroms)
 Number     Number       Type             X           Y           Z
 ---------------------------------------------------------------------
      1         12           0        6.335320    0.661272    0.148906
      2          6           0        4.003634   -2.020231   -0.100335
      3          6           0        3.795323    2.852458   -0.909572
      4          6           0        8.544601    3.082301    0.160905
      5          6           0        8.887614   -1.698125    0.588564
      6          7           0        4.245691    0.442315   -0.395882
      7          6           0        3.502637   -0.693063   -0.377840
      8          6           0        2.012504   -0.436222   -0.699643
      9          6           0        1.953387    1.061482   -0.952225
     10          6           0        3.445808    1.546186   -0.757525
     11          6           0        1.352245    1.522119   -2.320133
     12          6           0        0.987565   -0.991811    0.239489
     13          6           0       -0.259751   -1.499338   -0.438422
     14          6           0       -1.266197   -2.421760    0.293833
     15          8           0       -0.976383   -3.173122    1.208032
     16          8           0       -2.501526   -2.311804   -0.207052
     17          7           0        6.254828    2.675412   -0.346689
     18          6           0        5.131556    3.395717   -0.680343
     19          6           0        5.544352    4.774458   -0.749670
     20          6           0        6.907363    4.885840   -0.371187
     21          6           0        7.272634    3.455859   -0.288777
     22          6           0        4.542370    5.896540   -0.968938
     23          6           0        7.684552    6.165261   -0.186823
     24          8           0        8.863636    6.071330    0.094852
     25          6           0        7.029242    7.573670   -0.300092
     26          7           0        8.327465    0.647133    0.157142
     27          6           0        9.062181    1.845188    0.373388
     28          6           0       10.588200    1.618730    0.757682
     29          6           0       10.630043    0.056425    0.711350
     30          6           0        9.226366   -0.359149    0.451568
     31          6           0       11.606889    2.211824   -0.161244
     32          6           0       11.328856   -0.540050    1.952620
     33          6           0       10.458797   -0.671822    3.219050
     34          7           0        6.440862   -1.436287    0.395881
     35          6           0        7.566867   -2.240570    0.500981
     36          6           0        7.111947   -3.600193    0.557774
     37          6           0        5.737898   -3.551694    0.396033
     38          6           0        5.381242   -2.229736    0.181651
     39          6           0        7.972407   -4.742466    0.647423
     40          6           0        4.554018   -4.422552    0.372216
     41          8           0        4.519548   -5.630730    0.559150
     42          6           0        3.374562   -3.383124    0.102510
     43          6           0        2.679815   -3.986350   -1.098416
     44          8           0        2.913039   -3.687512   -2.266703
     45          8           0        1.726472   -4.870514   -0.580593
     46          6           0        0.886402   -5.444649   -1.600259
     47          6           0       -3.589391   -3.015512    0.457616
     48          6           0       -4.803218   -2.434111   -0.176595
     49          6           0       -6.000782   -2.925581   -0.310893
     50          6           0       -6.530611   -4.266155    0.269999
     51          6           0       -7.165234   -2.204150   -0.933686
     52          6           0       -7.663822   -0.750548   -0.263337
     53          6           0       -9.220464   -0.492198   -0.463508
     54          6           0       -9.466380    0.876709   -1.109962
     55          6           0       -9.501671    1.972919    0.008921
     56          6           0      -10.740785    0.939479   -1.920269
     57          6           0      -12.004185    0.850957   -1.087966
     58          6           0      -13.149149    1.448013   -1.795706
     59          6           0      -14.533482    0.924964   -1.380678
     60          6           0      -15.249040    0.050955   -2.468144
     61          6           0      -15.483905    1.952047   -0.711427
     62          6           0      -15.779171    1.685449    0.750230
     63          6           0      -14.711203    2.163962    1.739092
     64          6           0      -14.959548    1.594487    3.147632
     65          6           0      -13.670191    1.457414    3.971557
     66          6           0      -16.102869    2.440623    3.950247
     67          1           0        3.039903    3.604898   -1.144858
     68          1           0        9.322668    3.834869    0.299152
     69          1           0        9.707115   -2.411902    0.688274
     70          1           0        1.988061   -0.864424   -1.701978
     71          1           0        1.335449    1.585394   -0.222729
     72          1           0        1.964732    2.312705   -2.754151
     73          1           0        0.346495    1.831301   -2.034559
     74          1           0        1.308035    0.667041   -2.994142
     75          1           0        0.641292   -0.174294    0.872787
     76          1           0        1.322512   -1.789396    0.901727
     77          1           0       -0.005054   -1.973391   -1.385868
     78          1           0       -0.759894   -0.572026   -0.716177
     79          1           0        4.453098    6.545667   -0.098363
     80          1           0        3.524988    5.610879   -1.236202
     81          1           0        4.755919    6.494126   -1.856207
     82          1           0        6.506515    7.799550   -1.229011
     83          1           0        7.738114    8.378338   -0.100106
     84          1           0        6.269276    7.535563    0.480272
     85          1           0       10.753045    2.040244    1.749789
     86          1           0       11.074533   -0.399095   -0.173589
     87          1           0       12.129313    2.986315    0.401222
     88          1           0       11.010395    2.692981   -0.937004
     89          1           0       12.293216    1.470631   -0.571563
     90          1           0       12.005259    0.276908    2.201409
     91          1           0       11.784548   -1.462289    1.592024
     92          1           0       10.736833   -1.662648    3.577620
     93          1           0        9.381512   -0.645083    3.055320
     94          1           0       10.852244    0.104935    3.874900
     95          1           0        8.719724   -4.541941    1.414380
     96          1           0        8.427156   -4.999884   -0.309161
     97          1           0        7.484107   -5.639174    1.030775
     98          1           0        2.734387   -3.424229    0.982894
     99          1           0        1.366239   -5.493730   -2.578067
    100          1           0        0.018450   -4.817848   -1.804475
    101          1           0        0.577563   -6.420137   -1.224467
    102          1           0       -3.578227   -2.916092    1.542845
    103          1           0       -3.642763   -4.080590    0.229487
    104          1           0       -4.668606   -1.428183   -0.573841
    105          1           0       -7.272871   -3.971761    1.012119
    106          1           0       -5.768330   -4.892218    0.733480
    107          1           0       -7.054334   -4.832504   -0.500489
    108          1           0       -8.013487   -2.847853   -1.169853
    109          1           0       -6.868352   -1.865110   -1.926681
    110          1           0       -7.056179    0.035509   -0.709846
    111          1           0       -7.431037   -0.821842    0.798815
    112          1           0       -9.727657   -0.419372    0.498685
    113          1           0       -9.785209   -1.278369   -0.965621
    114          1           0       -8.574829    1.086705   -1.700259
    115          1           0      -10.151122    2.808141   -0.252320
    116          1           0       -8.523701    2.403817    0.221032
    117          1           0       -9.904542    1.506446    0.907491
    118          1           0      -10.826880    0.034525   -2.521045
    119          1           0      -10.775158    1.835743   -2.539180
    120          1           0      -11.850203    1.457314   -0.194855
    121          1           0      -12.185107   -0.157657   -0.716140
    122          1           0      -12.977938    1.303295   -2.861896
    123          1           0      -13.186127    2.524512   -1.630030
    124          1           0      -14.373887    0.125279   -0.658169
    125          1           0      -16.005499    0.635427   -2.991494
    126          1           0      -15.857800   -0.737799   -2.024548
    127          1           0      -14.524889   -0.421469   -3.130844
    128          1           0      -16.443465    1.903938   -1.224945
    129          1           0      -15.113932    2.976826   -0.767258
    130          1           0      -15.816780    0.612518    0.941218
    131          1           0      -16.766114    2.026620    1.065587
    132          1           0      -14.655036    3.252330    1.718642
    133          1           0      -13.758599    1.795262    1.358009
    134          1           0      -15.347990    0.580095    3.065637
    135          1           0      -13.031794    2.300694    3.706128
    136          1           0      -13.177882    0.545785    3.630703
    137          1           0      -13.733269    1.427355    5.058870
    138          1           0      -15.662296    2.836766    4.865931
    139          1           0      -16.997823    1.848336    4.138331
    140          1           0      -16.459050    3.225019    3.282613
 ---------------------------------------------------------------------

 SCF Done:  E(RwB97XD) =  -3007.88754748     A.U. after   19 cycles

 Excitation energies and oscillator strengths:

 Excited State   1:      Singlet-A      1.6007 eV  774.56 nm  f=0.4008  <S**2>=0.000
     245 -> 248        0.15296
     246 -> 247        0.69183
     245 <- 248        0.10976
 This state for optimization and/or second-order correction.
 Total Energy, E(TD-HF/TD-DFT) =  -3007.82872264
 Copying the excited state density for this state as the 1-particle RhoCI density.

 Excited State   2:      Singlet-A      2.1826 eV  568.05 nm  f=0.1537  <S**2>=0.000
     243 -> 247        0.10027
     245 -> 247        0.64980
     246 -> 248       -0.25459

 Excited State   3:      Singlet-A      3.1613 eV  392.19 nm  f=0.0025  <S**2>=0.000
     242 -> 247        0.11376
     243 -> 247        0.65133
     244 -> 247       -0.12567
     246 -> 248        0.13774

 Excited State   4:      Singlet-A      3.4384 eV  360.58 nm  f=0.0003  <S**2>=0.000
     239 -> 247       -0.16518
     239 -> 249        0.10359
     240 -> 247        0.56578
     240 -> 249       -0.28371
     244 -> 247        0.13999

 Excited State   5:      Singlet-A      3.5781 eV  346.51 nm  f=0.0056  <S**2>=0.000
     239 -> 247        0.12412
     242 -> 247        0.12830
     244 -> 247        0.63428
     244 -> 249        0.10528
     246 -> 248        0.12146

 The electronic state is 1-A.
 Alpha  occ. eigenvalues --  -46.93724 -19.31108 -19.30411 -19.25895 -19.25202
 Alpha  occ. eigenvalues --  -19.24731 -19.22857 -14.47237 -14.46455 -14.43625
 Alpha  occ. eigenvalues --  -14.43391 -10.43840 -10.43564 -10.39970 -10.38619
 Alpha  occ. eigenvalues --  -10.36571 -10.36527 -10.34941 -10.34644 -10.34404
 Alpha  occ. eigenvalues --  -10.34297 -10.33652 -10.33113 -10.32802 -10.32781
 Alpha  occ. eigenvalues --  -10.32642 -10.32569 -10.31783 -10.31675 -10.31617
 Alpha  occ. eigenvalues --  -10.31611 -10.31481 -10.31162 -10.30980 -10.30935
 Alpha  occ. eigenvalues --  -10.30924 -10.30899 -10.30861 -10.30859 -10.30450
 Alpha  occ. eigenvalues --  -10.30252 -10.30122 -10.30025 -10.29997 -10.29907
 Alpha  occ. eigenvalues --  -10.29805 -10.29572 -10.29486 -10.29453 -10.29446
 Alpha  occ. eigenvalues --  -10.29357 -10.29244 -10.29075 -10.28904 -10.28842
 Alpha  occ. eigenvalues --  -10.28680 -10.28667 -10.28542 -10.28533 -10.28513
 Alpha  occ. eigenvalues --  -10.28505 -10.28440 -10.28384 -10.28226 -10.28145
 Alpha  occ. eigenvalues --  -10.28047  -3.19927  -1.93514  -1.93063  -1.92918
 Alpha  occ. eigenvalues --   -1.20124  -1.18037  -1.12716  -1.11785  -1.10724
 Alpha  occ. eigenvalues --   -1.10541  -1.06514  -1.06179  -1.04578  -1.03902
 Alpha  occ. eigenvalues --   -0.94604  -0.92918  -0.92718  -0.92127  -0.91640
 Alpha  occ. eigenvalues --   -0.91094  -0.90318  -0.89644  -0.89184  -0.89139
 Alpha  occ. eigenvalues --   -0.88082  -0.87525  -0.86347  -0.85680  -0.85523
 Alpha  occ. eigenvalues --   -0.84780  -0.83342  -0.83021  -0.82639  -0.81800
 Alpha  occ. eigenvalues --   -0.81485  -0.80297  -0.79844  -0.79354  -0.77828
 Alpha  occ. eigenvalues --   -0.77597  -0.77030  -0.76980  -0.76860  -0.76363
 Alpha  occ. eigenvalues --   -0.75819  -0.74818  -0.72919  -0.72426  -0.71463
 Alpha  occ. eigenvalues --   -0.71026  -0.70344  -0.69271  -0.68709  -0.67832
 Alpha  occ. eigenvalues --   -0.67213  -0.66908  -0.66750  -0.66473  -0.66161
 Alpha  occ. eigenvalues --   -0.65351  -0.64982  -0.64148  -0.63877  -0.62374
 Alpha  occ. eigenvalues --   -0.62317  -0.61505  -0.60867  -0.60538  -0.60200
 Alpha  occ. eigenvalues --   -0.59289  -0.58889  -0.58153  -0.57947  -0.57588
 Alpha  occ. eigenvalues --   -0.57234  -0.57006  -0.56708  -0.56482  -0.56242
 Alpha  occ. eigenvalues --   -0.55961  -0.55753  -0.55467  -0.55203  -0.55044
 Alpha  occ. eigenvalues --   -0.54944  -0.54448  -0.54239  -0.54016  -0.53632
 Alpha  occ. eigenvalues --   -0.53589  -0.53422  -0.53388  -0.52947  -0.52523
 Alpha  occ. eigenvalues --   -0.52470  -0.52277  -0.52114  -0.51969  -0.51530
 Alpha  occ. eigenvalues --   -0.51382  -0.51209  -0.51091  -0.50922  -0.50800
 Alpha  occ. eigenvalues --   -0.50728  -0.50395  -0.50285  -0.50168  -0.49726
 Alpha  occ. eigenvalues --   -0.49587  -0.49083  -0.48856  -0.48743  -0.48714
 Alpha  occ. eigenvalues --   -0.48191  -0.48094  -0.47885  -0.47805  -0.47464
 Alpha  occ. eigenvalues --   -0.47429  -0.47328  -0.47062  -0.46690  -0.46597
 Alpha  occ. eigenvalues --   -0.46576  -0.46411  -0.46169  -0.46143  -0.46120
 Alpha  occ. eigenvalues --   -0.46005  -0.45538  -0.45413  -0.45187  -0.44948
 Alpha  occ. eigenvalues --   -0.44651  -0.44456  -0.44367  -0.44342  -0.44078
 Alpha  occ. eigenvalues --   -0.43931  -0.43924  -0.43700  -0.43642  -0.43378
 Alpha  occ. eigenvalues --   -0.43287  -0.42647  -0.42444  -0.42057  -0.42002
 Alpha  occ. eigenvalues --   -0.41410  -0.41341  -0.41170  -0.41012  -0.40253
 Alpha  occ. eigenvalues --   -0.40117  -0.39918  -0.39656  -0.39609  -0.39222
 Alpha  occ. eigenvalues --   -0.39100  -0.39063  -0.38770  -0.38750  -0.38546
 Alpha  occ. eigenvalues --   -0.38152  -0.37917  -0.37530  -0.37161  -0.36942
 Alpha  occ. eigenvalues --   -0.36309  -0.36044  -0.35184  -0.33409  -0.33216
 Alpha  occ. eigenvalues --   -0.32476  -0.32212  -0.32021  -0.31500  -0.26164
 Alpha  occ. eigenvalues --   -0.22742
 Alpha virt. eigenvalues --   -0.07279   0.01294   0.02798   0.04681   0.06182
 Alpha virt. eigenvalues --    0.07140   0.07418   0.08098   0.08570   0.10201
 Alpha virt. eigenvalues --    0.10899   0.11395   0.12023   0.12146   0.12216

 Mulliken charges:
               1
     1  Mg   0.989590
     2  C    0.011836
     3  C   -0.077339
     4  C   -0.098575
     5  C   -0.124083
     6  N   -0.373948
     7  C    0.024056
     8  C   -0.017328
     9  C   -0.162129
    10  C    0.112302
    11  C    0.027928
    12  C    0.066603
    13  C   -0.063634
    14  C    0.228693
    15  O   -0.260504
    16  O   -0.341961
    17  N   -0.395240
    18  C    0.095474
    19  C   -0.155840
    20  C   -0.093607
    21  C    0.163207
    22  C    0.045576
    23  C    0.043553
    24  O   -0.236580
    25  C    0.001105
    26  N   -0.449443
    27  C    0.054594
    28  C   -0.093100
    29  C   -0.074927
    30  C    0.102290
    31  C    0.037930
    32  C   -0.034709
    33  C   -0.042992
    34  N   -0.432022
    35  C    0.150929
    36  C   -0.180636
    37  C   -0.020854
    38  C    0.130671
    39  C    0.064382
    40  C    0.133061
    41  O   -0.183456
    42  C   -0.158491
    43  C    0.281176
    44  O   -0.245374
    45  O   -0.355197
    46  C    0.136595
    47  C    0.284111
    48  C   -0.172902
    49  C   -0.162922
    50  C    0.015467
    51  C   -0.008468
    52  C   -0.017386
    53  C   -0.001321
    54  C   -0.180595
    55  C   -0.012436
    56  C    0.026820
    57  C   -0.088250
    58  C    0.063318
    59  C   -0.189732
    60  C   -0.010928
    61  C    0.072078
    62  C   -0.056429
    63  C   -0.005082
    64  C   -0.207168
    65  C   -0.005096
    66  C   -0.017889
    67  H   -0.000175
    68  H    0.018587
    69  H   -0.005392
    70  H    0.044136
    71  H    0.033064
    72  H    0.047005
    73  H    0.034728
    74  H    0.034387
    75  H    0.028144
    76  H    0.044586
    77  H    0.056665
    78  H    0.041797
    79  H    0.046733
    80  H    0.017720
    81  H    0.036704
    82  H    0.051969
    83  H    0.053823
    84  H    0.044210
    85  H    0.044563
    86  H    0.042233
    87  H    0.038042
    88  H    0.048046
    89  H    0.042263
    90  H    0.033817
    91  H    0.037643
    92  H    0.037955
    93  H    0.064948
    94  H    0.041615
    95  H    0.032609
    96  H    0.065357
    97  H    0.051187
    98  H    0.106629
    99  H    0.055508
   100  H    0.035474
   101  H    0.064194
   102  H    0.065535
   103  H    0.048988
   104  H    0.018649
   105  H    0.049415
   106  H    0.028463
   107  H    0.045775
   108  H    0.017989
   109  H    0.033351
   110  H    0.036056
   111  H    0.032540
   112  H    0.016149
   113  H    0.019956
   114  H    0.016852
   115  H    0.032908
   116  H    0.030328
   117  H    0.027845
   118  H    0.015739
   119  H    0.026021
   120  H    0.016451
   121  H    0.021340
   122  H    0.008989
   123  H    0.009083
   124  H    0.015050
   125  H    0.023822
   126  H    0.022463
   127  H    0.031254
   128  H    0.009763
   129  H    0.013129
   130  H    0.001774
   131  H    0.012646
   132  H    0.019783
   133  H    0.006374
   134  H    0.021799
   135  H    0.024840
   136  H    0.028219
   137  H    0.033215
   138  H    0.034943
   139  H    0.032870
   140  H    0.024090
 Sum of Mulliken charges =  -0.00000

 Dipole moment (field-independent basis, Debye):
    X=             -3.7728    Y=              1.6378    Z=              0.3448  Tot=              4.1274
 Quadrupole moment (field-independent basis, Debye-Ang):
   XX=           -370.7904   YY=           -416.6991   ZZ=           -409.1261
   XY=             -6.3384   XZ=             14.2327   YZ=              2.6869

 Normal termination of Gaussian 16 at Fri Apr 29 03:31:21 2022.
