 Gaussian 16, Revision A.03,
 Gaussian 16:  ES64L-G16RevA.03 25-Dec-2016

 --------------------
 #p ZINDO=(nstates=5)
 --------------------

 ------------------------------
 step_1851_chromophore_16 ZINDO
 ------------------------------
 Symbolic Z-matrix:
 Charge =  0 Multiplicity = 1

                         Standard orientation:
 ---------------------------------------------------------------------
 Center     Atomic      Atomic             Coordinates (Angstroms)
 Number     Number       Type             X           Y           Z
 ---------------------------------------------------------------------
      1         12           0        6.335320    0.661272    0.148906
      2          6           0        4.003634   -2.020231   -0.100335
      3          6           0        3.795323    2.852458   -0.909572
      4          6           0        8.544601    3.082301    0.160905
      5          6           0        8.887614   -1.698125    0.588564
      6          7           0        4.245691    0.442315   -0.395882
      7          6           0        3.502637   -0.693063   -0.377840
      8          6           0        2.012504   -0.436222   -0.699643
      9          6           0        1.953387    1.061482   -0.952225
     10          6           0        3.445808    1.546186   -0.757525
     11          6           0        1.352245    1.522119   -2.320133
     12          6           0        0.987565   -0.991811    0.239489
     13          6           0       -0.259751   -1.499338   -0.438422
     14          6           0       -1.266197   -2.421760    0.293833
     15          8           0       -0.976383   -3.173122    1.208032
     16          8           0       -2.501526   -2.311804   -0.207052
     17          7           0        6.254828    2.675412   -0.346689
     18          6           0        5.131556    3.395717   -0.680343
     19          6           0        5.544352    4.774458   -0.749670
     20          6           0        6.907363    4.885840   -0.371187
     21          6           0        7.272634    3.455859   -0.288777
     22          6           0        4.542370    5.896540   -0.968938
     23          6           0        7.684552    6.165261   -0.186823
     24          8           0        8.863636    6.071330    0.094852
     25          6           0        7.029242    7.573670   -0.300092
     26          7           0        8.327465    0.647133    0.157142
     27          6           0        9.062181    1.845188    0.373388
     28          6           0       10.588200    1.618730    0.757682
     29          6           0       10.630043    0.056425    0.711350
     30          6           0        9.226366   -0.359149    0.451568
     31          6           0       11.606889    2.211824   -0.161244
     32          6           0       11.328856   -0.540050    1.952620
     33          6           0       10.458797   -0.671822    3.219050
     34          7           0        6.440862   -1.436287    0.395881
     35          6           0        7.566867   -2.240570    0.500981
     36          6           0        7.111947   -3.600193    0.557774
     37          6           0        5.737898   -3.551694    0.396033
     38          6           0        5.381242   -2.229736    0.181651
     39          6           0        7.972407   -4.742466    0.647423
     40          6           0        4.554018   -4.422552    0.372216
     41          8           0        4.519548   -5.630730    0.559150
     42          6           0        3.374562   -3.383124    0.102510
     43          6           0        2.679815   -3.986350   -1.098416
     44          8           0        2.913039   -3.687512   -2.266703
     45          8           0        1.726472   -4.870514   -0.580593
     46          6           0        0.886402   -5.444649   -1.600259
     47          6           0       -3.589391   -3.015512    0.457616
     48          6           0       -4.803218   -2.434111   -0.176595
     49          6           0       -6.000782   -2.925581   -0.310893
     50          6           0       -6.530611   -4.266155    0.269999
     51          6           0       -7.165234   -2.204150   -0.933686
     52          6           0       -7.663822   -0.750548   -0.263337
     53          6           0       -9.220464   -0.492198   -0.463508
     54          6           0       -9.466380    0.876709   -1.109962
     55          6           0       -9.501671    1.972919    0.008921
     56          6           0      -10.740785    0.939479   -1.920269
     57          6           0      -12.004185    0.850957   -1.087966
     58          6           0      -13.149149    1.448013   -1.795706
     59          6           0      -14.533482    0.924964   -1.380678
     60          6           0      -15.249040    0.050955   -2.468144
     61          6           0      -15.483905    1.952047   -0.711427
     62          6           0      -15.779171    1.685449    0.750230
     63          6           0      -14.711203    2.163962    1.739092
     64          6           0      -14.959548    1.594487    3.147632
     65          6           0      -13.670191    1.457414    3.971557
     66          6           0      -16.102869    2.440623    3.950247
     67          1           0        3.039903    3.604898   -1.144858
     68          1           0        9.322668    3.834869    0.299152
     69          1           0        9.707115   -2.411902    0.688274
     70          1           0        1.988061   -0.864424   -1.701978
     71          1           0        1.335449    1.585394   -0.222729
     72          1           0        1.964732    2.312705   -2.754151
     73          1           0        0.346495    1.831301   -2.034559
     74          1           0        1.308035    0.667041   -2.994142
     75          1           0        0.641292   -0.174294    0.872787
     76          1           0        1.322512   -1.789396    0.901727
     77          1           0       -0.005054   -1.973391   -1.385868
     78          1           0       -0.759894   -0.572026   -0.716177
     79          1           0        4.453098    6.545667   -0.098363
     80          1           0        3.524988    5.610879   -1.236202
     81          1           0        4.755919    6.494126   -1.856207
     82          1           0        6.506515    7.799550   -1.229011
     83          1           0        7.738114    8.378338   -0.100106
     84          1           0        6.269276    7.535563    0.480272
     85          1           0       10.753045    2.040244    1.749789
     86          1           0       11.074533   -0.399095   -0.173589
     87          1           0       12.129313    2.986315    0.401222
     88          1           0       11.010395    2.692981   -0.937004
     89          1           0       12.293216    1.470631   -0.571563
     90          1           0       12.005259    0.276908    2.201409
     91          1           0       11.784548   -1.462289    1.592024
     92          1           0       10.736833   -1.662648    3.577620
     93          1           0        9.381512   -0.645083    3.055320
     94          1           0       10.852244    0.104935    3.874900
     95          1           0        8.719724   -4.541941    1.414380
     96          1           0        8.427156   -4.999884   -0.309161
     97          1           0        7.484107   -5.639174    1.030775
     98          1           0        2.734387   -3.424229    0.982894
     99          1           0        1.366239   -5.493730   -2.578067
    100          1           0        0.018450   -4.817848   -1.804475
    101          1           0        0.577563   -6.420137   -1.224467
    102          1           0       -3.578227   -2.916092    1.542845
    103          1           0       -3.642763   -4.080590    0.229487
    104          1           0       -4.668606   -1.428183   -0.573841
    105          1           0       -7.272871   -3.971761    1.012119
    106          1           0       -5.768330   -4.892218    0.733480
    107          1           0       -7.054334   -4.832504   -0.500489
    108          1           0       -8.013487   -2.847853   -1.169853
    109          1           0       -6.868352   -1.865110   -1.926681
    110          1           0       -7.056179    0.035509   -0.709846
    111          1           0       -7.431037   -0.821842    0.798815
    112          1           0       -9.727657   -0.419372    0.498685
    113          1           0       -9.785209   -1.278369   -0.965621
    114          1           0       -8.574829    1.086705   -1.700259
    115          1           0      -10.151122    2.808141   -0.252320
    116          1           0       -8.523701    2.403817    0.221032
    117          1           0       -9.904542    1.506446    0.907491
    118          1           0      -10.826880    0.034525   -2.521045
    119          1           0      -10.775158    1.835743   -2.539180
    120          1           0      -11.850203    1.457314   -0.194855
    121          1           0      -12.185107   -0.157657   -0.716140
    122          1           0      -12.977938    1.303295   -2.861896
    123          1           0      -13.186127    2.524512   -1.630030
    124          1           0      -14.373887    0.125279   -0.658169
    125          1           0      -16.005499    0.635427   -2.991494
    126          1           0      -15.857800   -0.737799   -2.024548
    127          1           0      -14.524889   -0.421469   -3.130844
    128          1           0      -16.443465    1.903938   -1.224945
    129          1           0      -15.113932    2.976826   -0.767258
    130          1           0      -15.816780    0.612518    0.941218
    131          1           0      -16.766114    2.026620    1.065587
    132          1           0      -14.655036    3.252330    1.718642
    133          1           0      -13.758599    1.795262    1.358009
    134          1           0      -15.347990    0.580095    3.065637
    135          1           0      -13.031794    2.300694    3.706128
    136          1           0      -13.177882    0.545785    3.630703
    137          1           0      -13.733269    1.427355    5.058870
    138          1           0      -15.662296    2.836766    4.865931
    139          1           0      -16.997823    1.848336    4.138331
    140          1           0      -16.459050    3.225019    3.282613
 ---------------------------------------------------------------------

 SCF Done:  E(RZINDO/S) =  -474.603613245     A.U. after   19 cycles

 Excitation energies and oscillator strengths:

 Excited State   1:      Singlet-A      1.2438 eV  996.85 nm  f=0.5515  <S**2>=0.000
     175 ->178         0.12610
     176 ->177         0.67635
 This state for optimization and/or second-order correction.
 Total Energy, E(CIS/TDA) =  -474.557906030
 Copying the excited state density for this state as the 1-particle RhoCI density.

 Excited State   2:      Singlet-A      1.9519 eV  635.19 nm  f=0.0952  <S**2>=0.000
     175 ->177         0.57648
     176 ->178        -0.31651
     176 ->179        -0.19244

 Excited State   3:      Singlet-A      2.9000 eV  427.54 nm  f=0.0405  <S**2>=0.000
     167 ->179         0.11770
     168 ->177         0.33482
     168 ->178        -0.24969
     168 ->179         0.29339
     168 ->182         0.12602
     168 ->185        -0.15927
     171 ->177        -0.25931
     176 ->178         0.13083

 Excited State   4:      Singlet-A      2.9738 eV  416.92 nm  f=0.5018  <S**2>=0.000
     168 ->177        -0.16398
     168 ->178         0.11834
     168 ->179        -0.13683
     171 ->177        -0.26936
     173 ->177        -0.13730
     175 ->177         0.24512
     176 ->178         0.46445

 Excited State   5:      Singlet-A      3.0509 eV  406.38 nm  f=0.0402  <S**2>=0.000
     170 ->177         0.18982
     170 ->179        -0.15373
     170 ->180         0.30529
     170 ->182         0.21347
     170 ->185         0.13764
     170 ->188         0.19138
     171 ->180         0.12293
     174 ->177        -0.11138
     176 ->178         0.11205
     176 ->179        -0.22630
     176 ->180         0.24313
     176 ->182         0.10628

 The electronic state is 1-A.
 Alpha  occ. eigenvalues --   -1.85966  -1.82513  -1.79699  -1.74779  -1.72256
 Alpha  occ. eigenvalues --   -1.71657  -1.68186  -1.61456  -1.58338  -1.57297
 Alpha  occ. eigenvalues --   -1.54790  -1.52502  -1.50436  -1.50316  -1.48695
 Alpha  occ. eigenvalues --   -1.45801  -1.44572  -1.42236  -1.39806  -1.38591
 Alpha  occ. eigenvalues --   -1.37174  -1.35790  -1.31856  -1.31081  -1.28652
 Alpha  occ. eigenvalues --   -1.26942  -1.25022  -1.22357  -1.19968  -1.18522
 Alpha  occ. eigenvalues --   -1.17781  -1.15643  -1.15329  -1.14219  -1.13846
 Alpha  occ. eigenvalues --   -1.12766  -1.11290  -1.09965  -1.04215  -1.03558
 Alpha  occ. eigenvalues --   -1.02447  -1.00830  -0.99822  -0.97746  -0.97492
 Alpha  occ. eigenvalues --   -0.97176  -0.94383  -0.94120  -0.92904  -0.92507
 Alpha  occ. eigenvalues --   -0.91305  -0.89971  -0.88568  -0.87495  -0.86472
 Alpha  occ. eigenvalues --   -0.85411  -0.84417  -0.84164  -0.81867  -0.81290
 Alpha  occ. eigenvalues --   -0.79446  -0.78680  -0.78197  -0.76788  -0.76102
 Alpha  occ. eigenvalues --   -0.75683  -0.75517  -0.74461  -0.74111  -0.73146
 Alpha  occ. eigenvalues --   -0.72901  -0.72668  -0.72174  -0.71124  -0.70775
 Alpha  occ. eigenvalues --   -0.70384  -0.70028  -0.69465  -0.68235  -0.68044
 Alpha  occ. eigenvalues --   -0.67979  -0.67215  -0.66380  -0.65794  -0.65309
 Alpha  occ. eigenvalues --   -0.65062  -0.64969  -0.64920  -0.64249  -0.63583
 Alpha  occ. eigenvalues --   -0.63420  -0.62746  -0.62489  -0.62307  -0.61424
 Alpha  occ. eigenvalues --   -0.61185  -0.60884  -0.60585  -0.60250  -0.60003
 Alpha  occ. eigenvalues --   -0.59643  -0.58400  -0.58269  -0.58225  -0.57838
 Alpha  occ. eigenvalues --   -0.57519  -0.57396  -0.56903  -0.56579  -0.56313
 Alpha  occ. eigenvalues --   -0.55931  -0.55272  -0.55246  -0.54636  -0.54565
 Alpha  occ. eigenvalues --   -0.54142  -0.54083  -0.53505  -0.53383  -0.53307
 Alpha  occ. eigenvalues --   -0.52904  -0.52641  -0.52066  -0.51734  -0.51547
 Alpha  occ. eigenvalues --   -0.51230  -0.50942  -0.50846  -0.50697  -0.50313
 Alpha  occ. eigenvalues --   -0.49897  -0.49406  -0.49287  -0.49074  -0.48888
 Alpha  occ. eigenvalues --   -0.48552  -0.48252  -0.48095  -0.47882  -0.47492
 Alpha  occ. eigenvalues --   -0.47466  -0.47035  -0.46897  -0.46619  -0.46174
 Alpha  occ. eigenvalues --   -0.46013  -0.45865  -0.45579  -0.45516  -0.45223
 Alpha  occ. eigenvalues --   -0.44972  -0.44897  -0.44505  -0.44147  -0.44013
 Alpha  occ. eigenvalues --   -0.43940  -0.42904  -0.42864  -0.42569  -0.42468
 Alpha  occ. eigenvalues --   -0.42350  -0.41491  -0.40942  -0.39566  -0.39141
 Alpha  occ. eigenvalues --   -0.38368  -0.37068  -0.35966  -0.34691  -0.33843
 Alpha  occ. eigenvalues --   -0.33511  -0.33228  -0.32400  -0.31178  -0.26925
 Alpha  occ. eigenvalues --   -0.21727
 Alpha virt. eigenvalues --   -0.08638  -0.01409  -0.00592   0.01522   0.02004
 Alpha virt. eigenvalues --    0.02421   0.02856   0.03428   0.04949   0.05178
 Alpha virt. eigenvalues --    0.06024   0.07158   0.07656   0.07903   0.08391

 Mulliken charges:
               1
     1  Mg   0.425426
     2  C   -0.078412
     3  C   -0.054535
     4  C   -0.048242
     5  C   -0.083214
     6  N   -0.280674
     7  C    0.176792
     8  C    0.011947
     9  C   -0.010296
    10  C    0.069664
    11  C   -0.058110
    12  C   -0.011619
    13  C    0.002348
    14  C    0.468019
    15  O   -0.524052
    16  O   -0.258907
    17  N   -0.277775
    18  C    0.036827
    19  C   -0.021007
    20  C   -0.080442
    21  C    0.140527
    22  C   -0.053186
    23  C    0.326314
    24  O   -0.535236
    25  C   -0.031268
    26  N   -0.285246
    27  C    0.071458
    28  C    0.002746
    29  C   -0.000336
    30  C    0.188331
    31  C   -0.051281
    32  C   -0.036987
    33  C   -0.059499
    34  N   -0.344273
    35  C    0.129188
    36  C    0.074316
    37  C   -0.042389
    38  C    0.144181
    39  C   -0.032528
    40  C    0.331573
    41  O   -0.496836
    42  C    0.068452
    43  C    0.484504
    44  O   -0.519781
    45  O   -0.255909
    46  C    0.074566
    47  C    0.113592
    48  C   -0.072822
    49  C   -0.005303
    50  C   -0.049478
    51  C   -0.038442
    52  C   -0.038514
    53  C   -0.036512
    54  C   -0.010204
    55  C   -0.060320
    56  C   -0.027365
    57  C   -0.029370
    58  C   -0.023676
    59  C   -0.018702
    60  C   -0.060461
    61  C   -0.026729
    62  C   -0.035372
    63  C   -0.025776
    64  C   -0.015260
    65  C   -0.057093
    66  C   -0.067969
    67  H    0.035376
    68  H    0.043563
    69  H    0.028618
    70  H    0.040225
    71  H    0.023172
    72  H    0.033722
    73  H    0.018515
    74  H    0.022303
    75  H    0.022076
    76  H    0.031587
    77  H    0.044746
    78  H    0.027831
    79  H    0.026179
    80  H    0.012060
    81  H    0.019685
    82  H    0.037427
    83  H    0.035424
    84  H    0.033139
    85  H    0.036640
    86  H    0.036968
    87  H    0.021628
    88  H    0.029985
    89  H    0.022603
    90  H    0.023629
    91  H    0.026359
    92  H    0.016123
    93  H    0.035159
    94  H    0.026744
    95  H    0.022326
    96  H    0.043666
    97  H    0.031047
    98  H    0.068301
    99  H    0.047285
   100  H    0.031747
   101  H    0.038959
   102  H    0.058988
   103  H    0.049852
   104  H    0.024973
   105  H    0.027753
   106  H    0.020013
   107  H    0.026921
   108  H    0.024601
   109  H    0.011974
   110  H    0.031031
   111  H    0.021092
   112  H    0.016096
   113  H    0.023564
   114  H    0.015723
   115  H    0.015396
   116  H    0.014170
   117  H    0.021000
   118  H    0.011439
   119  H    0.021134
   120  H    0.013557
   121  H    0.022275
   122  H    0.015263
   123  H    0.016079
   124  H    0.013745
   125  H    0.017230
   126  H    0.012821
   127  H    0.020996
   128  H    0.013743
   129  H    0.020052
   130  H    0.011238
   131  H    0.015898
   132  H    0.020744
   133  H    0.013820
   134  H    0.018230
   135  H    0.013709
   136  H    0.012333
   137  H    0.022851
   138  H    0.026588
   139  H    0.020959
   140  H    0.017968
 Sum of Mulliken charges =  -0.00000

 Dipole moment (field-independent basis, Debye):
    X=             -4.6090    Y=             -0.1644    Z=              0.6293  Tot=              4.6547
 N-N= 4.187584484566D+03 E-N= 0.000000000000D+00  KE=-9.049778199306D+03
 Leave Link  601 at Fri Apr 29 03:48:52 2022, MaxMem=  6710886400 cpu:               0.8 elap:               0.1
 (Enter /sw/apps/gaussian-16.0/g16/l9999.exe)
 1\1\GINC-BP1-COMPUTE138\SP\RZINDO CIS\STO-3G\C55H74Mg1N4O6\OF15641\29-
 Apr-2022\0\\#p ZINDO=(nstates=5)\\step_1851_chromophore_16 ZINDO\\0,1\
 Mg,0,41.083,41.087,26.95\C,0,40.284,43.436,29.506\C,0,42.006,38.802,29
 .46\C,0,42.03,39.018,24.591\C,0,40.72,43.648,24.587\N,0,41.119,41.12,2
 9.12\C,0,40.714,42.125,29.937\C,0,40.76,41.734,31.432\C,0,41.294,40.31
 1,31.414\C,0,41.521,40.002,29.88\C,0,42.569,40.026,32.273\C,0,39.533,4
 1.972,32.256\C,0,39.815,42.422,33.667\C,0,38.715,43.057,34.554\O,0,37.

 Normal termination of Gaussian 16 at Fri Apr 29 03:48:52 2022.
