 Gaussian 16, Revision A.03,
 Gaussian 16:  ES64L-G16RevA.03 25-Dec-2016

 ------------------------------
 #p blyp/Def2SVP td=(nstates=5)
 ------------------------------

 --------------------------------------------------
 step_851_chromophore_10 TDDFT with blyp functional
 --------------------------------------------------
 Symbolic Z-matrix:
 Charge =  0 Multiplicity = 1

                         Standard orientation:
 ---------------------------------------------------------------------
 Center     Atomic      Atomic             Coordinates (Angstroms)
 Number     Number       Type             X           Y           Z
 ---------------------------------------------------------------------
      1         12           0        5.904469    0.418073    0.024049
      2          6           0        3.309796   -1.965908   -0.447715
      3          6           0        3.638184    2.796377   -1.053006
      4          6           0        8.429076    2.633155    0.004679
      5          6           0        8.021024   -2.136686    0.507939
      6          7           0        3.789456    0.387948   -0.885554
      7          6           0        2.916755   -0.693482   -0.800465
      8          6           0        1.482510   -0.216825   -1.036005
      9          6           0        1.692054    1.258271   -1.553903
     10          6           0        3.126945    1.514648   -1.097235
     11          6           0        1.485575    1.503280   -3.071554
     12          6           0        0.549747   -0.290101    0.157992
     13          6           0       -0.898985   -0.841691   -0.075527
     14          6           0       -1.537568   -1.695081    1.073715
     15          8           0       -1.022428   -2.706430    1.538463
     16          8           0       -2.806945   -1.245744    1.403630
     17          7           0        6.067457    2.493752   -0.502257
     18          6           0        5.020617    3.329284   -0.787715
     19          6           0        5.436316    4.695185   -0.702399
     20          6           0        6.815349    4.670890   -0.269650
     21          6           0        7.174680    3.246715   -0.229813
     22          6           0        4.559741    5.847103   -1.070848
     23          6           0        7.687449    5.810448    0.150887
     24          8           0        8.854213    5.674552    0.454437
     25          6           0        7.067382    7.217951    0.055914
     26          7           0        7.954763    0.230251   -0.093948
     27          6           0        8.783903    1.298717   -0.005372
     28          6           0       10.192891    0.945826    0.496586
     29          6           0       10.083389   -0.580942    0.690912
     30          6           0        8.571085   -0.887226    0.404145
     31          6           0       11.413057    1.272616   -0.480884
     32          6           0       10.534516   -0.914289    2.145216
     33          6           0        9.592628   -0.496459    3.250370
     34          7           0        5.717942   -1.608816    0.206095
     35          6           0        6.686676   -2.559308    0.475909
     36          6           0        6.123158   -3.898485    0.630207
     37          6           0        4.773847   -3.723576    0.285030
     38          6           0        4.618442   -2.336551   -0.036721
     39          6           0        6.937019   -5.100407    0.929666
     40          6           0        3.479128   -4.359693    0.093766
     41          8           0        3.077320   -5.521788    0.223780
     42          6           0        2.488441   -3.239289   -0.380377
     43          6           0        1.745657   -3.552919   -1.603495
     44          8           0        2.189626   -3.619925   -2.727213
     45          8           0        0.423869   -3.562361   -1.317892
     46          6           0       -0.518079   -3.948816   -2.348984
     47          6           0       -3.489969   -2.143387    2.336112
     48          6           0       -4.941377   -2.065155    2.038206
     49          6           0       -5.624977   -2.782239    1.078561
     50          6           0       -4.957669   -3.778458    0.089799
     51          6           0       -7.153754   -2.808827    0.961762
     52          6           0       -7.768801   -1.493716    0.486388
     53          6           0       -8.065834   -1.401779   -1.041754
     54          6           0       -9.450613   -0.755890   -1.309612
     55          6           0       -9.959625   -1.192540   -2.686564
     56          6           0       -9.352032    0.786257   -1.127536
     57          6           0      -10.498420    1.477098   -0.429760
     58          6           0      -10.177175    1.734181    1.078800
     59          6           0      -10.985757    2.996007    1.528167
     60          6           0      -10.131176    3.734985    2.610837
     61          6           0      -12.439138    2.559629    1.912702
     62          6           0      -13.476905    2.995805    0.845139
     63          6           0      -14.708973    2.091223    0.848417
     64          6           0      -15.104739    1.446413   -0.513520
     65          6           0      -16.599999    1.069087   -0.604308
     66          6           0      -14.156215    0.319188   -0.860609
     67          1           0        2.972947    3.655844   -1.158443
     68          1           0        9.229736    3.359996    0.157031
     69          1           0        8.711383   -2.941679    0.768045
     70          1           0        1.028458   -0.913588   -1.740988
     71          1           0        1.058564    1.950840   -1.000072
     72          1           0        1.380259    0.567458   -3.619474
     73          1           0        2.241559    2.080595   -3.604365
     74          1           0        0.591420    2.117805   -3.180044
     75          1           0        0.496333    0.690946    0.629568
     76          1           0        1.066725   -0.809168    0.964478
     77          1           0       -0.982177   -1.443694   -0.979874
     78          1           0       -1.547637    0.025273   -0.205778
     79          1           0        4.083587    6.236788   -0.170700
     80          1           0        3.709955    5.445684   -1.622892
     81          1           0        4.960798    6.715716   -1.592072
     82          1           0        6.070634    7.236280    0.497105
     83          1           0        7.051290    7.597596   -0.965943
     84          1           0        7.737534    7.953961    0.500368
     85          1           0       10.369479    1.446391    1.448988
     86          1           0       10.584264   -1.231277   -0.025234
     87          1           0       11.225082    1.167854   -1.549372
     88          1           0       12.165920    0.530507   -0.215216
     89          1           0       11.773190    2.290358   -0.324264
     90          1           0       11.490144   -0.406251    2.272935
     91          1           0       10.839743   -1.960453    2.174802
     92          1           0        9.780981    0.550868    3.483313
     93          1           0        9.701111   -1.141467    4.122309
     94          1           0        8.567233   -0.577514    2.890808
     95          1           0        6.341633   -5.804803    1.509817
     96          1           0        7.852924   -4.943205    1.498704
     97          1           0        7.141168   -5.645839    0.007446
     98          1           0        1.760406   -2.988661    0.390661
     99          1           0       -1.518382   -3.559710   -2.156896
    100          1           0       -0.631109   -5.033465   -2.348378
    101          1           0       -0.221766   -3.573834   -3.327918
    102          1           0       -3.364439   -1.606790    3.275835
    103          1           0       -3.062654   -3.141737    2.432281
    104          1           0       -5.560795   -1.536592    2.762779
    105          1           0       -5.340217   -4.784161    0.265063
    106          1           0       -3.878580   -3.788684    0.243317
    107          1           0       -5.036863   -3.565230   -0.976110
    108          1           0       -7.580969   -3.127441    1.912512
    109          1           0       -7.429375   -3.478704    0.146873
    110          1           0       -7.063432   -0.684276    0.675770
    111          1           0       -8.691486   -1.341472    1.047277
    112          1           0       -8.248448   -2.367839   -1.512930
    113          1           0       -7.215920   -0.915615   -1.519378
    114          1           0      -10.093583   -1.133998   -0.515150
    115          1           0       -9.189818   -1.599785   -3.341515
    116          1           0      -10.222100   -0.287101   -3.235201
    117          1           0      -10.892974   -1.742514   -2.567163
    118          1           0       -9.316745    1.163635   -2.149550
    119          1           0       -8.379311    0.942405   -0.663302
    120          1           0      -11.341479    0.786718   -0.429774
    121          1           0      -10.875555    2.286788   -1.055748
    122          1           0       -9.093103    1.839763    1.133458
    123          1           0      -10.551778    0.869117    1.626151
    124          1           0      -11.019496    3.708447    0.703664
    125          1           0      -10.698172    3.815129    3.537779
    126          1           0       -9.949597    4.718165    2.176616
    127          1           0       -9.195070    3.224208    2.835449
    128          1           0      -12.513654    3.108941    2.851726
    129          1           0      -12.435558    1.509720    2.204002
    130          1           0      -13.134223    2.904268   -0.185555
    131          1           0      -13.687091    4.059976    0.951693
    132          1           0      -15.534383    2.768481    1.070799
    133          1           0      -14.668962    1.280556    1.576347
    134          1           0      -14.951588    2.239461   -1.244940
    135          1           0      -17.114639    1.460104    0.274229
    136          1           0      -16.841685    0.015327   -0.739434
    137          1           0      -17.058875    1.665988   -1.392817
    138          1           0      -14.739226   -0.563223   -1.126068
    139          1           0      -13.473094    0.013819   -0.067202
    140          1           0      -13.560191    0.609061   -1.725759
 ---------------------------------------------------------------------

 SCF Done:  E(RB-LYP) =  -3007.39867861     A.U. after   23 cycles

 Excitation energies and oscillator strengths:

 Excited State   1:      Singlet-A      1.7911 eV  692.23 nm  f=0.3075  <S**2>=0.000
     245 -> 248       -0.16786
     246 -> 247        0.68426
     246 <- 247       -0.15641
 This state for optimization and/or second-order correction.
 Total Energy, E(TD-HF/TD-DFT) =  -3007.33285743
 Copying the excited state density for this state as the 1-particle RhoCI density.

 Excited State   2:      Singlet-A      1.8753 eV  661.13 nm  f=0.0310  <S**2>=0.000
     244 -> 247        0.59182
     245 -> 247        0.35608

 Excited State   3:      Singlet-A      1.9079 eV  649.86 nm  f=0.0138  <S**2>=0.000
     243 -> 247        0.65294
     244 -> 247        0.20167
     245 -> 247       -0.14872

 Excited State   4:      Singlet-A      1.9315 eV  641.92 nm  f=0.0746  <S**2>=0.000
     243 -> 247        0.24417
     244 -> 247       -0.32874
     245 -> 247        0.53814
     246 -> 248        0.15003

 Excited State   5:      Singlet-A      2.2795 eV  543.92 nm  f=0.0000  <S**2>=0.000
     242 -> 247        0.70230

 The electronic state is 1-A.
 Alpha  occ. eigenvalues --  -46.27510 -18.82210 -18.81916 -18.77076 -18.76024
 Alpha  occ. eigenvalues --  -18.75525 -18.75482 -14.03002 -14.02876 -14.01039
 Alpha  occ. eigenvalues --  -14.00699 -10.04244 -10.03294  -9.99724  -9.99639
 Alpha  occ. eigenvalues --   -9.97718  -9.97327  -9.96388  -9.96227  -9.96030
 Alpha  occ. eigenvalues --   -9.95874  -9.95733  -9.95467  -9.95311  -9.94810
 Alpha  occ. eigenvalues --   -9.94157  -9.94060  -9.93973  -9.93921  -9.93890
 Alpha  occ. eigenvalues --   -9.93888  -9.93597  -9.93400  -9.93220  -9.93219
 Alpha  occ. eigenvalues --   -9.93024  -9.92980  -9.92845  -9.92562  -9.92453
 Alpha  occ. eigenvalues --   -9.92439  -9.92400  -9.92286  -9.92271  -9.92217
 Alpha  occ. eigenvalues --   -9.92065  -9.91977  -9.91845  -9.91841  -9.91777
 Alpha  occ. eigenvalues --   -9.91622  -9.91612  -9.91540  -9.91525  -9.91456
 Alpha  occ. eigenvalues --   -9.91438  -9.91362  -9.91103  -9.90989  -9.90887
 Alpha  occ. eigenvalues --   -9.90818  -9.90810  -9.90712  -9.90578  -9.90466
 Alpha  occ. eigenvalues --   -9.90271  -2.92147  -1.72523  -1.72047  -1.71874
 Alpha  occ. eigenvalues --   -0.98377  -0.97559  -0.91865  -0.90369  -0.89860
 Alpha  occ. eigenvalues --   -0.89799  -0.86785  -0.85987  -0.85711  -0.84700
 Alpha  occ. eigenvalues --   -0.75548  -0.73615  -0.72908  -0.72682  -0.72394
 Alpha  occ. eigenvalues --   -0.72048  -0.71595  -0.70923  -0.70909  -0.70456
 Alpha  occ. eigenvalues --   -0.69806  -0.68842  -0.68065  -0.67484  -0.66938
 Alpha  occ. eigenvalues --   -0.66493  -0.66012  -0.65186  -0.65109  -0.64334
 Alpha  occ. eigenvalues --   -0.64124  -0.62748  -0.62325  -0.61592  -0.60836
 Alpha  occ. eigenvalues --   -0.60566  -0.60298  -0.59919  -0.59465  -0.58748
 Alpha  occ. eigenvalues --   -0.58369  -0.57710  -0.56513  -0.55660  -0.55299
 Alpha  occ. eigenvalues --   -0.54232  -0.53401  -0.52708  -0.52508  -0.51639
 Alpha  occ. eigenvalues --   -0.51438  -0.50961  -0.50614  -0.50277  -0.49760
 Alpha  occ. eigenvalues --   -0.49527  -0.49207  -0.48436  -0.48415  -0.46562
 Alpha  occ. eigenvalues --   -0.46425  -0.45881  -0.45573  -0.45030  -0.44502
 Alpha  occ. eigenvalues --   -0.43647  -0.43371  -0.42954  -0.42763  -0.42542
 Alpha  occ. eigenvalues --   -0.42089  -0.41739  -0.41607  -0.41350  -0.41143
 Alpha  occ. eigenvalues --   -0.40996  -0.40769  -0.40330  -0.40029  -0.39789
 Alpha  occ. eigenvalues --   -0.39614  -0.39493  -0.39410  -0.39226  -0.39144
 Alpha  occ. eigenvalues --   -0.39050  -0.38670  -0.38428  -0.38307  -0.38142
 Alpha  occ. eigenvalues --   -0.37970  -0.37698  -0.37393  -0.37285  -0.37084
 Alpha  occ. eigenvalues --   -0.36874  -0.36669  -0.36585  -0.36559  -0.36469
 Alpha  occ. eigenvalues --   -0.36152  -0.35952  -0.35818  -0.35585  -0.35467
 Alpha  occ. eigenvalues --   -0.35292  -0.35099  -0.34990  -0.34887  -0.34790
 Alpha  occ. eigenvalues --   -0.34584  -0.34567  -0.34254  -0.34223  -0.34070
 Alpha  occ. eigenvalues --   -0.33986  -0.33834  -0.33629  -0.33373  -0.33098
 Alpha  occ. eigenvalues --   -0.32846  -0.32711  -0.32506  -0.32362  -0.32221
 Alpha  occ. eigenvalues --   -0.32015  -0.31916  -0.31716  -0.31651  -0.31364
 Alpha  occ. eigenvalues --   -0.31280  -0.31169  -0.30931  -0.30884  -0.30717
 Alpha  occ. eigenvalues --   -0.30421  -0.30349  -0.30219  -0.30133  -0.29952
 Alpha  occ. eigenvalues --   -0.29649  -0.29569  -0.29438  -0.29254  -0.28917
 Alpha  occ. eigenvalues --   -0.28507  -0.28325  -0.28132  -0.28001  -0.27808
 Alpha  occ. eigenvalues --   -0.27414  -0.27362  -0.27211  -0.26843  -0.26661
 Alpha  occ. eigenvalues --   -0.26279  -0.26164  -0.25326  -0.25163  -0.25015
 Alpha  occ. eigenvalues --   -0.24919  -0.24812  -0.24470  -0.23539  -0.23428
 Alpha  occ. eigenvalues --   -0.22796  -0.22591  -0.22215  -0.21390  -0.20939
 Alpha  occ. eigenvalues --   -0.20286  -0.20161  -0.18712  -0.18615  -0.16997
 Alpha  occ. eigenvalues --   -0.15920
 Alpha virt. eigenvalues --   -0.11787  -0.06652  -0.06057  -0.04459  -0.03763
 Alpha virt. eigenvalues --   -0.03531  -0.02921  -0.02269  -0.01219   0.00617
 Alpha virt. eigenvalues --    0.01704   0.02082   0.02167   0.02410   0.02623

 Mulliken charges:
               1
     1  Mg   0.690469
     2  C    0.011668
     3  C   -0.042257
     4  C   -0.050446
     5  C   -0.050265
     6  N   -0.172480
     7  C   -0.090946
     8  C    0.001700
     9  C    0.023777
    10  C    0.035892
    11  C    0.136823
    12  C    0.128798
    13  C    0.147373
    14  C    0.074921
    15  O   -0.190545
    16  O   -0.272622
    17  N   -0.256289
    18  C    0.054542
    19  C   -0.120258
    20  C    0.041173
    21  C    0.062043
    22  C    0.165800
    23  C   -0.081187
    24  O   -0.146822
    25  C    0.109489
    26  N   -0.250659
    27  C    0.088034
    28  C   -0.012771
    29  C    0.049577
    30  C    0.014250
    31  C    0.110291
    32  C    0.065366
    33  C    0.079769
    34  N   -0.259286
    35  C    0.107163
    36  C   -0.166876
    37  C    0.103757
    38  C    0.030125
    39  C    0.168387
    40  C   -0.029585
    41  O   -0.137323
    42  C    0.111019
    43  C    0.080389
    44  O   -0.166583
    45  O   -0.259988
    46  C    0.210418
    47  C    0.329527
    48  C   -0.091175
    49  C   -0.153987
    50  C    0.109520
    51  C    0.168217
    52  C    0.064290
    53  C    0.067420
    54  C   -0.133554
    55  C    0.154334
    56  C    0.133926
    57  C    0.053797
    58  C    0.102759
    59  C   -0.128075
    60  C    0.121569
    61  C    0.137329
    62  C    0.094642
    63  C    0.093884
    64  C   -0.124923
    65  C    0.125533
    66  C    0.117216
    67  H   -0.074149
    68  H   -0.045289
    69  H   -0.076980
    70  H   -0.023642
    71  H   -0.030923
    72  H    0.000218
    73  H   -0.007349
    74  H   -0.015068
    75  H   -0.036500
    76  H   -0.021632
    77  H    0.003139
    78  H   -0.019072
    79  H   -0.004813
    80  H   -0.015079
    81  H    0.005006
    82  H    0.002988
    83  H    0.012079
    84  H   -0.020171
    85  H   -0.009021
    86  H   -0.021604
    87  H   -0.004129
    88  H   -0.009721
    89  H    0.002043
    90  H   -0.028676
    91  H   -0.034322
    92  H   -0.003287
    93  H   -0.003162
    94  H    0.004720
    95  H   -0.000649
    96  H   -0.003753
    97  H    0.011746
    98  H    0.009527
    99  H    0.011547
   100  H    0.020570
   101  H    0.014123
   102  H   -0.029198
   103  H    0.026185
   104  H   -0.039018
   105  H    0.008490
   106  H   -0.014209
   107  H   -0.000432
   108  H   -0.013143
   109  H   -0.042453
   110  H   -0.019650
   111  H   -0.028179
   112  H   -0.036022
   113  H   -0.023903
   114  H   -0.042168
   115  H   -0.015383
   116  H   -0.042132
   117  H   -0.008108
   118  H   -0.054417
   119  H   -0.038777
   120  H   -0.050898
   121  H   -0.026924
   122  H   -0.025798
   123  H   -0.022783
   124  H   -0.035147
   125  H   -0.026814
   126  H   -0.013515
   127  H   -0.015666
   128  H   -0.045884
   129  H   -0.031320
   130  H   -0.031418
   131  H   -0.027596
   132  H   -0.045623
   133  H   -0.025928
   134  H   -0.040705
   135  H   -0.030788
   136  H   -0.008634
   137  H   -0.022132
   138  H   -0.031456
   139  H    0.002155
   140  H   -0.007397
 Sum of Mulliken charges =  -0.00000

 Dipole moment (field-independent basis, Debye):
    X=             -3.9999    Y=              3.0389    Z=              0.7750  Tot=              5.0827
 Quadrupole moment (field-independent basis, Debye-Ang):
   XX=           -375.5741   YY=           -424.5306   ZZ=           -406.3647
   XY=            -10.7006   XZ=             16.9104   YZ=             -7.3497

 Normal termination of Gaussian 16 at Thu May  5 11:12:11 2022.
