 Gaussian 16, Revision A.03,
 Gaussian 16:  ES64L-G16RevA.03 25-Dec-2016

 -----------------------------------
 #p cam-b3lyp/Def2SVP td=(nstates=5)
 -----------------------------------

 -------------------------------------------------------
 step_851_chromophore_10 TDDFT with cam-b3lyp functional
 -------------------------------------------------------
 Symbolic Z-matrix:
 Charge =  0 Multiplicity = 1

                         Standard orientation:
 ---------------------------------------------------------------------
 Center     Atomic      Atomic             Coordinates (Angstroms)
 Number     Number       Type             X           Y           Z
 ---------------------------------------------------------------------
      1         12           0        5.904469    0.418073    0.024049
      2          6           0        3.309796   -1.965908   -0.447715
      3          6           0        3.638184    2.796377   -1.053006
      4          6           0        8.429076    2.633155    0.004679
      5          6           0        8.021024   -2.136686    0.507939
      6          7           0        3.789456    0.387948   -0.885554
      7          6           0        2.916755   -0.693482   -0.800465
      8          6           0        1.482510   -0.216825   -1.036005
      9          6           0        1.692054    1.258271   -1.553903
     10          6           0        3.126945    1.514648   -1.097235
     11          6           0        1.485575    1.503280   -3.071554
     12          6           0        0.549747   -0.290101    0.157992
     13          6           0       -0.898985   -0.841691   -0.075527
     14          6           0       -1.537568   -1.695081    1.073715
     15          8           0       -1.022428   -2.706430    1.538463
     16          8           0       -2.806945   -1.245744    1.403630
     17          7           0        6.067457    2.493752   -0.502257
     18          6           0        5.020617    3.329284   -0.787715
     19          6           0        5.436316    4.695185   -0.702399
     20          6           0        6.815349    4.670890   -0.269650
     21          6           0        7.174680    3.246715   -0.229813
     22          6           0        4.559741    5.847103   -1.070848
     23          6           0        7.687449    5.810448    0.150887
     24          8           0        8.854213    5.674552    0.454437
     25          6           0        7.067382    7.217951    0.055914
     26          7           0        7.954763    0.230251   -0.093948
     27          6           0        8.783903    1.298717   -0.005372
     28          6           0       10.192891    0.945826    0.496586
     29          6           0       10.083389   -0.580942    0.690912
     30          6           0        8.571085   -0.887226    0.404145
     31          6           0       11.413057    1.272616   -0.480884
     32          6           0       10.534516   -0.914289    2.145216
     33          6           0        9.592628   -0.496459    3.250370
     34          7           0        5.717942   -1.608816    0.206095
     35          6           0        6.686676   -2.559308    0.475909
     36          6           0        6.123158   -3.898485    0.630207
     37          6           0        4.773847   -3.723576    0.285030
     38          6           0        4.618442   -2.336551   -0.036721
     39          6           0        6.937019   -5.100407    0.929666
     40          6           0        3.479128   -4.359693    0.093766
     41          8           0        3.077320   -5.521788    0.223780
     42          6           0        2.488441   -3.239289   -0.380377
     43          6           0        1.745657   -3.552919   -1.603495
     44          8           0        2.189626   -3.619925   -2.727213
     45          8           0        0.423869   -3.562361   -1.317892
     46          6           0       -0.518079   -3.948816   -2.348984
     47          6           0       -3.489969   -2.143387    2.336112
     48          6           0       -4.941377   -2.065155    2.038206
     49          6           0       -5.624977   -2.782239    1.078561
     50          6           0       -4.957669   -3.778458    0.089799
     51          6           0       -7.153754   -2.808827    0.961762
     52          6           0       -7.768801   -1.493716    0.486388
     53          6           0       -8.065834   -1.401779   -1.041754
     54          6           0       -9.450613   -0.755890   -1.309612
     55          6           0       -9.959625   -1.192540   -2.686564
     56          6           0       -9.352032    0.786257   -1.127536
     57          6           0      -10.498420    1.477098   -0.429760
     58          6           0      -10.177175    1.734181    1.078800
     59          6           0      -10.985757    2.996007    1.528167
     60          6           0      -10.131176    3.734985    2.610837
     61          6           0      -12.439138    2.559629    1.912702
     62          6           0      -13.476905    2.995805    0.845139
     63          6           0      -14.708973    2.091223    0.848417
     64          6           0      -15.104739    1.446413   -0.513520
     65          6           0      -16.599999    1.069087   -0.604308
     66          6           0      -14.156215    0.319188   -0.860609
     67          1           0        2.972947    3.655844   -1.158443
     68          1           0        9.229736    3.359996    0.157031
     69          1           0        8.711383   -2.941679    0.768045
     70          1           0        1.028458   -0.913588   -1.740988
     71          1           0        1.058564    1.950840   -1.000072
     72          1           0        1.380259    0.567458   -3.619474
     73          1           0        2.241559    2.080595   -3.604365
     74          1           0        0.591420    2.117805   -3.180044
     75          1           0        0.496333    0.690946    0.629568
     76          1           0        1.066725   -0.809168    0.964478
     77          1           0       -0.982177   -1.443694   -0.979874
     78          1           0       -1.547637    0.025273   -0.205778
     79          1           0        4.083587    6.236788   -0.170700
     80          1           0        3.709955    5.445684   -1.622892
     81          1           0        4.960798    6.715716   -1.592072
     82          1           0        6.070634    7.236280    0.497105
     83          1           0        7.051290    7.597596   -0.965943
     84          1           0        7.737534    7.953961    0.500368
     85          1           0       10.369479    1.446391    1.448988
     86          1           0       10.584264   -1.231277   -0.025234
     87          1           0       11.225082    1.167854   -1.549372
     88          1           0       12.165920    0.530507   -0.215216
     89          1           0       11.773190    2.290358   -0.324264
     90          1           0       11.490144   -0.406251    2.272935
     91          1           0       10.839743   -1.960453    2.174802
     92          1           0        9.780981    0.550868    3.483313
     93          1           0        9.701111   -1.141467    4.122309
     94          1           0        8.567233   -0.577514    2.890808
     95          1           0        6.341633   -5.804803    1.509817
     96          1           0        7.852924   -4.943205    1.498704
     97          1           0        7.141168   -5.645839    0.007446
     98          1           0        1.760406   -2.988661    0.390661
     99          1           0       -1.518382   -3.559710   -2.156896
    100          1           0       -0.631109   -5.033465   -2.348378
    101          1           0       -0.221766   -3.573834   -3.327918
    102          1           0       -3.364439   -1.606790    3.275835
    103          1           0       -3.062654   -3.141737    2.432281
    104          1           0       -5.560795   -1.536592    2.762779
    105          1           0       -5.340217   -4.784161    0.265063
    106          1           0       -3.878580   -3.788684    0.243317
    107          1           0       -5.036863   -3.565230   -0.976110
    108          1           0       -7.580969   -3.127441    1.912512
    109          1           0       -7.429375   -3.478704    0.146873
    110          1           0       -7.063432   -0.684276    0.675770
    111          1           0       -8.691486   -1.341472    1.047277
    112          1           0       -8.248448   -2.367839   -1.512930
    113          1           0       -7.215920   -0.915615   -1.519378
    114          1           0      -10.093583   -1.133998   -0.515150
    115          1           0       -9.189818   -1.599785   -3.341515
    116          1           0      -10.222100   -0.287101   -3.235201
    117          1           0      -10.892974   -1.742514   -2.567163
    118          1           0       -9.316745    1.163635   -2.149550
    119          1           0       -8.379311    0.942405   -0.663302
    120          1           0      -11.341479    0.786718   -0.429774
    121          1           0      -10.875555    2.286788   -1.055748
    122          1           0       -9.093103    1.839763    1.133458
    123          1           0      -10.551778    0.869117    1.626151
    124          1           0      -11.019496    3.708447    0.703664
    125          1           0      -10.698172    3.815129    3.537779
    126          1           0       -9.949597    4.718165    2.176616
    127          1           0       -9.195070    3.224208    2.835449
    128          1           0      -12.513654    3.108941    2.851726
    129          1           0      -12.435558    1.509720    2.204002
    130          1           0      -13.134223    2.904268   -0.185555
    131          1           0      -13.687091    4.059976    0.951693
    132          1           0      -15.534383    2.768481    1.070799
    133          1           0      -14.668962    1.280556    1.576347
    134          1           0      -14.951588    2.239461   -1.244940
    135          1           0      -17.114639    1.460104    0.274229
    136          1           0      -16.841685    0.015327   -0.739434
    137          1           0      -17.058875    1.665988   -1.392817
    138          1           0      -14.739226   -0.563223   -1.126068
    139          1           0      -13.473094    0.013819   -0.067202
    140          1           0      -13.560191    0.609061   -1.725759
 ---------------------------------------------------------------------

 SCF Done:  E(RCAM-B3LYP) =  -3007.19786428     A.U. after   17 cycles

 Excitation energies and oscillator strengths:

 Excited State   1:      Singlet-A      1.6730 eV  741.07 nm  f=0.4141  <S**2>=0.000
     245 -> 248       -0.16857
     246 -> 247        0.68810
     245 <- 248       -0.10439
 This state for optimization and/or second-order correction.
 Total Energy, E(TD-HF/TD-DFT) =  -3007.13638093
 Copying the excited state density for this state as the 1-particle RhoCI density.

 Excited State   2:      Singlet-A      2.1162 eV  585.88 nm  f=0.1590  <S**2>=0.000
     245 -> 247        0.66212
     246 -> 248        0.23315

 Excited State   3:      Singlet-A      3.2558 eV  380.81 nm  f=0.0030  <S**2>=0.000
     244 -> 247        0.68425
     246 -> 248       -0.10865

 Excited State   4:      Singlet-A      3.4341 eV  361.04 nm  f=0.0051  <S**2>=0.000
     240 -> 247       -0.20619
     240 -> 249        0.10851
     241 -> 247        0.37317
     241 -> 249       -0.24899
     241 -> 251       -0.12279
     242 -> 247        0.39591
     246 -> 248       -0.15177

 Excited State   5:      Singlet-A      3.5168 eV  352.55 nm  f=0.0480  <S**2>=0.000
     240 -> 247        0.10233
     240 -> 249       -0.12858
     241 -> 247       -0.36660
     241 -> 249        0.10981
     242 -> 247        0.43716
     246 -> 248       -0.30366

 The electronic state is 1-A.
 Alpha  occ. eigenvalues --  -46.89083 -19.25000 -19.24877 -19.20002 -19.19132
 Alpha  occ. eigenvalues --  -19.18791 -19.18771 -14.41906 -14.41652 -14.39502
 Alpha  occ. eigenvalues --  -14.39136 -10.39594 -10.38672 -10.35156 -10.34890
 Alpha  occ. eigenvalues --  -10.31745 -10.31318 -10.30895 -10.30620 -10.30376
 Alpha  occ. eigenvalues --  -10.30272 -10.30083 -10.29714 -10.29676 -10.29194
 Alpha  occ. eigenvalues --  -10.28726 -10.28474 -10.28134 -10.28091 -10.27937
 Alpha  occ. eigenvalues --  -10.27907 -10.27535 -10.27437 -10.27335 -10.27158
 Alpha  occ. eigenvalues --  -10.27123 -10.27061 -10.26932 -10.26756 -10.26395
 Alpha  occ. eigenvalues --  -10.26307 -10.26145 -10.26120 -10.25984 -10.25912
 Alpha  occ. eigenvalues --  -10.25902 -10.25838 -10.25770 -10.25738 -10.25713
 Alpha  occ. eigenvalues --  -10.25512 -10.25403 -10.25234 -10.25207 -10.25191
 Alpha  occ. eigenvalues --  -10.25084 -10.25044 -10.24769 -10.24674 -10.24468
 Alpha  occ. eigenvalues --  -10.24452 -10.24385 -10.24278 -10.24178 -10.24108
 Alpha  occ. eigenvalues --  -10.23915  -3.17621  -1.92474  -1.92088  -1.91934
 Alpha  occ. eigenvalues --   -1.16962  -1.15937  -1.10347  -1.08800  -1.07857
 Alpha  occ. eigenvalues --   -1.07617  -1.04521  -1.03644  -1.03322  -1.02201
 Alpha  occ. eigenvalues --   -0.92725  -0.90469  -0.89689  -0.89435  -0.89086
 Alpha  occ. eigenvalues --   -0.88734  -0.88285  -0.87586  -0.87486  -0.87064
 Alpha  occ. eigenvalues --   -0.86337  -0.85131  -0.84301  -0.83652  -0.83073
 Alpha  occ. eigenvalues --   -0.82512  -0.81998  -0.81208  -0.80999  -0.80157
 Alpha  occ. eigenvalues --   -0.80044  -0.78489  -0.77998  -0.77100  -0.76272
 Alpha  occ. eigenvalues --   -0.75938  -0.75629  -0.75196  -0.74755  -0.73957
 Alpha  occ. eigenvalues --   -0.73461  -0.72691  -0.71381  -0.70436  -0.69965
 Alpha  occ. eigenvalues --   -0.68929  -0.67923  -0.67191  -0.66879  -0.65814
 Alpha  occ. eigenvalues --   -0.65717  -0.64949  -0.64663  -0.64245  -0.63802
 Alpha  occ. eigenvalues --   -0.63289  -0.63091  -0.62275  -0.62140  -0.60207
 Alpha  occ. eigenvalues --   -0.60071  -0.59400  -0.59111  -0.58347  -0.58163
 Alpha  occ. eigenvalues --   -0.57061  -0.56569  -0.56166  -0.56069  -0.55759
 Alpha  occ. eigenvalues --   -0.55103  -0.54903  -0.54614  -0.54500  -0.54058
 Alpha  occ. eigenvalues --   -0.53740  -0.53557  -0.53010  -0.52857  -0.52480
 Alpha  occ. eigenvalues --   -0.52320  -0.52228  -0.52021  -0.51891  -0.51829
 Alpha  occ. eigenvalues --   -0.51611  -0.51308  -0.51092  -0.50847  -0.50474
 Alpha  occ. eigenvalues --   -0.50270  -0.49915  -0.49761  -0.49661  -0.49378
 Alpha  occ. eigenvalues --   -0.49290  -0.49111  -0.49034  -0.48812  -0.48692
 Alpha  occ. eigenvalues --   -0.48596  -0.48180  -0.48095  -0.47753  -0.47665
 Alpha  occ. eigenvalues --   -0.47467  -0.47064  -0.46935  -0.46813  -0.46750
 Alpha  occ. eigenvalues --   -0.46496  -0.46394  -0.46239  -0.46065  -0.45986
 Alpha  occ. eigenvalues --   -0.45673  -0.45665  -0.45296  -0.45191  -0.45069
 Alpha  occ. eigenvalues --   -0.44603  -0.44377  -0.44217  -0.43992  -0.43922
 Alpha  occ. eigenvalues --   -0.43801  -0.43697  -0.43215  -0.43090  -0.42888
 Alpha  occ. eigenvalues --   -0.42664  -0.42511  -0.42475  -0.42267  -0.42021
 Alpha  occ. eigenvalues --   -0.41933  -0.41782  -0.41747  -0.41446  -0.41316
 Alpha  occ. eigenvalues --   -0.41154  -0.40894  -0.40666  -0.40490  -0.40076
 Alpha  occ. eigenvalues --   -0.39533  -0.39440  -0.39318  -0.38945  -0.38689
 Alpha  occ. eigenvalues --   -0.38307  -0.38272  -0.38033  -0.37988  -0.37564
 Alpha  occ. eigenvalues --   -0.36971  -0.36875  -0.36435  -0.36203  -0.35896
 Alpha  occ. eigenvalues --   -0.35773  -0.35722  -0.34982  -0.34428  -0.34359
 Alpha  occ. eigenvalues --   -0.34076  -0.33097  -0.32609  -0.31326  -0.31005
 Alpha  occ. eigenvalues --   -0.30884  -0.30307  -0.29913  -0.29515  -0.23718
 Alpha  occ. eigenvalues --   -0.21273
 Alpha virt. eigenvalues --   -0.09103  -0.01258   0.00288   0.01473   0.02488
 Alpha virt. eigenvalues --    0.03687   0.04807   0.05496   0.06202   0.07713
 Alpha virt. eigenvalues --    0.08008   0.08197   0.08418   0.08827   0.09119

 Mulliken charges:
               1
     1  Mg   0.821558
     2  C   -0.019557
     3  C   -0.056459
     4  C   -0.063852
     5  C   -0.058469
     6  N   -0.241721
     7  C   -0.042816
     8  C   -0.048339
     9  C   -0.027996
    10  C    0.051921
    11  C    0.078677
    12  C    0.071160
    13  C    0.083370
    14  C    0.155346
    15  O   -0.232607
    16  O   -0.336292
    17  N   -0.341663
    18  C    0.066640
    19  C   -0.129183
    20  C   -0.025134
    21  C    0.083483
    22  C    0.101992
    23  C   -0.001344
    24  O   -0.188940
    25  C    0.028656
    26  N   -0.320055
    27  C    0.109999
    28  C   -0.078091
    29  C   -0.003635
    30  C    0.025901
    31  C    0.061236
    32  C    0.010912
    33  C    0.019841
    34  N   -0.348628
    35  C    0.108993
    36  C   -0.158553
    37  C    0.021223
    38  C    0.070284
    39  C    0.115472
    40  C    0.074194
    41  O   -0.175863
    42  C    0.032072
    43  C    0.167775
    44  O   -0.203262
    45  O   -0.323073
    46  C    0.171231
    47  C    0.284652
    48  C   -0.111833
    49  C   -0.172931
    50  C    0.054390
    51  C    0.106804
    52  C    0.009388
    53  C    0.016996
    54  C   -0.181301
    55  C    0.087451
    56  C    0.077721
    57  C    0.006810
    58  C    0.052053
    59  C   -0.182490
    60  C    0.065348
    61  C    0.082042
    62  C    0.041258
    63  C    0.037813
    64  C   -0.182036
    65  C    0.063435
    66  C    0.057187
    67  H   -0.040589
    68  H   -0.004608
    69  H   -0.040908
    70  H    0.008858
    71  H    0.003926
    72  H    0.024487
    73  H    0.019853
    74  H    0.008783
    75  H   -0.004201
    76  H    0.011518
    77  H    0.029779
    78  H    0.016996
    79  H    0.023208
    80  H    0.012835
    81  H    0.032533
    82  H    0.029656
    83  H    0.040355
    84  H    0.016155
    85  H    0.024669
    86  H    0.014525
    87  H    0.020984
    88  H    0.012321
    89  H    0.025341
    90  H    0.000127
    91  H   -0.005269
    92  H    0.018577
    93  H    0.022266
    94  H    0.025106
    95  H    0.027066
    96  H    0.021019
    97  H    0.039447
    98  H    0.053898
    99  H    0.029671
   100  H    0.043795
   101  H    0.040568
   102  H    0.002936
   103  H    0.058836
   104  H   -0.006499
   105  H    0.032001
   106  H    0.006807
   107  H    0.022255
   108  H    0.017597
   109  H   -0.010828
   110  H    0.007600
   111  H   -0.000571
   112  H   -0.007732
   113  H    0.003794
   114  H   -0.011108
   115  H    0.010514
   116  H   -0.016407
   117  H    0.016372
   118  H   -0.023286
   119  H   -0.010235
   120  H   -0.027743
   121  H    0.000445
   122  H    0.000873
   123  H    0.001929
   124  H   -0.002541
   125  H   -0.003203
   126  H    0.009908
   127  H    0.008741
   128  H   -0.015495
   129  H   -0.004698
   130  H   -0.006960
   131  H    0.002294
   132  H   -0.014841
   133  H    0.001844
   134  H   -0.008008
   135  H   -0.004809
   136  H    0.015162
   137  H    0.002831
   138  H   -0.005018
   139  H    0.021361
   140  H    0.013974
 Sum of Mulliken charges =  -0.00000

 Dipole moment (field-independent basis, Debye):
    X=             -3.9266    Y=              3.5218    Z=              0.8089  Tot=              5.3362
 Quadrupole moment (field-independent basis, Debye-Ang):
   XX=           -374.3207   YY=           -419.6333   ZZ=           -406.3544
   XY=             -8.7068   XZ=             18.4083   YZ=             -7.5549

 Normal termination of Gaussian 16 at Thu May  5 10:12:54 2022.
