 Gaussian 16, Revision A.03,
 Gaussian 16:  ES64L-G16RevA.03 25-Dec-2016

 ---------------------------------
 #p PBE1PBE/Def2SVP td=(nstates=5)
 ---------------------------------

 -----------------------------------------------------
 step_851_chromophore_10 TDDFT with PBE1PBE functional
 -----------------------------------------------------
 Symbolic Z-matrix:
 Charge =  0 Multiplicity = 1

                         Standard orientation:
 ---------------------------------------------------------------------
 Center     Atomic      Atomic             Coordinates (Angstroms)
 Number     Number       Type             X           Y           Z
 ---------------------------------------------------------------------
      1         12           0        5.904469    0.418073    0.024049
      2          6           0        3.309796   -1.965908   -0.447715
      3          6           0        3.638184    2.796377   -1.053006
      4          6           0        8.429076    2.633155    0.004679
      5          6           0        8.021024   -2.136686    0.507939
      6          7           0        3.789456    0.387948   -0.885554
      7          6           0        2.916755   -0.693482   -0.800465
      8          6           0        1.482510   -0.216825   -1.036005
      9          6           0        1.692054    1.258271   -1.553903
     10          6           0        3.126945    1.514648   -1.097235
     11          6           0        1.485575    1.503280   -3.071554
     12          6           0        0.549747   -0.290101    0.157992
     13          6           0       -0.898985   -0.841691   -0.075527
     14          6           0       -1.537568   -1.695081    1.073715
     15          8           0       -1.022428   -2.706430    1.538463
     16          8           0       -2.806945   -1.245744    1.403630
     17          7           0        6.067457    2.493752   -0.502257
     18          6           0        5.020617    3.329284   -0.787715
     19          6           0        5.436316    4.695185   -0.702399
     20          6           0        6.815349    4.670890   -0.269650
     21          6           0        7.174680    3.246715   -0.229813
     22          6           0        4.559741    5.847103   -1.070848
     23          6           0        7.687449    5.810448    0.150887
     24          8           0        8.854213    5.674552    0.454437
     25          6           0        7.067382    7.217951    0.055914
     26          7           0        7.954763    0.230251   -0.093948
     27          6           0        8.783903    1.298717   -0.005372
     28          6           0       10.192891    0.945826    0.496586
     29          6           0       10.083389   -0.580942    0.690912
     30          6           0        8.571085   -0.887226    0.404145
     31          6           0       11.413057    1.272616   -0.480884
     32          6           0       10.534516   -0.914289    2.145216
     33          6           0        9.592628   -0.496459    3.250370
     34          7           0        5.717942   -1.608816    0.206095
     35          6           0        6.686676   -2.559308    0.475909
     36          6           0        6.123158   -3.898485    0.630207
     37          6           0        4.773847   -3.723576    0.285030
     38          6           0        4.618442   -2.336551   -0.036721
     39          6           0        6.937019   -5.100407    0.929666
     40          6           0        3.479128   -4.359693    0.093766
     41          8           0        3.077320   -5.521788    0.223780
     42          6           0        2.488441   -3.239289   -0.380377
     43          6           0        1.745657   -3.552919   -1.603495
     44          8           0        2.189626   -3.619925   -2.727213
     45          8           0        0.423869   -3.562361   -1.317892
     46          6           0       -0.518079   -3.948816   -2.348984
     47          6           0       -3.489969   -2.143387    2.336112
     48          6           0       -4.941377   -2.065155    2.038206
     49          6           0       -5.624977   -2.782239    1.078561
     50          6           0       -4.957669   -3.778458    0.089799
     51          6           0       -7.153754   -2.808827    0.961762
     52          6           0       -7.768801   -1.493716    0.486388
     53          6           0       -8.065834   -1.401779   -1.041754
     54          6           0       -9.450613   -0.755890   -1.309612
     55          6           0       -9.959625   -1.192540   -2.686564
     56          6           0       -9.352032    0.786257   -1.127536
     57          6           0      -10.498420    1.477098   -0.429760
     58          6           0      -10.177175    1.734181    1.078800
     59          6           0      -10.985757    2.996007    1.528167
     60          6           0      -10.131176    3.734985    2.610837
     61          6           0      -12.439138    2.559629    1.912702
     62          6           0      -13.476905    2.995805    0.845139
     63          6           0      -14.708973    2.091223    0.848417
     64          6           0      -15.104739    1.446413   -0.513520
     65          6           0      -16.599999    1.069087   -0.604308
     66          6           0      -14.156215    0.319188   -0.860609
     67          1           0        2.972947    3.655844   -1.158443
     68          1           0        9.229736    3.359996    0.157031
     69          1           0        8.711383   -2.941679    0.768045
     70          1           0        1.028458   -0.913588   -1.740988
     71          1           0        1.058564    1.950840   -1.000072
     72          1           0        1.380259    0.567458   -3.619474
     73          1           0        2.241559    2.080595   -3.604365
     74          1           0        0.591420    2.117805   -3.180044
     75          1           0        0.496333    0.690946    0.629568
     76          1           0        1.066725   -0.809168    0.964478
     77          1           0       -0.982177   -1.443694   -0.979874
     78          1           0       -1.547637    0.025273   -0.205778
     79          1           0        4.083587    6.236788   -0.170700
     80          1           0        3.709955    5.445684   -1.622892
     81          1           0        4.960798    6.715716   -1.592072
     82          1           0        6.070634    7.236280    0.497105
     83          1           0        7.051290    7.597596   -0.965943
     84          1           0        7.737534    7.953961    0.500368
     85          1           0       10.369479    1.446391    1.448988
     86          1           0       10.584264   -1.231277   -0.025234
     87          1           0       11.225082    1.167854   -1.549372
     88          1           0       12.165920    0.530507   -0.215216
     89          1           0       11.773190    2.290358   -0.324264
     90          1           0       11.490144   -0.406251    2.272935
     91          1           0       10.839743   -1.960453    2.174802
     92          1           0        9.780981    0.550868    3.483313
     93          1           0        9.701111   -1.141467    4.122309
     94          1           0        8.567233   -0.577514    2.890808
     95          1           0        6.341633   -5.804803    1.509817
     96          1           0        7.852924   -4.943205    1.498704
     97          1           0        7.141168   -5.645839    0.007446
     98          1           0        1.760406   -2.988661    0.390661
     99          1           0       -1.518382   -3.559710   -2.156896
    100          1           0       -0.631109   -5.033465   -2.348378
    101          1           0       -0.221766   -3.573834   -3.327918
    102          1           0       -3.364439   -1.606790    3.275835
    103          1           0       -3.062654   -3.141737    2.432281
    104          1           0       -5.560795   -1.536592    2.762779
    105          1           0       -5.340217   -4.784161    0.265063
    106          1           0       -3.878580   -3.788684    0.243317
    107          1           0       -5.036863   -3.565230   -0.976110
    108          1           0       -7.580969   -3.127441    1.912512
    109          1           0       -7.429375   -3.478704    0.146873
    110          1           0       -7.063432   -0.684276    0.675770
    111          1           0       -8.691486   -1.341472    1.047277
    112          1           0       -8.248448   -2.367839   -1.512930
    113          1           0       -7.215920   -0.915615   -1.519378
    114          1           0      -10.093583   -1.133998   -0.515150
    115          1           0       -9.189818   -1.599785   -3.341515
    116          1           0      -10.222100   -0.287101   -3.235201
    117          1           0      -10.892974   -1.742514   -2.567163
    118          1           0       -9.316745    1.163635   -2.149550
    119          1           0       -8.379311    0.942405   -0.663302
    120          1           0      -11.341479    0.786718   -0.429774
    121          1           0      -10.875555    2.286788   -1.055748
    122          1           0       -9.093103    1.839763    1.133458
    123          1           0      -10.551778    0.869117    1.626151
    124          1           0      -11.019496    3.708447    0.703664
    125          1           0      -10.698172    3.815129    3.537779
    126          1           0       -9.949597    4.718165    2.176616
    127          1           0       -9.195070    3.224208    2.835449
    128          1           0      -12.513654    3.108941    2.851726
    129          1           0      -12.435558    1.509720    2.204002
    130          1           0      -13.134223    2.904268   -0.185555
    131          1           0      -13.687091    4.059976    0.951693
    132          1           0      -15.534383    2.768481    1.070799
    133          1           0      -14.668962    1.280556    1.576347
    134          1           0      -14.951588    2.239461   -1.244940
    135          1           0      -17.114639    1.460104    0.274229
    136          1           0      -16.841685    0.015327   -0.739434
    137          1           0      -17.058875    1.665988   -1.392817
    138          1           0      -14.739226   -0.563223   -1.126068
    139          1           0      -13.473094    0.013819   -0.067202
    140          1           0      -13.560191    0.609061   -1.725759
 ---------------------------------------------------------------------

 SCF Done:  E(RPBE1PBE) =  -3005.38735625     A.U. after   15 cycles

 Excitation energies and oscillator strengths:

 Excited State   1:      Singlet-A      1.8341 eV  676.00 nm  f=0.3948  <S**2>=0.000
     245 -> 248       -0.16039
     246 -> 247        0.69555
     246 <- 247       -0.11609
 This state for optimization and/or second-order correction.
 Total Energy, E(TD-HF/TD-DFT) =  -3005.31995490
 Copying the excited state density for this state as the 1-particle RhoCI density.

 Excited State   2:      Singlet-A      2.1222 eV  584.22 nm  f=0.1462  <S**2>=0.000
     245 -> 247        0.67012
     246 -> 248        0.20621

 Excited State   3:      Singlet-A      2.9246 eV  423.93 nm  f=0.0048  <S**2>=0.000
     241 -> 247       -0.15596
     242 -> 247       -0.16963
     244 -> 247        0.65068

 Excited State   4:      Singlet-A      2.9490 eV  420.43 nm  f=0.0015  <S**2>=0.000
     240 -> 247       -0.15296
     241 -> 247        0.16999
     242 -> 247        0.60256
     242 -> 249       -0.13596
     244 -> 247        0.19338

 Excited State   5:      Singlet-A      3.0501 eV  406.50 nm  f=0.0005  <S**2>=0.000
     241 -> 247        0.64086
     242 -> 247       -0.20582
     244 -> 247        0.12123

 The electronic state is 1-A.
 Alpha  occ. eigenvalues --  -46.92483 -19.25736 -19.25507 -19.20295 -19.19329
 Alpha  occ. eigenvalues --  -19.18992 -19.18966 -14.41381 -14.41186 -14.39148
 Alpha  occ. eigenvalues --  -14.38801 -10.36648 -10.35643 -10.32290 -10.31980
 Alpha  occ. eigenvalues --  -10.28959 -10.28726 -10.28629 -10.28399 -10.28063
 Alpha  occ. eigenvalues --  -10.27986 -10.27818 -10.27459 -10.27374 -10.26874
 Alpha  occ. eigenvalues --  -10.26363 -10.26149 -10.25841 -10.25755 -10.25716
 Alpha  occ. eigenvalues --  -10.25599 -10.25368 -10.25265 -10.25178 -10.24795
 Alpha  occ. eigenvalues --  -10.24780 -10.24747 -10.24487 -10.24374 -10.23968
 Alpha  occ. eigenvalues --  -10.23770 -10.23718 -10.23705 -10.23512 -10.23423
 Alpha  occ. eigenvalues --  -10.23405 -10.23390 -10.23323 -10.23304 -10.23183
 Alpha  occ. eigenvalues --  -10.23032 -10.22954 -10.22943 -10.22800 -10.22724
 Alpha  occ. eigenvalues --  -10.22670 -10.22630 -10.22373 -10.22275 -10.22015
 Alpha  occ. eigenvalues --  -10.21872 -10.21803 -10.21660 -10.21659 -10.21596
 Alpha  occ. eigenvalues --  -10.21487  -3.14601  -1.87393  -1.86986  -1.86836
 Alpha  occ. eigenvalues --   -1.11729  -1.10762  -1.05058  -1.03521  -1.02662
 Alpha  occ. eigenvalues --   -1.02496  -0.99160  -0.98254  -0.97980  -0.96891
 Alpha  occ. eigenvalues --   -0.87077  -0.84579  -0.83822  -0.83637  -0.83337
 Alpha  occ. eigenvalues --   -0.82878  -0.82606  -0.81914  -0.81618  -0.81351
 Alpha  occ. eigenvalues --   -0.80647  -0.79367  -0.78580  -0.77894  -0.77302
 Alpha  occ. eigenvalues --   -0.76729  -0.76269  -0.75454  -0.75187  -0.74380
 Alpha  occ. eigenvalues --   -0.74260  -0.72757  -0.72263  -0.71425  -0.70606
 Alpha  occ. eigenvalues --   -0.70026  -0.69789  -0.69519  -0.68908  -0.68161
 Alpha  occ. eigenvalues --   -0.67875  -0.67037  -0.65808  -0.64777  -0.64302
 Alpha  occ. eigenvalues --   -0.63381  -0.62150  -0.61644  -0.61131  -0.60256
 Alpha  occ. eigenvalues --   -0.59904  -0.59392  -0.59252  -0.58807  -0.57919
 Alpha  occ. eigenvalues --   -0.57783  -0.57301  -0.56720  -0.56491  -0.54747
 Alpha  occ. eigenvalues --   -0.54484  -0.53906  -0.53708  -0.52986  -0.52610
 Alpha  occ. eigenvalues --   -0.51615  -0.50933  -0.50657  -0.50649  -0.50297
 Alpha  occ. eigenvalues --   -0.49557  -0.49503  -0.49109  -0.48869  -0.48649
 Alpha  occ. eigenvalues --   -0.48132  -0.48080  -0.47704  -0.47407  -0.47049
 Alpha  occ. eigenvalues --   -0.46831  -0.46815  -0.46490  -0.46324  -0.46263
 Alpha  occ. eigenvalues --   -0.46120  -0.45903  -0.45621  -0.45467  -0.45048
 Alpha  occ. eigenvalues --   -0.44848  -0.44490  -0.44333  -0.44229  -0.43940
 Alpha  occ. eigenvalues --   -0.43852  -0.43740  -0.43599  -0.43401  -0.43283
 Alpha  occ. eigenvalues --   -0.43190  -0.42799  -0.42689  -0.42413  -0.42334
 Alpha  occ. eigenvalues --   -0.42094  -0.41699  -0.41575  -0.41477  -0.41390
 Alpha  occ. eigenvalues --   -0.41189  -0.41036  -0.40930  -0.40778  -0.40733
 Alpha  occ. eigenvalues --   -0.40378  -0.40260  -0.39935  -0.39875  -0.39782
 Alpha  occ. eigenvalues --   -0.39364  -0.39159  -0.38979  -0.38726  -0.38698
 Alpha  occ. eigenvalues --   -0.38566  -0.38493  -0.38057  -0.37876  -0.37719
 Alpha  occ. eigenvalues --   -0.37405  -0.37387  -0.37295  -0.37032  -0.36784
 Alpha  occ. eigenvalues --   -0.36696  -0.36586  -0.36552  -0.36268  -0.36226
 Alpha  occ. eigenvalues --   -0.35866  -0.35723  -0.35535  -0.35289  -0.34998
 Alpha  occ. eigenvalues --   -0.34397  -0.34309  -0.34242  -0.33740  -0.33472
 Alpha  occ. eigenvalues --   -0.33284  -0.33038  -0.33012  -0.32812  -0.32432
 Alpha  occ. eigenvalues --   -0.31920  -0.31840  -0.31382  -0.31175  -0.30832
 Alpha  occ. eigenvalues --   -0.30789  -0.30643  -0.29858  -0.29594  -0.29248
 Alpha  occ. eigenvalues --   -0.28925  -0.28210  -0.28065  -0.26918  -0.26089
 Alpha  occ. eigenvalues --   -0.25766  -0.25626  -0.25243  -0.25117  -0.20667
 Alpha  occ. eigenvalues --   -0.18888
 Alpha virt. eigenvalues --   -0.11474  -0.04864  -0.03850  -0.01957  -0.01295
 Alpha virt. eigenvalues --   -0.00792   0.00242   0.00843   0.01689   0.03688
 Alpha virt. eigenvalues --    0.04786   0.04852   0.05005   0.05273   0.05555

 Mulliken charges:
               1
     1  Mg   0.965765
     2  C   -0.037480
     3  C   -0.049610
     4  C   -0.058220
     5  C   -0.052840
     6  N   -0.344530
     7  C    0.035484
     8  C   -0.124825
     9  C   -0.102051
    10  C    0.082899
    11  C    0.024754
    12  C    0.029578
    13  C   -0.000683
    14  C    0.221290
    15  O   -0.264508
    16  O   -0.364904
    17  N   -0.453017
    18  C    0.102828
    19  C   -0.165962
    20  C   -0.068011
    21  C    0.116696
    22  C    0.040498
    23  C    0.050921
    24  O   -0.228088
    25  C   -0.044528
    26  N   -0.426913
    27  C    0.153232
    28  C   -0.162812
    29  C   -0.072752
    30  C    0.056830
    31  C    0.006468
    32  C   -0.052094
    33  C   -0.053732
    34  N   -0.471815
    35  C    0.124561
    36  C   -0.171763
    37  C   -0.030471
    38  C    0.123811
    39  C    0.065178
    40  C    0.171239
    41  O   -0.223015
    42  C   -0.080656
    43  C    0.261673
    44  O   -0.241086
    45  O   -0.356529
    46  C    0.115326
    47  C    0.234887
    48  C   -0.122670
    49  C   -0.207821
    50  C   -0.012084
    51  C    0.041467
    52  C   -0.052783
    53  C   -0.039395
    54  C   -0.264903
    55  C    0.025642
    56  C    0.026388
    57  C   -0.060485
    58  C   -0.007587
    59  C   -0.264793
    60  C    0.006287
    61  C    0.028357
    62  C   -0.021995
    63  C   -0.020265
    64  C   -0.276295
    65  C    0.003250
    66  C   -0.001655
    67  H   -0.007729
    68  H    0.027146
    69  H   -0.008053
    70  H    0.050362
    71  H    0.039775
    72  H    0.051615
    73  H    0.047003
    74  H    0.036282
    75  H    0.028566
    76  H    0.042996
    77  H    0.065421
    78  H    0.050160
    79  H    0.052309
    80  H    0.040725
    81  H    0.059757
    82  H    0.056131
    83  H    0.066799
    84  H    0.044255
    85  H    0.061436
    86  H    0.050464
    87  H    0.048327
    88  H    0.040456
    89  H    0.052274
    90  H    0.035102
    91  H    0.026819
    92  H    0.045353
    93  H    0.050676
    94  H    0.057339
    95  H    0.055177
    96  H    0.046045
    97  H    0.067310
    98  H    0.095200
    99  H    0.050213
   100  H    0.066166
   101  H    0.061465
   102  H    0.032629
   103  H    0.083624
   104  H    0.022957
   105  H    0.059573
   106  H    0.036962
   107  H    0.049720
   108  H    0.049648
   109  H    0.022930
   110  H    0.040276
   111  H    0.032328
   112  H    0.025678
   113  H    0.036459
   114  H    0.026682
   115  H    0.037260
   116  H    0.011451
   117  H    0.043985
   118  H    0.010672
   119  H    0.023223
   120  H    0.016339
   121  H    0.030357
   122  H    0.032671
   123  H    0.034405
   124  H    0.035364
   125  H    0.023756
   126  H    0.037244
   127  H    0.035419
   128  H    0.018973
   129  H    0.025221
   130  H    0.026769
   131  H    0.034370
   132  H    0.019883
   133  H    0.034160
   134  H    0.030677
   135  H    0.022591
   136  H    0.041258
   137  H    0.030717
   138  H    0.023518
   139  H    0.046507
   140  H    0.040714
 Sum of Mulliken charges =  -0.00000

 Dipole moment (field-independent basis, Debye):
    X=             -3.9629    Y=              3.5067    Z=              0.7922  Tot=              5.3506
 Quadrupole moment (field-independent basis, Debye-Ang):
   XX=           -368.5491   YY=           -417.0456   ZZ=           -403.8082
   XY=             -9.7605   XZ=             19.2255   YZ=             -7.8230

 Normal termination of Gaussian 16 at Thu May  5 10:29:47 2022.
