 Gaussian 16, Revision A.03,
 Gaussian 16:  ES64L-G16RevA.03 25-Dec-2016

 --------------------------------
 #p wB97XD/Def2SVP td=(nstates=5)
 --------------------------------

 ----------------------------------------------------
 step_851_chromophore_10 TDDFT with wB97XD functional
 ----------------------------------------------------
 Symbolic Z-matrix:
 Charge =  0 Multiplicity = 1

                         Standard orientation:
 ---------------------------------------------------------------------
 Center     Atomic      Atomic             Coordinates (Angstroms)
 Number     Number       Type             X           Y           Z
 ---------------------------------------------------------------------
      1         12           0        5.904469    0.418073    0.024049
      2          6           0        3.309796   -1.965908   -0.447715
      3          6           0        3.638184    2.796377   -1.053006
      4          6           0        8.429076    2.633155    0.004679
      5          6           0        8.021024   -2.136686    0.507939
      6          7           0        3.789456    0.387948   -0.885554
      7          6           0        2.916755   -0.693482   -0.800465
      8          6           0        1.482510   -0.216825   -1.036005
      9          6           0        1.692054    1.258271   -1.553903
     10          6           0        3.126945    1.514648   -1.097235
     11          6           0        1.485575    1.503280   -3.071554
     12          6           0        0.549747   -0.290101    0.157992
     13          6           0       -0.898985   -0.841691   -0.075527
     14          6           0       -1.537568   -1.695081    1.073715
     15          8           0       -1.022428   -2.706430    1.538463
     16          8           0       -2.806945   -1.245744    1.403630
     17          7           0        6.067457    2.493752   -0.502257
     18          6           0        5.020617    3.329284   -0.787715
     19          6           0        5.436316    4.695185   -0.702399
     20          6           0        6.815349    4.670890   -0.269650
     21          6           0        7.174680    3.246715   -0.229813
     22          6           0        4.559741    5.847103   -1.070848
     23          6           0        7.687449    5.810448    0.150887
     24          8           0        8.854213    5.674552    0.454437
     25          6           0        7.067382    7.217951    0.055914
     26          7           0        7.954763    0.230251   -0.093948
     27          6           0        8.783903    1.298717   -0.005372
     28          6           0       10.192891    0.945826    0.496586
     29          6           0       10.083389   -0.580942    0.690912
     30          6           0        8.571085   -0.887226    0.404145
     31          6           0       11.413057    1.272616   -0.480884
     32          6           0       10.534516   -0.914289    2.145216
     33          6           0        9.592628   -0.496459    3.250370
     34          7           0        5.717942   -1.608816    0.206095
     35          6           0        6.686676   -2.559308    0.475909
     36          6           0        6.123158   -3.898485    0.630207
     37          6           0        4.773847   -3.723576    0.285030
     38          6           0        4.618442   -2.336551   -0.036721
     39          6           0        6.937019   -5.100407    0.929666
     40          6           0        3.479128   -4.359693    0.093766
     41          8           0        3.077320   -5.521788    0.223780
     42          6           0        2.488441   -3.239289   -0.380377
     43          6           0        1.745657   -3.552919   -1.603495
     44          8           0        2.189626   -3.619925   -2.727213
     45          8           0        0.423869   -3.562361   -1.317892
     46          6           0       -0.518079   -3.948816   -2.348984
     47          6           0       -3.489969   -2.143387    2.336112
     48          6           0       -4.941377   -2.065155    2.038206
     49          6           0       -5.624977   -2.782239    1.078561
     50          6           0       -4.957669   -3.778458    0.089799
     51          6           0       -7.153754   -2.808827    0.961762
     52          6           0       -7.768801   -1.493716    0.486388
     53          6           0       -8.065834   -1.401779   -1.041754
     54          6           0       -9.450613   -0.755890   -1.309612
     55          6           0       -9.959625   -1.192540   -2.686564
     56          6           0       -9.352032    0.786257   -1.127536
     57          6           0      -10.498420    1.477098   -0.429760
     58          6           0      -10.177175    1.734181    1.078800
     59          6           0      -10.985757    2.996007    1.528167
     60          6           0      -10.131176    3.734985    2.610837
     61          6           0      -12.439138    2.559629    1.912702
     62          6           0      -13.476905    2.995805    0.845139
     63          6           0      -14.708973    2.091223    0.848417
     64          6           0      -15.104739    1.446413   -0.513520
     65          6           0      -16.599999    1.069087   -0.604308
     66          6           0      -14.156215    0.319188   -0.860609
     67          1           0        2.972947    3.655844   -1.158443
     68          1           0        9.229736    3.359996    0.157031
     69          1           0        8.711383   -2.941679    0.768045
     70          1           0        1.028458   -0.913588   -1.740988
     71          1           0        1.058564    1.950840   -1.000072
     72          1           0        1.380259    0.567458   -3.619474
     73          1           0        2.241559    2.080595   -3.604365
     74          1           0        0.591420    2.117805   -3.180044
     75          1           0        0.496333    0.690946    0.629568
     76          1           0        1.066725   -0.809168    0.964478
     77          1           0       -0.982177   -1.443694   -0.979874
     78          1           0       -1.547637    0.025273   -0.205778
     79          1           0        4.083587    6.236788   -0.170700
     80          1           0        3.709955    5.445684   -1.622892
     81          1           0        4.960798    6.715716   -1.592072
     82          1           0        6.070634    7.236280    0.497105
     83          1           0        7.051290    7.597596   -0.965943
     84          1           0        7.737534    7.953961    0.500368
     85          1           0       10.369479    1.446391    1.448988
     86          1           0       10.584264   -1.231277   -0.025234
     87          1           0       11.225082    1.167854   -1.549372
     88          1           0       12.165920    0.530507   -0.215216
     89          1           0       11.773190    2.290358   -0.324264
     90          1           0       11.490144   -0.406251    2.272935
     91          1           0       10.839743   -1.960453    2.174802
     92          1           0        9.780981    0.550868    3.483313
     93          1           0        9.701111   -1.141467    4.122309
     94          1           0        8.567233   -0.577514    2.890808
     95          1           0        6.341633   -5.804803    1.509817
     96          1           0        7.852924   -4.943205    1.498704
     97          1           0        7.141168   -5.645839    0.007446
     98          1           0        1.760406   -2.988661    0.390661
     99          1           0       -1.518382   -3.559710   -2.156896
    100          1           0       -0.631109   -5.033465   -2.348378
    101          1           0       -0.221766   -3.573834   -3.327918
    102          1           0       -3.364439   -1.606790    3.275835
    103          1           0       -3.062654   -3.141737    2.432281
    104          1           0       -5.560795   -1.536592    2.762779
    105          1           0       -5.340217   -4.784161    0.265063
    106          1           0       -3.878580   -3.788684    0.243317
    107          1           0       -5.036863   -3.565230   -0.976110
    108          1           0       -7.580969   -3.127441    1.912512
    109          1           0       -7.429375   -3.478704    0.146873
    110          1           0       -7.063432   -0.684276    0.675770
    111          1           0       -8.691486   -1.341472    1.047277
    112          1           0       -8.248448   -2.367839   -1.512930
    113          1           0       -7.215920   -0.915615   -1.519378
    114          1           0      -10.093583   -1.133998   -0.515150
    115          1           0       -9.189818   -1.599785   -3.341515
    116          1           0      -10.222100   -0.287101   -3.235201
    117          1           0      -10.892974   -1.742514   -2.567163
    118          1           0       -9.316745    1.163635   -2.149550
    119          1           0       -8.379311    0.942405   -0.663302
    120          1           0      -11.341479    0.786718   -0.429774
    121          1           0      -10.875555    2.286788   -1.055748
    122          1           0       -9.093103    1.839763    1.133458
    123          1           0      -10.551778    0.869117    1.626151
    124          1           0      -11.019496    3.708447    0.703664
    125          1           0      -10.698172    3.815129    3.537779
    126          1           0       -9.949597    4.718165    2.176616
    127          1           0       -9.195070    3.224208    2.835449
    128          1           0      -12.513654    3.108941    2.851726
    129          1           0      -12.435558    1.509720    2.204002
    130          1           0      -13.134223    2.904268   -0.185555
    131          1           0      -13.687091    4.059976    0.951693
    132          1           0      -15.534383    2.768481    1.070799
    133          1           0      -14.668962    1.280556    1.576347
    134          1           0      -14.951588    2.239461   -1.244940
    135          1           0      -17.114639    1.460104    0.274229
    136          1           0      -16.841685    0.015327   -0.739434
    137          1           0      -17.058875    1.665988   -1.392817
    138          1           0      -14.739226   -0.563223   -1.126068
    139          1           0      -13.473094    0.013819   -0.067202
    140          1           0      -13.560191    0.609061   -1.725759
 ---------------------------------------------------------------------

 SCF Done:  E(RwB97XD) =  -3007.89955414     A.U. after   17 cycles

 Excitation energies and oscillator strengths:

 Excited State   1:      Singlet-A      1.6122 eV  769.04 nm  f=0.4132  <S**2>=0.000
     245 -> 248       -0.17468
     246 -> 247        0.68561
     245 <- 248       -0.11381
 This state for optimization and/or second-order correction.
 Total Energy, E(TD-HF/TD-DFT) =  -3007.84030681
 Copying the excited state density for this state as the 1-particle RhoCI density.

 Excited State   2:      Singlet-A      2.0590 eV  602.14 nm  f=0.1545  <S**2>=0.000
     245 -> 247        0.65981
     246 -> 248        0.23726

 Excited State   3:      Singlet-A      3.2824 eV  377.72 nm  f=0.0023  <S**2>=0.000
     244 -> 247        0.67462
     246 -> 248       -0.11607

 Excited State   4:      Singlet-A      3.4675 eV  357.56 nm  f=0.0154  <S**2>=0.000
     240 -> 247       -0.16508
     240 -> 249        0.11451
     241 -> 247        0.27141
     241 -> 249       -0.23820
     242 -> 247        0.47078
     242 -> 249       -0.11208
     246 -> 248       -0.21171

 Excited State   5:      Singlet-A      3.5400 eV  350.24 nm  f=0.0567  <S**2>=0.000
     240 -> 247       -0.21299
     240 -> 249        0.17168
     241 -> 247        0.39863
     241 -> 249       -0.14510
     241 -> 250        0.10118
     242 -> 247       -0.32754
     246 -> 248        0.29799

 The electronic state is 1-A.
 Alpha  occ. eigenvalues --  -46.95441 -19.30263 -19.30094 -19.24928 -19.24073
 Alpha  occ. eigenvalues --  -19.23861 -19.23810 -14.46512 -14.46229 -14.44098
 Alpha  occ. eigenvalues --  -14.43727 -10.43418 -10.42504 -10.39202 -10.38852
 Alpha  occ. eigenvalues --  -10.35493 -10.35212 -10.34922 -10.34622 -10.34378
 Alpha  occ. eigenvalues --  -10.34280 -10.34142 -10.33729 -10.33709 -10.33198
 Alpha  occ. eigenvalues --  -10.32871 -10.32629 -10.32171 -10.32035 -10.31990
 Alpha  occ. eigenvalues --  -10.31971 -10.31583 -10.31536 -10.31379 -10.31204
 Alpha  occ. eigenvalues --  -10.31139 -10.31114 -10.30886 -10.30861 -10.30418
 Alpha  occ. eigenvalues --  -10.30192 -10.30069 -10.30049 -10.29957 -10.29780
 Alpha  occ. eigenvalues --  -10.29768 -10.29761 -10.29760 -10.29671 -10.29644
 Alpha  occ. eigenvalues --  -10.29452 -10.29219 -10.29215 -10.29199 -10.29113
 Alpha  occ. eigenvalues --  -10.29029 -10.28990 -10.28717 -10.28626 -10.28370
 Alpha  occ. eigenvalues --  -10.28284 -10.28217 -10.28098 -10.28045 -10.28006
 Alpha  occ. eigenvalues --  -10.27854  -3.21424  -1.94963  -1.94560  -1.94404
 Alpha  occ. eigenvalues --   -1.19138  -1.18118  -1.12561  -1.11057  -1.10050
 Alpha  occ. eigenvalues --   -1.09818  -1.06529  -1.05642  -1.05349  -1.04245
 Alpha  occ. eigenvalues --   -0.94700  -0.92245  -0.91477  -0.91269  -0.90929
 Alpha  occ. eigenvalues --   -0.90533  -0.90216  -0.89538  -0.89270  -0.89000
 Alpha  occ. eigenvalues --   -0.88278  -0.87013  -0.86212  -0.85536  -0.84944
 Alpha  occ. eigenvalues --   -0.84367  -0.83914  -0.83144  -0.82844  -0.82062
 Alpha  occ. eigenvalues --   -0.81925  -0.80425  -0.79916  -0.79033  -0.78218
 Alpha  occ. eigenvalues --   -0.77719  -0.77465  -0.77112  -0.76581  -0.75809
 Alpha  occ. eigenvalues --   -0.75434  -0.74630  -0.73345  -0.72369  -0.71875
 Alpha  occ. eigenvalues --   -0.70934  -0.69788  -0.69187  -0.68756  -0.67762
 Alpha  occ. eigenvalues --   -0.67563  -0.66883  -0.66680  -0.66244  -0.65607
 Alpha  occ. eigenvalues --   -0.65244  -0.64952  -0.64124  -0.64113  -0.62202
 Alpha  occ. eigenvalues --   -0.61984  -0.61353  -0.61118  -0.60342  -0.60116
 Alpha  occ. eigenvalues --   -0.59044  -0.58437  -0.58105  -0.58036  -0.57694
 Alpha  occ. eigenvalues --   -0.57016  -0.56911  -0.56536  -0.56357  -0.56007
 Alpha  occ. eigenvalues --   -0.55581  -0.55484  -0.54973  -0.54773  -0.54410
 Alpha  occ. eigenvalues --   -0.54205  -0.54172  -0.53939  -0.53784  -0.53703
 Alpha  occ. eigenvalues --   -0.53493  -0.53233  -0.53045  -0.52772  -0.52377
 Alpha  occ. eigenvalues --   -0.52159  -0.51823  -0.51668  -0.51565  -0.51291
 Alpha  occ. eigenvalues --   -0.51191  -0.51048  -0.50936  -0.50711  -0.50644
 Alpha  occ. eigenvalues --   -0.50479  -0.50098  -0.50020  -0.49670  -0.49605
 Alpha  occ. eigenvalues --   -0.49369  -0.48980  -0.48836  -0.48757  -0.48617
 Alpha  occ. eigenvalues --   -0.48407  -0.48272  -0.48126  -0.47995  -0.47917
 Alpha  occ. eigenvalues --   -0.47583  -0.47504  -0.47155  -0.47096  -0.47002
 Alpha  occ. eigenvalues --   -0.46520  -0.46291  -0.46124  -0.45892  -0.45857
 Alpha  occ. eigenvalues --   -0.45732  -0.45624  -0.45149  -0.44979  -0.44830
 Alpha  occ. eigenvalues --   -0.44542  -0.44453  -0.44418  -0.44168  -0.43914
 Alpha  occ. eigenvalues --   -0.43886  -0.43695  -0.43667  -0.43390  -0.43258
 Alpha  occ. eigenvalues --   -0.43002  -0.42756  -0.42564  -0.42359  -0.41979
 Alpha  occ. eigenvalues --   -0.41398  -0.41341  -0.41220  -0.40795  -0.40530
 Alpha  occ. eigenvalues --   -0.40214  -0.40110  -0.39957  -0.39823  -0.39427
 Alpha  occ. eigenvalues --   -0.38975  -0.38830  -0.38464  -0.38210  -0.37740
 Alpha  occ. eigenvalues --   -0.37696  -0.37609  -0.36822  -0.36388  -0.36307
 Alpha  occ. eigenvalues --   -0.36035  -0.34946  -0.34878  -0.33510  -0.32994
 Alpha  occ. eigenvalues --   -0.32887  -0.32459  -0.31948  -0.31695  -0.25632
 Alpha  occ. eigenvalues --   -0.23070
 Alpha virt. eigenvalues --   -0.07470   0.00681   0.02377   0.04421   0.04713
 Alpha virt. eigenvalues --    0.05903   0.07063   0.07647   0.08506   0.10427
 Alpha virt. eigenvalues --    0.11123   0.11598   0.11696   0.12070   0.12287

 Mulliken charges:
               1
     1  Mg   0.956914
     2  C   -0.037820
     3  C   -0.065698
     4  C   -0.070626
     5  C   -0.067379
     6  N   -0.309590
     7  C    0.001892
     8  C   -0.091329
     9  C   -0.075226
    10  C    0.071360
    11  C    0.031892
    12  C    0.034645
    13  C    0.023692
    14  C    0.210204
    15  O   -0.261537
    16  O   -0.364459
    17  N   -0.421693
    18  C    0.089255
    19  C   -0.151627
    20  C   -0.064160
    21  C    0.106747
    22  C    0.052129
    23  C    0.045664
    24  O   -0.222031
    25  C   -0.031627
    26  N   -0.392106
    27  C    0.132827
    28  C   -0.133895
    29  C   -0.052098
    30  C    0.047297
    31  C    0.016321
    32  C   -0.035599
    33  C   -0.034842
    34  N   -0.437104
    35  C    0.118026
    36  C   -0.168574
    37  C   -0.026527
    38  C    0.106978
    39  C    0.073645
    40  C    0.153203
    41  O   -0.212970
    42  C   -0.034701
    43  C    0.234241
    44  O   -0.234067
    45  O   -0.351884
    46  C    0.128982
    47  C    0.246714
    48  C   -0.131297
    49  C   -0.199921
    50  C    0.006663
    51  C    0.061113
    52  C   -0.035239
    53  C   -0.020684
    54  C   -0.233645
    55  C    0.037024
    56  C    0.041743
    57  C   -0.030070
    58  C    0.013530
    59  C   -0.235348
    60  C    0.019431
    61  C    0.041783
    62  C   -0.001026
    63  C   -0.005780
    64  C   -0.243326
    65  C    0.014776
    66  C    0.009484
    67  H   -0.015936
    68  H    0.022306
    69  H   -0.015359
    70  H    0.031235
    71  H    0.029250
    72  H    0.046622
    73  H    0.041573
    74  H    0.030846
    75  H    0.021092
    76  H    0.034361
    77  H    0.051661
    78  H    0.045271
    79  H    0.047023
    80  H    0.035591
    81  H    0.055224
    82  H    0.049483
    83  H    0.062111
    84  H    0.042757
    85  H    0.049269
    86  H    0.041799
    87  H    0.043445
    88  H    0.033001
    89  H    0.047432
    90  H    0.025033
    91  H    0.019917
    92  H    0.039353
    93  H    0.046383
    94  H    0.044947
    95  H    0.050918
    96  H    0.041778
    97  H    0.063091
    98  H    0.082139
    99  H    0.046795
   100  H    0.062869
   101  H    0.058240
   102  H    0.029024
   103  H    0.079820
   104  H    0.020487
   105  H    0.053904
   106  H    0.028346
   107  H    0.043818
   108  H    0.044203
   109  H    0.012165
   110  H    0.029052
   111  H    0.022685
   112  H    0.013291
   113  H    0.028474
   114  H    0.011629
   115  H    0.031962
   116  H    0.004108
   117  H    0.039432
   118  H    0.001308
   119  H    0.010421
   120  H   -0.012019
   121  H    0.022314
   122  H    0.021220
   123  H    0.023443
   124  H    0.021664
   125  H    0.017148
   126  H    0.031963
   127  H    0.029691
   128  H    0.009152
   129  H    0.015208
   130  H    0.010094
   131  H    0.028861
   132  H    0.010657
   133  H    0.024812
   134  H    0.019019
   135  H    0.015901
   136  H    0.036101
   137  H    0.025195
   138  H    0.017824
   139  H    0.038842
   140  H    0.034592
 Sum of Mulliken charges =  -0.00000

 Dipole moment (field-independent basis, Debye):
    X=             -3.9551    Y=              3.6120    Z=              0.8457  Tot=              5.4226
 Quadrupole moment (field-independent basis, Debye-Ang):
   XX=           -369.4569   YY=           -415.1712   ZZ=           -403.4603
   XY=             -8.7697   XZ=             19.4177   YZ=             -7.6758

 Normal termination of Gaussian 16 at Thu May  5 10:58:10 2022.
