 Gaussian 16, Revision A.03,
 Gaussian 16:  ES64L-G16RevA.03 25-Dec-2016

 --------------------
 #p ZINDO=(nstates=5)
 --------------------

 -----------------------------
 step_851_chromophore_10 ZINDO
 -----------------------------
 Symbolic Z-matrix:
 Charge =  0 Multiplicity = 1

                         Standard orientation:
 ---------------------------------------------------------------------
 Center     Atomic      Atomic             Coordinates (Angstroms)
 Number     Number       Type             X           Y           Z
 ---------------------------------------------------------------------
      1         12           0        5.904469    0.418073    0.024049
      2          6           0        3.309796   -1.965908   -0.447715
      3          6           0        3.638184    2.796377   -1.053006
      4          6           0        8.429076    2.633155    0.004679
      5          6           0        8.021024   -2.136686    0.507939
      6          7           0        3.789456    0.387948   -0.885554
      7          6           0        2.916755   -0.693482   -0.800465
      8          6           0        1.482510   -0.216825   -1.036005
      9          6           0        1.692054    1.258271   -1.553903
     10          6           0        3.126945    1.514648   -1.097235
     11          6           0        1.485575    1.503280   -3.071554
     12          6           0        0.549747   -0.290101    0.157992
     13          6           0       -0.898985   -0.841691   -0.075527
     14          6           0       -1.537568   -1.695081    1.073715
     15          8           0       -1.022428   -2.706430    1.538463
     16          8           0       -2.806945   -1.245744    1.403630
     17          7           0        6.067457    2.493752   -0.502257
     18          6           0        5.020617    3.329284   -0.787715
     19          6           0        5.436316    4.695185   -0.702399
     20          6           0        6.815349    4.670890   -0.269650
     21          6           0        7.174680    3.246715   -0.229813
     22          6           0        4.559741    5.847103   -1.070848
     23          6           0        7.687449    5.810448    0.150887
     24          8           0        8.854213    5.674552    0.454437
     25          6           0        7.067382    7.217951    0.055914
     26          7           0        7.954763    0.230251   -0.093948
     27          6           0        8.783903    1.298717   -0.005372
     28          6           0       10.192891    0.945826    0.496586
     29          6           0       10.083389   -0.580942    0.690912
     30          6           0        8.571085   -0.887226    0.404145
     31          6           0       11.413057    1.272616   -0.480884
     32          6           0       10.534516   -0.914289    2.145216
     33          6           0        9.592628   -0.496459    3.250370
     34          7           0        5.717942   -1.608816    0.206095
     35          6           0        6.686676   -2.559308    0.475909
     36          6           0        6.123158   -3.898485    0.630207
     37          6           0        4.773847   -3.723576    0.285030
     38          6           0        4.618442   -2.336551   -0.036721
     39          6           0        6.937019   -5.100407    0.929666
     40          6           0        3.479128   -4.359693    0.093766
     41          8           0        3.077320   -5.521788    0.223780
     42          6           0        2.488441   -3.239289   -0.380377
     43          6           0        1.745657   -3.552919   -1.603495
     44          8           0        2.189626   -3.619925   -2.727213
     45          8           0        0.423869   -3.562361   -1.317892
     46          6           0       -0.518079   -3.948816   -2.348984
     47          6           0       -3.489969   -2.143387    2.336112
     48          6           0       -4.941377   -2.065155    2.038206
     49          6           0       -5.624977   -2.782239    1.078561
     50          6           0       -4.957669   -3.778458    0.089799
     51          6           0       -7.153754   -2.808827    0.961762
     52          6           0       -7.768801   -1.493716    0.486388
     53          6           0       -8.065834   -1.401779   -1.041754
     54          6           0       -9.450613   -0.755890   -1.309612
     55          6           0       -9.959625   -1.192540   -2.686564
     56          6           0       -9.352032    0.786257   -1.127536
     57          6           0      -10.498420    1.477098   -0.429760
     58          6           0      -10.177175    1.734181    1.078800
     59          6           0      -10.985757    2.996007    1.528167
     60          6           0      -10.131176    3.734985    2.610837
     61          6           0      -12.439138    2.559629    1.912702
     62          6           0      -13.476905    2.995805    0.845139
     63          6           0      -14.708973    2.091223    0.848417
     64          6           0      -15.104739    1.446413   -0.513520
     65          6           0      -16.599999    1.069087   -0.604308
     66          6           0      -14.156215    0.319188   -0.860609
     67          1           0        2.972947    3.655844   -1.158443
     68          1           0        9.229736    3.359996    0.157031
     69          1           0        8.711383   -2.941679    0.768045
     70          1           0        1.028458   -0.913588   -1.740988
     71          1           0        1.058564    1.950840   -1.000072
     72          1           0        1.380259    0.567458   -3.619474
     73          1           0        2.241559    2.080595   -3.604365
     74          1           0        0.591420    2.117805   -3.180044
     75          1           0        0.496333    0.690946    0.629568
     76          1           0        1.066725   -0.809168    0.964478
     77          1           0       -0.982177   -1.443694   -0.979874
     78          1           0       -1.547637    0.025273   -0.205778
     79          1           0        4.083587    6.236788   -0.170700
     80          1           0        3.709955    5.445684   -1.622892
     81          1           0        4.960798    6.715716   -1.592072
     82          1           0        6.070634    7.236280    0.497105
     83          1           0        7.051290    7.597596   -0.965943
     84          1           0        7.737534    7.953961    0.500368
     85          1           0       10.369479    1.446391    1.448988
     86          1           0       10.584264   -1.231277   -0.025234
     87          1           0       11.225082    1.167854   -1.549372
     88          1           0       12.165920    0.530507   -0.215216
     89          1           0       11.773190    2.290358   -0.324264
     90          1           0       11.490144   -0.406251    2.272935
     91          1           0       10.839743   -1.960453    2.174802
     92          1           0        9.780981    0.550868    3.483313
     93          1           0        9.701111   -1.141467    4.122309
     94          1           0        8.567233   -0.577514    2.890808
     95          1           0        6.341633   -5.804803    1.509817
     96          1           0        7.852924   -4.943205    1.498704
     97          1           0        7.141168   -5.645839    0.007446
     98          1           0        1.760406   -2.988661    0.390661
     99          1           0       -1.518382   -3.559710   -2.156896
    100          1           0       -0.631109   -5.033465   -2.348378
    101          1           0       -0.221766   -3.573834   -3.327918
    102          1           0       -3.364439   -1.606790    3.275835
    103          1           0       -3.062654   -3.141737    2.432281
    104          1           0       -5.560795   -1.536592    2.762779
    105          1           0       -5.340217   -4.784161    0.265063
    106          1           0       -3.878580   -3.788684    0.243317
    107          1           0       -5.036863   -3.565230   -0.976110
    108          1           0       -7.580969   -3.127441    1.912512
    109          1           0       -7.429375   -3.478704    0.146873
    110          1           0       -7.063432   -0.684276    0.675770
    111          1           0       -8.691486   -1.341472    1.047277
    112          1           0       -8.248448   -2.367839   -1.512930
    113          1           0       -7.215920   -0.915615   -1.519378
    114          1           0      -10.093583   -1.133998   -0.515150
    115          1           0       -9.189818   -1.599785   -3.341515
    116          1           0      -10.222100   -0.287101   -3.235201
    117          1           0      -10.892974   -1.742514   -2.567163
    118          1           0       -9.316745    1.163635   -2.149550
    119          1           0       -8.379311    0.942405   -0.663302
    120          1           0      -11.341479    0.786718   -0.429774
    121          1           0      -10.875555    2.286788   -1.055748
    122          1           0       -9.093103    1.839763    1.133458
    123          1           0      -10.551778    0.869117    1.626151
    124          1           0      -11.019496    3.708447    0.703664
    125          1           0      -10.698172    3.815129    3.537779
    126          1           0       -9.949597    4.718165    2.176616
    127          1           0       -9.195070    3.224208    2.835449
    128          1           0      -12.513654    3.108941    2.851726
    129          1           0      -12.435558    1.509720    2.204002
    130          1           0      -13.134223    2.904268   -0.185555
    131          1           0      -13.687091    4.059976    0.951693
    132          1           0      -15.534383    2.768481    1.070799
    133          1           0      -14.668962    1.280556    1.576347
    134          1           0      -14.951588    2.239461   -1.244940
    135          1           0      -17.114639    1.460104    0.274229
    136          1           0      -16.841685    0.015327   -0.739434
    137          1           0      -17.058875    1.665988   -1.392817
    138          1           0      -14.739226   -0.563223   -1.126068
    139          1           0      -13.473094    0.013819   -0.067202
    140          1           0      -13.560191    0.609061   -1.725759
 ---------------------------------------------------------------------

 SCF Done:  E(RZINDO/S) =  -474.462965209     A.U. after   20 cycles

 Excitation energies and oscillator strengths:

 Excited State   1:      Singlet-A      1.2082 eV 1026.20 nm  f=0.6433  <S**2>=0.000
     175 ->178         0.18994
     176 ->177         0.66273
 This state for optimization and/or second-order correction.
 Total Energy, E(CIS/TDA) =  -474.418565304
 Copying the excited state density for this state as the 1-particle RhoCI density.

 Excited State   2:      Singlet-A      1.8429 eV  672.77 nm  f=0.1092  <S**2>=0.000
     175 ->177         0.59163
     176 ->178        -0.35562

 Excited State   3:      Singlet-A      2.9552 eV  419.54 nm  f=0.5854  <S**2>=0.000
     168 ->177         0.14196
     168 ->179        -0.17374
     171 ->177        -0.13886
     175 ->177         0.26578
     176 ->178         0.49873
     176 ->179         0.18226

 Excited State   4:      Singlet-A      2.9647 eV  418.20 nm  f=0.0887  <S**2>=0.000
     168 ->177         0.32491
     168 ->178        -0.12338
     168 ->179        -0.39207
     168 ->180         0.17434
     168 ->182        -0.13156
     168 ->186        -0.18609
     175 ->177        -0.10735
     176 ->178        -0.20055
     176 ->179        -0.16357

 Excited State   5:      Singlet-A      3.0295 eV  409.25 nm  f=0.0169  <S**2>=0.000
     169 ->177         0.21906
     169 ->178        -0.11397
     169 ->179         0.22271
     169 ->180         0.18590
     169 ->182        -0.20167
     169 ->186         0.15387
     169 ->187         0.13999
     174 ->177        -0.21989
     176 ->179         0.35792
     176 ->180         0.11688

 The electronic state is 1-A.
 Alpha  occ. eigenvalues --   -1.85142  -1.81696  -1.79667  -1.74200  -1.72889
 Alpha  occ. eigenvalues --   -1.71205  -1.66864  -1.61603  -1.58682  -1.58098
 Alpha  occ. eigenvalues --   -1.54908  -1.51424  -1.48506  -1.47910  -1.47608
 Alpha  occ. eigenvalues --   -1.44591  -1.43672  -1.40524  -1.38292  -1.36894
 Alpha  occ. eigenvalues --   -1.35822  -1.34395  -1.32427  -1.30538  -1.29106
 Alpha  occ. eigenvalues --   -1.28605  -1.25068  -1.22529  -1.20884  -1.19329
 Alpha  occ. eigenvalues --   -1.17858  -1.16878  -1.15339  -1.14051  -1.13134
 Alpha  occ. eigenvalues --   -1.12327  -1.10912  -1.10108  -1.05916  -1.04405
 Alpha  occ. eigenvalues --   -1.02969  -1.01617  -0.98204  -0.97866  -0.97695
 Alpha  occ. eigenvalues --   -0.96643  -0.94579  -0.93018  -0.92848  -0.92368
 Alpha  occ. eigenvalues --   -0.91857  -0.90828  -0.89985  -0.88312  -0.86286
 Alpha  occ. eigenvalues --   -0.85973  -0.84465  -0.82628  -0.81426  -0.81174
 Alpha  occ. eigenvalues --   -0.79594  -0.78621  -0.78273  -0.76396  -0.76347
 Alpha  occ. eigenvalues --   -0.75638  -0.75472  -0.74944  -0.74481  -0.73576
 Alpha  occ. eigenvalues --   -0.73347  -0.72292  -0.71737  -0.71285  -0.70616
 Alpha  occ. eigenvalues --   -0.70440  -0.69997  -0.68779  -0.68578  -0.67945
 Alpha  occ. eigenvalues --   -0.67605  -0.66544  -0.66199  -0.65979  -0.65063
 Alpha  occ. eigenvalues --   -0.64905  -0.64522  -0.64452  -0.63757  -0.63629
 Alpha  occ. eigenvalues --   -0.63127  -0.62865  -0.62275  -0.61965  -0.61559
 Alpha  occ. eigenvalues --   -0.61267  -0.60699  -0.60350  -0.60150  -0.59939
 Alpha  occ. eigenvalues --   -0.59574  -0.58863  -0.58590  -0.58298  -0.58156
 Alpha  occ. eigenvalues --   -0.57915  -0.57399  -0.57366  -0.56902  -0.56777
 Alpha  occ. eigenvalues --   -0.56490  -0.55482  -0.55102  -0.54810  -0.54675
 Alpha  occ. eigenvalues --   -0.53932  -0.53700  -0.53558  -0.53398  -0.52975
 Alpha  occ. eigenvalues --   -0.52969  -0.52596  -0.52449  -0.52153  -0.51592
 Alpha  occ. eigenvalues --   -0.51100  -0.51025  -0.50389  -0.50329  -0.50004
 Alpha  occ. eigenvalues --   -0.49913  -0.49388  -0.49347  -0.48906  -0.48840
 Alpha  occ. eigenvalues --   -0.48600  -0.48356  -0.48284  -0.47761  -0.47634
 Alpha  occ. eigenvalues --   -0.47222  -0.47102  -0.46988  -0.46536  -0.46331
 Alpha  occ. eigenvalues --   -0.46068  -0.45947  -0.45760  -0.45399  -0.45356
 Alpha  occ. eigenvalues --   -0.45083  -0.44878  -0.44516  -0.44276  -0.43987
 Alpha  occ. eigenvalues --   -0.43413  -0.43294  -0.42753  -0.42380  -0.42023
 Alpha  occ. eigenvalues --   -0.41781  -0.41442  -0.40711  -0.39243  -0.38869
 Alpha  occ. eigenvalues --   -0.38016  -0.37629  -0.35639  -0.34998  -0.34175
 Alpha  occ. eigenvalues --   -0.33498  -0.32570  -0.32173  -0.31989  -0.26307
 Alpha  occ. eigenvalues --   -0.21826
 Alpha virt. eigenvalues --   -0.08923  -0.01662  -0.00539   0.01397   0.01544
 Alpha virt. eigenvalues --    0.01635   0.02653   0.03280   0.03952   0.05073
 Alpha virt. eigenvalues --    0.06400   0.07088   0.07649   0.08249   0.08440

 Mulliken charges:
               1
     1  Mg   0.433994
     2  C   -0.048123
     3  C   -0.104070
     4  C   -0.049006
     5  C   -0.058173
     6  N   -0.298799
     7  C    0.135449
     8  C    0.008207
     9  C    0.005481
    10  C    0.146722
    11  C   -0.047700
    12  C   -0.019548
    13  C    0.005065
    14  C    0.458053
    15  O   -0.511246
    16  O   -0.263125
    17  N   -0.321711
    18  C    0.091120
    19  C    0.002726
    20  C   -0.059243
    21  C    0.124350
    22  C   -0.042085
    23  C    0.329555
    24  O   -0.520560
    25  C   -0.038309
    26  N   -0.259868
    27  C    0.121755
    28  C    0.000198
    29  C   -0.001475
    30  C    0.133002
    31  C   -0.054771
    32  C   -0.026940
    33  C   -0.048779
    34  N   -0.322752
    35  C    0.100546
    36  C    0.053219
    37  C   -0.047195
    38  C    0.132051
    39  C   -0.032453
    40  C    0.339509
    41  O   -0.512919
    42  C    0.055768
    43  C    0.501209
    44  O   -0.526214
    45  O   -0.266725
    46  C    0.076691
    47  C    0.110267
    48  C   -0.092131
    49  C   -0.002095
    50  C   -0.046469
    51  C   -0.022920
    52  C   -0.034667
    53  C   -0.040758
    54  C   -0.016874
    55  C   -0.060946
    56  C   -0.039047
    57  C   -0.044506
    58  C   -0.037752
    59  C   -0.025821
    60  C   -0.064659
    61  C   -0.036365
    62  C   -0.030588
    63  C   -0.034899
    64  C   -0.008907
    65  C   -0.059350
    66  C   -0.054251
    67  H    0.018952
    68  H    0.042694
    69  H    0.015387
    70  H    0.034131
    71  H    0.024681
    72  H    0.025994
    73  H    0.027301
    74  H    0.013210
    75  H    0.018683
    76  H    0.026361
    77  H    0.053231
    78  H    0.027232
    79  H    0.024621
    80  H    0.018979
    81  H    0.033368
    82  H    0.034998
    83  H    0.038975
    84  H    0.029636
    85  H    0.041171
    86  H    0.036402
    87  H    0.027326
    88  H    0.016831
    89  H    0.024729
    90  H    0.010656
    91  H    0.011921
    92  H    0.024816
    93  H    0.021447
    94  H    0.023107
    95  H    0.028600
    96  H    0.028851
    97  H    0.040413
    98  H    0.059461
    99  H    0.026681
   100  H    0.043908
   101  H    0.045560
   102  H    0.027258
   103  H    0.069901
   104  H    0.028400
   105  H    0.029658
   106  H    0.017146
   107  H    0.028748
   108  H    0.028714
   109  H    0.020468
   110  H    0.019627
   111  H    0.019537
   112  H    0.013927
   113  H    0.024827
   114  H    0.020280
   115  H    0.028048
   116  H    0.007356
   117  H    0.024695
   118  H    0.010336
   119  H    0.020027
   120  H    0.010351
   121  H    0.025344
   122  H    0.024418
   123  H    0.025663
   124  H    0.020102
   125  H    0.017946
   126  H    0.018511
   127  H    0.022490
   128  H    0.017715
   129  H    0.029052
   130  H    0.021016
   131  H    0.024134
   132  H    0.007679
   133  H    0.024241
   134  H    0.014848
   135  H    0.013609
   136  H    0.027830
   137  H    0.014232
   138  H    0.014088
   139  H    0.021084
   140  H    0.016239
 Sum of Mulliken charges =  -0.00000

 Dipole moment (field-independent basis, Debye):
    X=             -4.7167    Y=              4.0986    Z=              1.6692  Tot=              6.4678
 N-N= 4.312506291127D+03 E-N= 0.000000000000D+00  KE=-9.299623906097D+03
 Leave Link  601 at Thu May  5 11:12:17 2022, MaxMem=  6710886400 cpu:               0.8 elap:               0.0
 (Enter /sw/apps/gaussian-16.0/g16/l9999.exe)
 1\1\GINC-BP1-COMPUTE123\SP\RZINDO CIS\STO-3G\C55H74Mg1N4O6\OF15641\05-
 May-2022\0\\#p ZINDO=(nstates=5)\\step_851_chromophore_10 ZINDO\\0,1\M
 g,0,41.054,7.74,28.949\C,0,43.013,8.931,31.666\C,0,38.937,6.396,31.329
 \C,0,39.423,6.202,26.448\C,0,43.532,8.67,26.891\N,0,41.099,7.477,31.23
 6\C,0,41.922,8.205,32.091\C,0,41.355,8.162,33.511\C,0,40.233,7.059,33.
 399\C,0,40.047,7.001,31.884\C,0,40.547,5.675,34.025\C,0,40.831,9.475,3
 4.061\C,0,41.201,9.852,35.537\C,0,41.452,11.367,35.851\O,0,42.281,12.0

 Normal termination of Gaussian 16 at Thu May  5 11:12:18 2022.
