 Gaussian 16, Revision A.03,
 Gaussian 16:  ES64L-G16RevA.03 25-Dec-2016

 ------------------------------
 #p blyp/Def2SVP td=(nstates=5)
 ------------------------------

 --------------------------------------------------
 step_851_chromophore_14 TDDFT with blyp functional
 --------------------------------------------------
 Symbolic Z-matrix:
 Charge =  0 Multiplicity = 1

                         Standard orientation:
 ---------------------------------------------------------------------
 Center     Atomic      Atomic             Coordinates (Angstroms)
 Number     Number       Type             X           Y           Z
 ---------------------------------------------------------------------
      1         12           0        5.168504    0.855371   -0.062040
      2          6           0        4.764741   -2.555993    0.322511
      3          6           0        4.406903    0.472041   -3.348654
      4          6           0        4.933731    4.303019   -0.194397
      5          6           0        5.242974    1.131682    3.491988
      6          7           0        4.497729   -0.839553   -1.307957
      7          6           0        4.503841   -2.139519   -0.956518
      8          6           0        4.213706   -3.025719   -2.126726
      9          6           0        4.103152   -2.062403   -3.356911
     10          6           0        4.367855   -0.728465   -2.655866
     11          6           0        5.027974   -2.387482   -4.538778
     12          6           0        2.836065   -3.772705   -1.908364
     13          6           0        1.756897   -3.077778   -1.044191
     14          6           0        0.257272   -3.312739   -1.373003
     15          8           0       -0.206876   -4.339263   -1.910783
     16          8           0       -0.518707   -2.239681   -0.927817
     17          7           0        4.788393    2.153602   -1.553657
     18          6           0        4.569931    1.764659   -2.863325
     19          6           0        4.326474    2.943268   -3.689536
     20          6           0        4.489173    4.056277   -2.810151
     21          6           0        4.796968    3.564692   -1.440900
     22          6           0        4.030658    2.910022   -5.159169
     23          6           0        4.498743    5.466529   -3.297506
     24          8           0        4.104045    5.692876   -4.424679
     25          6           0        4.956659    6.539545   -2.488349
     26          7           0        5.074153    2.476028    1.446177
     27          6           0        4.987439    3.774572    1.107041
     28          6           0        4.927660    4.696792    2.409465
     29          6           0        5.306327    3.637750    3.474499
     30          6           0        5.101502    2.305298    2.794862
     31          6           0        5.813328    5.954106    2.408618
     32          6           0        4.523062    3.740060    4.870937
     33          6           0        5.338457    3.634137    6.165482
     34          7           0        4.996990   -0.391307    1.648434
     35          6           0        5.091947   -0.158610    2.979891
     36          6           0        5.053753   -1.411090    3.705754
     37          6           0        4.977761   -2.351830    2.702878
     38          6           0        4.965317   -1.735328    1.467454
     39          6           0        5.264527   -1.651977    5.180791
     40          6           0        4.881453   -3.736597    2.358553
     41          8           0        4.954530   -4.729130    3.035183
     42          6           0        4.669482   -3.909562    0.912279
     43          6           0        5.552577   -4.960271    0.332851
     44          8           0        5.177702   -6.070377    0.026539
     45          8           0        6.844854   -4.502788    0.245167
     46          6           0        7.899221   -5.329523   -0.351051
     47          6           0       -1.979802   -2.415352   -1.073266
     48          6           0       -2.620326   -1.116708   -0.639718
     49          6           0       -3.387364   -0.281814   -1.346962
     50          6           0       -3.762733   -0.623176   -2.817510
     51          6           0       -3.924595    0.992728   -0.772366
     52          6           0       -5.432644    1.051114   -0.781725
     53          6           0       -6.219843   -0.275062   -0.417066
     54          6           0       -7.589356   -0.133051    0.428435
     55          6           0       -7.267069    0.204375    1.924825
     56          6           0       -8.449987   -1.424583    0.358598
     57          6           0       -9.904094   -1.109194   -0.202561
     58          6           0      -10.954556   -1.276634    1.015371
     59          6           0      -11.931920   -0.092074    1.144340
     60          6           0      -11.139799    1.169391    1.730340
     61          6           0      -13.282443   -0.572870    1.857827
     62          6           0      -14.461281   -0.529397    0.858996
     63          6           0      -15.016596    0.845818    0.706321
     64          6           0      -16.049785    0.977450   -0.505556
     65          6           0      -16.028180    2.280246   -1.256898
     66          6           0      -17.471593    0.635989    0.068571
     67          1           0        4.429358    0.346838   -4.433133
     68          1           0        5.011140    5.392413   -0.229209
     69          1           0        5.159128    1.211170    4.577023
     70          1           0        5.042057   -3.732957   -2.143590
     71          1           0        3.086904   -2.114715   -3.749633
     72          1           0        4.344608   -2.688148   -5.333149
     73          1           0        5.659704   -3.210009   -4.204742
     74          1           0        5.665530   -1.541034   -4.791322
     75          1           0        3.179190   -4.725145   -1.505141
     76          1           0        2.361719   -4.115204   -2.828171
     77          1           0        1.786645   -1.995861   -1.172001
     78          1           0        1.823654   -3.319871    0.016093
     79          1           0        3.177449    3.519379   -5.456932
     80          1           0        3.889130    1.896100   -5.533272
     81          1           0        4.918491    3.247175   -5.694955
     82          1           0        5.883870    6.317020   -1.959344
     83          1           0        4.124852    6.519395   -1.784088
     84          1           0        5.066081    7.378745   -3.175901
     85          1           0        3.918219    5.040246    2.633714
     86          1           0        6.338001    3.823147    3.772097
     87          1           0        6.432339    6.043957    1.516791
     88          1           0        6.451103    5.890900    3.290272
     89          1           0        5.257231    6.891578    2.430977
     90          1           0        3.755084    2.968726    4.916836
     91          1           0        3.991702    4.692047    4.882935
     92          1           0        5.011498    4.447804    6.812723
     93          1           0        6.413122    3.691759    5.992814
     94          1           0        5.121927    2.677825    6.641892
     95          1           0        6.145359   -1.086781    5.484819
     96          1           0        5.412584   -2.718737    5.348994
     97          1           0        4.456677   -1.163143    5.725405
     98          1           0        3.646987   -4.287243    0.893998
     99          1           0        7.631430   -6.313904   -0.735639
    100          1           0        8.672388   -5.417450    0.412794
    101          1           0        8.311267   -4.818729   -1.221015
    102          1           0       -2.343240   -3.273311   -0.507623
    103          1           0       -2.080053   -2.509232   -2.154153
    104          1           0       -2.289500   -0.596072    0.258416
    105          1           0       -4.551028   -1.376730   -2.835362
    106          1           0       -2.967674   -0.923112   -3.500090
    107          1           0       -4.082716    0.316328   -3.266995
    108          1           0       -3.580014    1.828932   -1.381565
    109          1           0       -3.468657    1.104245    0.211314
    110          1           0       -5.581750    1.257756   -1.842076
    111          1           0       -5.881519    1.812688   -0.145107
    112          1           0       -5.456943   -0.811784    0.146349
    113          1           0       -6.511320   -0.850071   -1.295596
    114          1           0       -8.064199    0.695692   -0.095625
    115          1           0       -6.184689    0.182587    2.048100
    116          1           0       -7.909450   -0.368361    2.594795
    117          1           0       -7.610666    1.235624    2.014746
    118          1           0       -8.526417   -2.005041    1.278470
    119          1           0       -8.036243   -2.208955   -0.275990
    120          1           0      -10.159689   -1.897408   -0.910079
    121          1           0      -10.080353   -0.151152   -0.692053
    122          1           0      -10.393372   -1.454768    1.933129
    123          1           0      -11.514683   -2.196510    0.849268
    124          1           0      -12.110898    0.274665    0.132924
    125          1           0      -11.558067    1.506591    2.679199
    126          1           0      -11.294684    2.035283    1.086718
    127          1           0      -10.081752    0.932146    1.838028
    128          1           0      -13.578109    0.162189    2.606708
    129          1           0      -13.130561   -1.550533    2.315968
    130          1           0      -15.338309   -1.173307    0.931441
    131          1           0      -14.066685   -0.785371   -0.123790
    132          1           0      -14.203354    1.554927    0.548891
    133          1           0      -15.413211    1.001875    1.709442
    134          1           0      -15.821368    0.071318   -1.067464
    135          1           0      -15.353594    2.988971   -0.776299
    136          1           0      -16.926509    2.887162   -1.373746
    137          1           0      -15.625510    2.105883   -2.254898
    138          1           0      -17.434342    0.309956    1.107584
    139          1           0      -17.894819   -0.201961   -0.485168
    140          1           0      -18.219116    1.408316   -0.116838
 ---------------------------------------------------------------------

 SCF Done:  E(RB-LYP) =  -3007.36601784     A.U. after   20 cycles

 Excitation energies and oscillator strengths:

 Excited State   1:      Singlet-A      1.7432 eV  711.25 nm  f=0.0003  <S**2>=0.000
     244 -> 247        0.70591
 This state for optimization and/or second-order correction.
 Total Energy, E(TD-HF/TD-DFT) =  -3007.30195688
 Copying the excited state density for this state as the 1-particle RhoCI density.

 Excited State   2:      Singlet-A      1.7923 eV  691.77 nm  f=0.0430  <S**2>=0.000
     243 -> 247        0.64754
     246 -> 247        0.27796

 Excited State   3:      Singlet-A      1.8594 eV  666.80 nm  f=0.2484  <S**2>=0.000
     243 -> 247       -0.28225
     245 -> 248       -0.18711
     246 -> 247        0.63099
     246 <- 247       -0.13712

 Excited State   4:      Singlet-A      2.0957 eV  591.62 nm  f=0.0754  <S**2>=0.000
     245 -> 247        0.64114
     246 -> 248        0.27144

 Excited State   5:      Singlet-A      2.4093 eV  514.62 nm  f=0.0009  <S**2>=0.000
     241 -> 247        0.70064

 The electronic state is 1-A.
 Alpha  occ. eigenvalues --  -46.27431 -18.82445 -18.81816 -18.76739 -18.76734
 Alpha  occ. eigenvalues --  -18.74764 -18.74539 -14.03601 -14.03183 -14.01641
 Alpha  occ. eigenvalues --  -14.00643 -10.04212 -10.04038  -9.98595  -9.98541
 Alpha  occ. eigenvalues --   -9.98302  -9.98021  -9.97217  -9.97075  -9.96510
 Alpha  occ. eigenvalues --   -9.96220  -9.96082  -9.95784  -9.95139  -9.94280
 Alpha  occ. eigenvalues --   -9.94215  -9.94203  -9.94092  -9.93992  -9.93805
 Alpha  occ. eigenvalues --   -9.93703  -9.93627  -9.93353  -9.93313  -9.93130
 Alpha  occ. eigenvalues --   -9.93091  -9.93051  -9.92868  -9.92843  -9.92821
 Alpha  occ. eigenvalues --   -9.92819  -9.92644  -9.92392  -9.92387  -9.92319
 Alpha  occ. eigenvalues --   -9.92274  -9.92261  -9.92255  -9.92174  -9.92130
 Alpha  occ. eigenvalues --   -9.91919  -9.91891  -9.91872  -9.91617  -9.91477
 Alpha  occ. eigenvalues --   -9.91411  -9.91200  -9.91159  -9.90938  -9.90913
 Alpha  occ. eigenvalues --   -9.90888  -9.90852  -9.90611  -9.90541  -9.90453
 Alpha  occ. eigenvalues --   -9.90360  -2.92075  -1.72481  -1.71967  -1.71784
 Alpha  occ. eigenvalues --   -0.97774  -0.96266  -0.92260  -0.91751  -0.90242
 Alpha  occ. eigenvalues --   -0.88592  -0.87475  -0.86713  -0.86052  -0.84058
 Alpha  occ. eigenvalues --   -0.77167  -0.74047  -0.72844  -0.72657  -0.72570
 Alpha  occ. eigenvalues --   -0.72102  -0.71557  -0.71342  -0.70267  -0.70014
 Alpha  occ. eigenvalues --   -0.69577  -0.69433  -0.68553  -0.67987  -0.67607
 Alpha  occ. eigenvalues --   -0.67010  -0.66609  -0.65924  -0.65482  -0.64472
 Alpha  occ. eigenvalues --   -0.63606  -0.62700  -0.62654  -0.62079  -0.61361
 Alpha  occ. eigenvalues --   -0.60734  -0.60279  -0.60079  -0.59320  -0.58784
 Alpha  occ. eigenvalues --   -0.58321  -0.57965  -0.57204  -0.56126  -0.54546
 Alpha  occ. eigenvalues --   -0.54371  -0.53396  -0.52908  -0.51693  -0.51508
 Alpha  occ. eigenvalues --   -0.51429  -0.51323  -0.50926  -0.50772  -0.50248
 Alpha  occ. eigenvalues --   -0.49628  -0.49462  -0.48721  -0.48634  -0.46993
 Alpha  occ. eigenvalues --   -0.45985  -0.45864  -0.45699  -0.45052  -0.44569
 Alpha  occ. eigenvalues --   -0.44073  -0.43766  -0.43526  -0.43308  -0.42919
 Alpha  occ. eigenvalues --   -0.42590  -0.42357  -0.41658  -0.41203  -0.41127
 Alpha  occ. eigenvalues --   -0.40970  -0.40751  -0.40511  -0.40265  -0.40045
 Alpha  occ. eigenvalues --   -0.40007  -0.39874  -0.39617  -0.39529  -0.39385
 Alpha  occ. eigenvalues --   -0.38943  -0.38859  -0.38831  -0.38466  -0.38264
 Alpha  occ. eigenvalues --   -0.38164  -0.38024  -0.37679  -0.37354  -0.37259
 Alpha  occ. eigenvalues --   -0.37160  -0.36962  -0.36792  -0.36710  -0.36613
 Alpha  occ. eigenvalues --   -0.36426  -0.36103  -0.35874  -0.35826  -0.35555
 Alpha  occ. eigenvalues --   -0.35246  -0.35052  -0.35029  -0.34875  -0.34852
 Alpha  occ. eigenvalues --   -0.34758  -0.34683  -0.34391  -0.34311  -0.34155
 Alpha  occ. eigenvalues --   -0.34022  -0.33959  -0.33704  -0.33551  -0.33319
 Alpha  occ. eigenvalues --   -0.33214  -0.32673  -0.32611  -0.32326  -0.32262
 Alpha  occ. eigenvalues --   -0.32143  -0.32029  -0.31956  -0.31801  -0.31533
 Alpha  occ. eigenvalues --   -0.31465  -0.31223  -0.31144  -0.30867  -0.30647
 Alpha  occ. eigenvalues --   -0.30500  -0.30206  -0.30058  -0.30040  -0.29956
 Alpha  occ. eigenvalues --   -0.29780  -0.29715  -0.29574  -0.29404  -0.29055
 Alpha  occ. eigenvalues --   -0.28776  -0.28266  -0.28194  -0.28059  -0.27420
 Alpha  occ. eigenvalues --   -0.27320  -0.26836  -0.26746  -0.26673  -0.26249
 Alpha  occ. eigenvalues --   -0.26017  -0.25945  -0.25877  -0.25559  -0.25242
 Alpha  occ. eigenvalues --   -0.25197  -0.24901  -0.24830  -0.24266  -0.23494
 Alpha  occ. eigenvalues --   -0.23454  -0.22554  -0.21764  -0.21668  -0.20901
 Alpha  occ. eigenvalues --   -0.20663  -0.20423  -0.18341  -0.18162  -0.17779
 Alpha  occ. eigenvalues --   -0.16208
 Alpha virt. eigenvalues --   -0.11815  -0.07116  -0.05399  -0.04238  -0.03678
 Alpha virt. eigenvalues --   -0.02833  -0.02285  -0.02245  -0.01662   0.00310
 Alpha virt. eigenvalues --    0.01193   0.01625   0.02180   0.02405   0.02793

 Mulliken charges:
               1
     1  Mg   0.697823
     2  C    0.082494
     3  C   -0.090260
     4  C   -0.053579
     5  C   -0.082896
     6  N   -0.191457
     7  C   -0.131571
     8  C    0.033285
     9  C    0.014153
    10  C    0.008505
    11  C    0.142133
    12  C    0.093057
    13  C    0.111482
    14  C    0.090213
    15  O   -0.215455
    16  O   -0.297889
    17  N   -0.355360
    18  C    0.181884
    19  C   -0.147696
    20  C    0.026664
    21  C    0.139913
    22  C    0.212411
    23  C   -0.133382
    24  O   -0.171502
    25  C    0.170769
    26  N   -0.176969
    27  C    0.007247
    28  C    0.021876
    29  C   -0.000805
    30  C    0.057437
    31  C    0.126105
    32  C    0.044306
    33  C    0.071759
    34  N   -0.235453
    35  C    0.089124
    36  C   -0.225417
    37  C    0.154677
    38  C    0.001815
    39  C    0.196899
    40  C   -0.142718
    41  O   -0.109646
    42  C    0.138989
    43  C    0.082589
    44  O   -0.147344
    45  O   -0.289633
    46  C    0.209449
    47  C    0.356385
    48  C   -0.067711
    49  C   -0.211601
    50  C    0.111252
    51  C    0.203048
    52  C    0.042222
    53  C    0.051319
    54  C   -0.066001
    55  C    0.118679
    56  C    0.106906
    57  C    0.052076
    58  C    0.060628
    59  C   -0.095221
    60  C    0.089171
    61  C    0.187020
    62  C    0.033610
    63  C    0.047493
    64  C   -0.059709
    65  C    0.134348
    66  C    0.085354
    67  H   -0.053962
    68  H   -0.072538
    69  H   -0.067487
    70  H   -0.013547
    71  H   -0.013230
    72  H    0.000586
    73  H   -0.014735
    74  H   -0.000893
    75  H   -0.007477
    76  H   -0.015912
    77  H    0.009937
    78  H    0.020343
    79  H    0.015391
    80  H   -0.037676
    81  H   -0.001052
    82  H    0.010397
    83  H    0.022669
    84  H   -0.000273
    85  H   -0.015727
    86  H   -0.021624
    87  H   -0.006277
    88  H   -0.011640
    89  H   -0.012774
    90  H   -0.017400
    91  H   -0.029669
    92  H   -0.007826
    93  H   -0.007732
    94  H   -0.000206
    95  H   -0.008128
    96  H    0.019910
    97  H   -0.006114
    98  H   -0.000737
    99  H    0.024393
   100  H    0.024295
   101  H    0.007372
   102  H    0.015023
   103  H   -0.015824
   104  H   -0.043711
   105  H    0.017039
   106  H    0.005097
   107  H   -0.022099
   108  H   -0.024448
   109  H   -0.042127
   110  H   -0.028374
   111  H   -0.020572
   112  H   -0.027353
   113  H   -0.025986
   114  H   -0.023974
   115  H   -0.007840
   116  H   -0.001293
   117  H   -0.011201
   118  H   -0.034237
   119  H   -0.047900
   120  H   -0.032803
   121  H   -0.014711
   122  H   -0.025855
   123  H   -0.037143
   124  H   -0.025403
   125  H   -0.021500
   126  H   -0.018249
   127  H   -0.013310
   128  H   -0.045082
   129  H   -0.026419
   130  H   -0.042341
   131  H   -0.040091
   132  H   -0.040790
   133  H   -0.029393
   134  H   -0.031101
   135  H   -0.025087
   136  H   -0.014875
   137  H   -0.014482
   138  H   -0.010617
   139  H   -0.028037
   140  H   -0.020882
 Sum of Mulliken charges =  -0.00000

 Dipole moment (field-independent basis, Debye):
    X=              2.1527    Y=              5.1010    Z=              0.4381  Tot=              5.5540
 Quadrupole moment (field-independent basis, Debye-Ang):
   XX=           -362.0940   YY=           -444.5395   ZZ=           -404.7128
   XY=             11.3846   XZ=              2.4744   YZ=             36.6894

 Normal termination of Gaussian 16 at Sat Apr 30 18:45:50 2022.
