 Gaussian 16, Revision A.03,
 Gaussian 16:  ES64L-G16RevA.03 25-Dec-2016

 -----------------------------------
 #p cam-b3lyp/Def2SVP td=(nstates=5)
 -----------------------------------

 -------------------------------------------------------
 step_851_chromophore_14 TDDFT with cam-b3lyp functional
 -------------------------------------------------------
 Symbolic Z-matrix:
 Charge =  0 Multiplicity = 1

                         Standard orientation:
 ---------------------------------------------------------------------
 Center     Atomic      Atomic             Coordinates (Angstroms)
 Number     Number       Type             X           Y           Z
 ---------------------------------------------------------------------
      1         12           0        5.168504    0.855371   -0.062040
      2          6           0        4.764741   -2.555993    0.322511
      3          6           0        4.406903    0.472041   -3.348654
      4          6           0        4.933731    4.303019   -0.194397
      5          6           0        5.242974    1.131682    3.491988
      6          7           0        4.497729   -0.839553   -1.307957
      7          6           0        4.503841   -2.139519   -0.956518
      8          6           0        4.213706   -3.025719   -2.126726
      9          6           0        4.103152   -2.062403   -3.356911
     10          6           0        4.367855   -0.728465   -2.655866
     11          6           0        5.027974   -2.387482   -4.538778
     12          6           0        2.836065   -3.772705   -1.908364
     13          6           0        1.756897   -3.077778   -1.044191
     14          6           0        0.257272   -3.312739   -1.373003
     15          8           0       -0.206876   -4.339263   -1.910783
     16          8           0       -0.518707   -2.239681   -0.927817
     17          7           0        4.788393    2.153602   -1.553657
     18          6           0        4.569931    1.764659   -2.863325
     19          6           0        4.326474    2.943268   -3.689536
     20          6           0        4.489173    4.056277   -2.810151
     21          6           0        4.796968    3.564692   -1.440900
     22          6           0        4.030658    2.910022   -5.159169
     23          6           0        4.498743    5.466529   -3.297506
     24          8           0        4.104045    5.692876   -4.424679
     25          6           0        4.956659    6.539545   -2.488349
     26          7           0        5.074153    2.476028    1.446177
     27          6           0        4.987439    3.774572    1.107041
     28          6           0        4.927660    4.696792    2.409465
     29          6           0        5.306327    3.637750    3.474499
     30          6           0        5.101502    2.305298    2.794862
     31          6           0        5.813328    5.954106    2.408618
     32          6           0        4.523062    3.740060    4.870937
     33          6           0        5.338457    3.634137    6.165482
     34          7           0        4.996990   -0.391307    1.648434
     35          6           0        5.091947   -0.158610    2.979891
     36          6           0        5.053753   -1.411090    3.705754
     37          6           0        4.977761   -2.351830    2.702878
     38          6           0        4.965317   -1.735328    1.467454
     39          6           0        5.264527   -1.651977    5.180791
     40          6           0        4.881453   -3.736597    2.358553
     41          8           0        4.954530   -4.729130    3.035183
     42          6           0        4.669482   -3.909562    0.912279
     43          6           0        5.552577   -4.960271    0.332851
     44          8           0        5.177702   -6.070377    0.026539
     45          8           0        6.844854   -4.502788    0.245167
     46          6           0        7.899221   -5.329523   -0.351051
     47          6           0       -1.979802   -2.415352   -1.073266
     48          6           0       -2.620326   -1.116708   -0.639718
     49          6           0       -3.387364   -0.281814   -1.346962
     50          6           0       -3.762733   -0.623176   -2.817510
     51          6           0       -3.924595    0.992728   -0.772366
     52          6           0       -5.432644    1.051114   -0.781725
     53          6           0       -6.219843   -0.275062   -0.417066
     54          6           0       -7.589356   -0.133051    0.428435
     55          6           0       -7.267069    0.204375    1.924825
     56          6           0       -8.449987   -1.424583    0.358598
     57          6           0       -9.904094   -1.109194   -0.202561
     58          6           0      -10.954556   -1.276634    1.015371
     59          6           0      -11.931920   -0.092074    1.144340
     60          6           0      -11.139799    1.169391    1.730340
     61          6           0      -13.282443   -0.572870    1.857827
     62          6           0      -14.461281   -0.529397    0.858996
     63          6           0      -15.016596    0.845818    0.706321
     64          6           0      -16.049785    0.977450   -0.505556
     65          6           0      -16.028180    2.280246   -1.256898
     66          6           0      -17.471593    0.635989    0.068571
     67          1           0        4.429358    0.346838   -4.433133
     68          1           0        5.011140    5.392413   -0.229209
     69          1           0        5.159128    1.211170    4.577023
     70          1           0        5.042057   -3.732957   -2.143590
     71          1           0        3.086904   -2.114715   -3.749633
     72          1           0        4.344608   -2.688148   -5.333149
     73          1           0        5.659704   -3.210009   -4.204742
     74          1           0        5.665530   -1.541034   -4.791322
     75          1           0        3.179190   -4.725145   -1.505141
     76          1           0        2.361719   -4.115204   -2.828171
     77          1           0        1.786645   -1.995861   -1.172001
     78          1           0        1.823654   -3.319871    0.016093
     79          1           0        3.177449    3.519379   -5.456932
     80          1           0        3.889130    1.896100   -5.533272
     81          1           0        4.918491    3.247175   -5.694955
     82          1           0        5.883870    6.317020   -1.959344
     83          1           0        4.124852    6.519395   -1.784088
     84          1           0        5.066081    7.378745   -3.175901
     85          1           0        3.918219    5.040246    2.633714
     86          1           0        6.338001    3.823147    3.772097
     87          1           0        6.432339    6.043957    1.516791
     88          1           0        6.451103    5.890900    3.290272
     89          1           0        5.257231    6.891578    2.430977
     90          1           0        3.755084    2.968726    4.916836
     91          1           0        3.991702    4.692047    4.882935
     92          1           0        5.011498    4.447804    6.812723
     93          1           0        6.413122    3.691759    5.992814
     94          1           0        5.121927    2.677825    6.641892
     95          1           0        6.145359   -1.086781    5.484819
     96          1           0        5.412584   -2.718737    5.348994
     97          1           0        4.456677   -1.163143    5.725405
     98          1           0        3.646987   -4.287243    0.893998
     99          1           0        7.631430   -6.313904   -0.735639
    100          1           0        8.672388   -5.417450    0.412794
    101          1           0        8.311267   -4.818729   -1.221015
    102          1           0       -2.343240   -3.273311   -0.507623
    103          1           0       -2.080053   -2.509232   -2.154153
    104          1           0       -2.289500   -0.596072    0.258416
    105          1           0       -4.551028   -1.376730   -2.835362
    106          1           0       -2.967674   -0.923112   -3.500090
    107          1           0       -4.082716    0.316328   -3.266995
    108          1           0       -3.580014    1.828932   -1.381565
    109          1           0       -3.468657    1.104245    0.211314
    110          1           0       -5.581750    1.257756   -1.842076
    111          1           0       -5.881519    1.812688   -0.145107
    112          1           0       -5.456943   -0.811784    0.146349
    113          1           0       -6.511320   -0.850071   -1.295596
    114          1           0       -8.064199    0.695692   -0.095625
    115          1           0       -6.184689    0.182587    2.048100
    116          1           0       -7.909450   -0.368361    2.594795
    117          1           0       -7.610666    1.235624    2.014746
    118          1           0       -8.526417   -2.005041    1.278470
    119          1           0       -8.036243   -2.208955   -0.275990
    120          1           0      -10.159689   -1.897408   -0.910079
    121          1           0      -10.080353   -0.151152   -0.692053
    122          1           0      -10.393372   -1.454768    1.933129
    123          1           0      -11.514683   -2.196510    0.849268
    124          1           0      -12.110898    0.274665    0.132924
    125          1           0      -11.558067    1.506591    2.679199
    126          1           0      -11.294684    2.035283    1.086718
    127          1           0      -10.081752    0.932146    1.838028
    128          1           0      -13.578109    0.162189    2.606708
    129          1           0      -13.130561   -1.550533    2.315968
    130          1           0      -15.338309   -1.173307    0.931441
    131          1           0      -14.066685   -0.785371   -0.123790
    132          1           0      -14.203354    1.554927    0.548891
    133          1           0      -15.413211    1.001875    1.709442
    134          1           0      -15.821368    0.071318   -1.067464
    135          1           0      -15.353594    2.988971   -0.776299
    136          1           0      -16.926509    2.887162   -1.373746
    137          1           0      -15.625510    2.105883   -2.254898
    138          1           0      -17.434342    0.309956    1.107584
    139          1           0      -17.894819   -0.201961   -0.485168
    140          1           0      -18.219116    1.408316   -0.116838
 ---------------------------------------------------------------------

 SCF Done:  E(RCAM-B3LYP) =  -3007.17101198     A.U. after   17 cycles

 Excitation energies and oscillator strengths:

 Excited State   1:      Singlet-A      1.7349 eV  714.67 nm  f=0.3598  <S**2>=0.000
     245 -> 248       -0.17979
     246 -> 247        0.68619
     245 <- 248       -0.10823
 This state for optimization and/or second-order correction.
 Total Energy, E(TD-HF/TD-DFT) =  -3007.10725722
 Copying the excited state density for this state as the 1-particle RhoCI density.

 Excited State   2:      Singlet-A      2.2927 eV  540.78 nm  f=0.1037  <S**2>=0.000
     245 -> 247        0.63284
     246 -> 248        0.30374

 Excited State   3:      Singlet-A      3.3336 eV  371.92 nm  f=0.0005  <S**2>=0.000
     243 -> 247       -0.34035
     244 -> 247        0.59782

 Excited State   4:      Singlet-A      3.4886 eV  355.40 nm  f=0.0465  <S**2>=0.000
     241 -> 247       -0.11215
     242 -> 247       -0.10437
     243 -> 247        0.51782
     244 -> 247        0.29913
     246 -> 248       -0.27424

 Excited State   5:      Singlet-A      3.5296 eV  351.27 nm  f=0.0204  <S**2>=0.000
     241 -> 247        0.42666
     241 -> 249        0.12806
     241 -> 250       -0.12523
     241 -> 251       -0.11588
     242 -> 247        0.40023
     242 -> 249        0.11870
     242 -> 250       -0.11602
     242 -> 251       -0.10799
     243 -> 247        0.12147
     246 -> 248       -0.15542

 The electronic state is 1-A.
 Alpha  occ. eigenvalues --  -46.89092 -19.25279 -19.24636 -19.19802 -19.19658
 Alpha  occ. eigenvalues --  -19.17842 -19.17821 -14.42655 -14.42015 -14.40344
 Alpha  occ. eigenvalues --  -14.38969 -10.39574 -10.39404 -10.33763 -10.33564
 Alpha  occ. eigenvalues --  -10.32219 -10.32177 -10.32069 -10.31824 -10.31217
 Alpha  occ. eigenvalues --  -10.30542 -10.30461 -10.30310 -10.29116 -10.28639
 Alpha  occ. eigenvalues --  -10.28345 -10.28272 -10.28247 -10.28176 -10.28035
 Alpha  occ. eigenvalues --  -10.27972 -10.27580 -10.27544 -10.27477 -10.27264
 Alpha  occ. eigenvalues --  -10.27217 -10.27170 -10.26989 -10.26974 -10.26673
 Alpha  occ. eigenvalues --  -10.26620 -10.26588 -10.26334 -10.26198 -10.26091
 Alpha  occ. eigenvalues --  -10.25930 -10.25926 -10.25916 -10.25912 -10.25910
 Alpha  occ. eigenvalues --  -10.25888 -10.25877 -10.25574 -10.25332 -10.25281
 Alpha  occ. eigenvalues --  -10.25189 -10.24887 -10.24879 -10.24589 -10.24547
 Alpha  occ. eigenvalues --  -10.24520 -10.24403 -10.24246 -10.24234 -10.24202
 Alpha  occ. eigenvalues --  -10.24049  -3.17634  -1.92516  -1.92085  -1.91937
 Alpha  occ. eigenvalues --   -1.16256  -1.14593  -1.10622  -1.10293  -1.08144
 Alpha  occ. eigenvalues --   -1.06366  -1.05305  -1.04377  -1.03640  -1.01818
 Alpha  occ. eigenvalues --   -0.94322  -0.90921  -0.89631  -0.89449  -0.89385
 Alpha  occ. eigenvalues --   -0.88837  -0.88213  -0.87990  -0.86699  -0.86503
 Alpha  occ. eigenvalues --   -0.86425  -0.85893  -0.84917  -0.84159  -0.83892
 Alpha  occ. eigenvalues --   -0.83185  -0.82689  -0.81877  -0.81268  -0.80227
 Alpha  occ. eigenvalues --   -0.79338  -0.78290  -0.78212  -0.77788  -0.76917
 Alpha  occ. eigenvalues --   -0.76095  -0.75641  -0.75410  -0.74599  -0.73934
 Alpha  occ. eigenvalues --   -0.73436  -0.73039  -0.72163  -0.70998  -0.69110
 Alpha  occ. eigenvalues --   -0.68996  -0.67935  -0.67488  -0.65956  -0.65685
 Alpha  occ. eigenvalues --   -0.65587  -0.65355  -0.65111  -0.64929  -0.63971
 Alpha  occ. eigenvalues --   -0.63632  -0.63434  -0.62596  -0.62352  -0.60641
 Alpha  occ. eigenvalues --   -0.59600  -0.59464  -0.59076  -0.58610  -0.57916
 Alpha  occ. eigenvalues --   -0.57457  -0.57062  -0.56758  -0.56525  -0.56227
 Alpha  occ. eigenvalues --   -0.55861  -0.55233  -0.54707  -0.54232  -0.53988
 Alpha  occ. eigenvalues --   -0.53835  -0.53674  -0.53377  -0.53092  -0.52918
 Alpha  occ. eigenvalues --   -0.52814  -0.52538  -0.52244  -0.52176  -0.51994
 Alpha  occ. eigenvalues --   -0.51545  -0.51348  -0.51263  -0.50877  -0.50638
 Alpha  occ. eigenvalues --   -0.50471  -0.50346  -0.50036  -0.49882  -0.49580
 Alpha  occ. eigenvalues --   -0.49472  -0.49212  -0.49186  -0.48997  -0.48730
 Alpha  occ. eigenvalues --   -0.48660  -0.48604  -0.48361  -0.48000  -0.47738
 Alpha  occ. eigenvalues --   -0.47312  -0.47149  -0.47000  -0.46835  -0.46807
 Alpha  occ. eigenvalues --   -0.46726  -0.46504  -0.46173  -0.46153  -0.46002
 Alpha  occ. eigenvalues --   -0.45907  -0.45744  -0.45590  -0.45492  -0.45198
 Alpha  occ. eigenvalues --   -0.44999  -0.44362  -0.44119  -0.43965  -0.43864
 Alpha  occ. eigenvalues --   -0.43803  -0.43641  -0.43527  -0.43452  -0.43313
 Alpha  occ. eigenvalues --   -0.42924  -0.42763  -0.42452  -0.42284  -0.42223
 Alpha  occ. eigenvalues --   -0.42029  -0.41959  -0.41537  -0.41466  -0.41269
 Alpha  occ. eigenvalues --   -0.41180  -0.40950  -0.40862  -0.40635  -0.40345
 Alpha  occ. eigenvalues --   -0.39875  -0.39255  -0.39089  -0.38942  -0.38393
 Alpha  occ. eigenvalues --   -0.38286  -0.37745  -0.37595  -0.37524  -0.37305
 Alpha  occ. eigenvalues --   -0.36946  -0.36711  -0.36637  -0.36623  -0.36297
 Alpha  occ. eigenvalues --   -0.36125  -0.35789  -0.35455  -0.34741  -0.34191
 Alpha  occ. eigenvalues --   -0.33782  -0.33562  -0.33468  -0.31545  -0.30739
 Alpha  occ. eigenvalues --   -0.30567  -0.30546  -0.30188  -0.29916  -0.24633
 Alpha  occ. eigenvalues --   -0.21585
 Alpha virt. eigenvalues --   -0.08984  -0.02090   0.01030   0.01431   0.02823
 Alpha virt. eigenvalues --    0.05152   0.05236   0.05546   0.05813   0.06734
 Alpha virt. eigenvalues --    0.07968   0.08237   0.08672   0.08730   0.09002

 Mulliken charges:
               1
     1  Mg   0.828911
     2  C    0.051546
     3  C   -0.101202
     4  C   -0.079063
     5  C   -0.081367
     6  N   -0.259937
     7  C   -0.087686
     8  C   -0.015289
     9  C   -0.037935
    10  C    0.026855
    11  C    0.081634
    12  C    0.041104
    13  C    0.041197
    14  C    0.177085
    15  O   -0.256967
    16  O   -0.362252
    17  N   -0.445030
    18  C    0.194638
    19  C   -0.151531
    20  C   -0.043898
    21  C    0.175894
    22  C    0.155283
    23  C   -0.049315
    24  O   -0.213085
    25  C    0.077234
    26  N   -0.252195
    27  C    0.034949
    28  C   -0.030211
    29  C   -0.056455
    30  C    0.078245
    31  C    0.065845
    32  C   -0.012714
    33  C    0.010653
    34  N   -0.323478
    35  C    0.090649
    36  C   -0.211381
    37  C    0.063645
    38  C    0.040648
    39  C    0.141953
    40  C   -0.033816
    41  O   -0.149737
    42  C    0.050360
    43  C    0.171683
    44  O   -0.186399
    45  O   -0.352278
    46  C    0.173859
    47  C    0.321513
    48  C   -0.091160
    49  C   -0.230452
    50  C    0.047865
    51  C    0.139741
    52  C   -0.011325
    53  C    0.005211
    54  C   -0.117376
    55  C    0.058504
    56  C    0.048729
    57  C   -0.002951
    58  C    0.014896
    59  C   -0.148337
    60  C    0.041544
    61  C    0.124056
    62  C   -0.017594
    63  C    0.001184
    64  C   -0.123591
    65  C    0.069875
    66  C    0.029382
    67  H   -0.019704
    68  H   -0.036758
    69  H   -0.035578
    70  H    0.019800
    71  H    0.021754
    72  H    0.025351
    73  H    0.011160
    74  H    0.023675
    75  H    0.023603
    76  H    0.018040
    77  H    0.041145
    78  H    0.048409
    79  H    0.045882
    80  H   -0.009637
    81  H    0.027737
    82  H    0.039021
    83  H    0.047578
    84  H    0.037100
    85  H    0.018724
    86  H    0.010722
    87  H    0.017374
    88  H    0.013700
    89  H    0.013343
    90  H    0.013082
    91  H   -0.000849
    92  H    0.017136
    93  H    0.015051
    94  H    0.020961
    95  H    0.016553
    96  H    0.046833
    97  H    0.017960
    98  H    0.039941
    99  H    0.049402
   100  H    0.045813
   101  H    0.027149
   102  H    0.042814
   103  H    0.015256
   104  H   -0.008711
   105  H    0.040586
   106  H    0.030610
   107  H    0.002990
   108  H    0.007489
   109  H   -0.011504
   110  H   -0.001777
   111  H    0.007672
   112  H   -0.000662
   113  H    0.000082
   114  H    0.005223
   115  H    0.016457
   116  H    0.020497
   117  H    0.010341
   118  H   -0.004464
   119  H   -0.016038
   120  H   -0.002295
   121  H    0.010728
   122  H   -0.000961
   123  H   -0.008184
   124  H    0.003554
   125  H    0.002924
   126  H    0.004605
   127  H    0.003872
   128  H   -0.015908
   129  H    0.004297
   130  H   -0.013017
   131  H   -0.013545
   132  H   -0.015351
   133  H   -0.002982
   134  H    0.001928
   135  H   -0.000064
   136  H    0.010349
   137  H    0.009682
   138  H    0.011880
   139  H   -0.003840
   140  H    0.003627
 Sum of Mulliken charges =  -0.00000

 Dipole moment (field-independent basis, Debye):
    X=              2.3862    Y=              5.7593    Z=             -0.0628  Tot=              6.2344
 Quadrupole moment (field-independent basis, Debye-Ang):
   XX=           -360.1270   YY=           -442.0317   ZZ=           -402.5298
   XY=             14.2211   XZ=             -0.2067   YZ=             37.5792

 Normal termination of Gaussian 16 at Sat Apr 30 17:46:29 2022.
