 Gaussian 16, Revision A.03,
 Gaussian 16:  ES64L-G16RevA.03 25-Dec-2016

 ---------------------------------
 #p PBE1PBE/Def2SVP td=(nstates=5)
 ---------------------------------

 -----------------------------------------------------
 step_851_chromophore_14 TDDFT with PBE1PBE functional
 -----------------------------------------------------
 Symbolic Z-matrix:
 Charge =  0 Multiplicity = 1

                         Standard orientation:
 ---------------------------------------------------------------------
 Center     Atomic      Atomic             Coordinates (Angstroms)
 Number     Number       Type             X           Y           Z
 ---------------------------------------------------------------------
      1         12           0        5.168504    0.855371   -0.062040
      2          6           0        4.764741   -2.555993    0.322511
      3          6           0        4.406903    0.472041   -3.348654
      4          6           0        4.933731    4.303019   -0.194397
      5          6           0        5.242974    1.131682    3.491988
      6          7           0        4.497729   -0.839553   -1.307957
      7          6           0        4.503841   -2.139519   -0.956518
      8          6           0        4.213706   -3.025719   -2.126726
      9          6           0        4.103152   -2.062403   -3.356911
     10          6           0        4.367855   -0.728465   -2.655866
     11          6           0        5.027974   -2.387482   -4.538778
     12          6           0        2.836065   -3.772705   -1.908364
     13          6           0        1.756897   -3.077778   -1.044191
     14          6           0        0.257272   -3.312739   -1.373003
     15          8           0       -0.206876   -4.339263   -1.910783
     16          8           0       -0.518707   -2.239681   -0.927817
     17          7           0        4.788393    2.153602   -1.553657
     18          6           0        4.569931    1.764659   -2.863325
     19          6           0        4.326474    2.943268   -3.689536
     20          6           0        4.489173    4.056277   -2.810151
     21          6           0        4.796968    3.564692   -1.440900
     22          6           0        4.030658    2.910022   -5.159169
     23          6           0        4.498743    5.466529   -3.297506
     24          8           0        4.104045    5.692876   -4.424679
     25          6           0        4.956659    6.539545   -2.488349
     26          7           0        5.074153    2.476028    1.446177
     27          6           0        4.987439    3.774572    1.107041
     28          6           0        4.927660    4.696792    2.409465
     29          6           0        5.306327    3.637750    3.474499
     30          6           0        5.101502    2.305298    2.794862
     31          6           0        5.813328    5.954106    2.408618
     32          6           0        4.523062    3.740060    4.870937
     33          6           0        5.338457    3.634137    6.165482
     34          7           0        4.996990   -0.391307    1.648434
     35          6           0        5.091947   -0.158610    2.979891
     36          6           0        5.053753   -1.411090    3.705754
     37          6           0        4.977761   -2.351830    2.702878
     38          6           0        4.965317   -1.735328    1.467454
     39          6           0        5.264527   -1.651977    5.180791
     40          6           0        4.881453   -3.736597    2.358553
     41          8           0        4.954530   -4.729130    3.035183
     42          6           0        4.669482   -3.909562    0.912279
     43          6           0        5.552577   -4.960271    0.332851
     44          8           0        5.177702   -6.070377    0.026539
     45          8           0        6.844854   -4.502788    0.245167
     46          6           0        7.899221   -5.329523   -0.351051
     47          6           0       -1.979802   -2.415352   -1.073266
     48          6           0       -2.620326   -1.116708   -0.639718
     49          6           0       -3.387364   -0.281814   -1.346962
     50          6           0       -3.762733   -0.623176   -2.817510
     51          6           0       -3.924595    0.992728   -0.772366
     52          6           0       -5.432644    1.051114   -0.781725
     53          6           0       -6.219843   -0.275062   -0.417066
     54          6           0       -7.589356   -0.133051    0.428435
     55          6           0       -7.267069    0.204375    1.924825
     56          6           0       -8.449987   -1.424583    0.358598
     57          6           0       -9.904094   -1.109194   -0.202561
     58          6           0      -10.954556   -1.276634    1.015371
     59          6           0      -11.931920   -0.092074    1.144340
     60          6           0      -11.139799    1.169391    1.730340
     61          6           0      -13.282443   -0.572870    1.857827
     62          6           0      -14.461281   -0.529397    0.858996
     63          6           0      -15.016596    0.845818    0.706321
     64          6           0      -16.049785    0.977450   -0.505556
     65          6           0      -16.028180    2.280246   -1.256898
     66          6           0      -17.471593    0.635989    0.068571
     67          1           0        4.429358    0.346838   -4.433133
     68          1           0        5.011140    5.392413   -0.229209
     69          1           0        5.159128    1.211170    4.577023
     70          1           0        5.042057   -3.732957   -2.143590
     71          1           0        3.086904   -2.114715   -3.749633
     72          1           0        4.344608   -2.688148   -5.333149
     73          1           0        5.659704   -3.210009   -4.204742
     74          1           0        5.665530   -1.541034   -4.791322
     75          1           0        3.179190   -4.725145   -1.505141
     76          1           0        2.361719   -4.115204   -2.828171
     77          1           0        1.786645   -1.995861   -1.172001
     78          1           0        1.823654   -3.319871    0.016093
     79          1           0        3.177449    3.519379   -5.456932
     80          1           0        3.889130    1.896100   -5.533272
     81          1           0        4.918491    3.247175   -5.694955
     82          1           0        5.883870    6.317020   -1.959344
     83          1           0        4.124852    6.519395   -1.784088
     84          1           0        5.066081    7.378745   -3.175901
     85          1           0        3.918219    5.040246    2.633714
     86          1           0        6.338001    3.823147    3.772097
     87          1           0        6.432339    6.043957    1.516791
     88          1           0        6.451103    5.890900    3.290272
     89          1           0        5.257231    6.891578    2.430977
     90          1           0        3.755084    2.968726    4.916836
     91          1           0        3.991702    4.692047    4.882935
     92          1           0        5.011498    4.447804    6.812723
     93          1           0        6.413122    3.691759    5.992814
     94          1           0        5.121927    2.677825    6.641892
     95          1           0        6.145359   -1.086781    5.484819
     96          1           0        5.412584   -2.718737    5.348994
     97          1           0        4.456677   -1.163143    5.725405
     98          1           0        3.646987   -4.287243    0.893998
     99          1           0        7.631430   -6.313904   -0.735639
    100          1           0        8.672388   -5.417450    0.412794
    101          1           0        8.311267   -4.818729   -1.221015
    102          1           0       -2.343240   -3.273311   -0.507623
    103          1           0       -2.080053   -2.509232   -2.154153
    104          1           0       -2.289500   -0.596072    0.258416
    105          1           0       -4.551028   -1.376730   -2.835362
    106          1           0       -2.967674   -0.923112   -3.500090
    107          1           0       -4.082716    0.316328   -3.266995
    108          1           0       -3.580014    1.828932   -1.381565
    109          1           0       -3.468657    1.104245    0.211314
    110          1           0       -5.581750    1.257756   -1.842076
    111          1           0       -5.881519    1.812688   -0.145107
    112          1           0       -5.456943   -0.811784    0.146349
    113          1           0       -6.511320   -0.850071   -1.295596
    114          1           0       -8.064199    0.695692   -0.095625
    115          1           0       -6.184689    0.182587    2.048100
    116          1           0       -7.909450   -0.368361    2.594795
    117          1           0       -7.610666    1.235624    2.014746
    118          1           0       -8.526417   -2.005041    1.278470
    119          1           0       -8.036243   -2.208955   -0.275990
    120          1           0      -10.159689   -1.897408   -0.910079
    121          1           0      -10.080353   -0.151152   -0.692053
    122          1           0      -10.393372   -1.454768    1.933129
    123          1           0      -11.514683   -2.196510    0.849268
    124          1           0      -12.110898    0.274665    0.132924
    125          1           0      -11.558067    1.506591    2.679199
    126          1           0      -11.294684    2.035283    1.086718
    127          1           0      -10.081752    0.932146    1.838028
    128          1           0      -13.578109    0.162189    2.606708
    129          1           0      -13.130561   -1.550533    2.315968
    130          1           0      -15.338309   -1.173307    0.931441
    131          1           0      -14.066685   -0.785371   -0.123790
    132          1           0      -14.203354    1.554927    0.548891
    133          1           0      -15.413211    1.001875    1.709442
    134          1           0      -15.821368    0.071318   -1.067464
    135          1           0      -15.353594    2.988971   -0.776299
    136          1           0      -16.926509    2.887162   -1.373746
    137          1           0      -15.625510    2.105883   -2.254898
    138          1           0      -17.434342    0.309956    1.107584
    139          1           0      -17.894819   -0.201961   -0.485168
    140          1           0      -18.219116    1.408316   -0.116838
 ---------------------------------------------------------------------

 SCF Done:  E(RPBE1PBE) =  -3005.35819424     A.U. after   15 cycles

 Excitation energies and oscillator strengths:

 Excited State   1:      Singlet-A      1.8891 eV  656.31 nm  f=0.3472  <S**2>=0.000
     245 -> 248       -0.17550
     246 -> 247        0.69255
     246 <- 247       -0.10637
 This state for optimization and/or second-order correction.
 Total Energy, E(TD-HF/TD-DFT) =  -3005.28877089
 Copying the excited state density for this state as the 1-particle RhoCI density.

 Excited State   2:      Singlet-A      2.3063 eV  537.59 nm  f=0.1015  <S**2>=0.000
     245 -> 247        0.64308
     246 -> 248        0.28282

 Excited State   3:      Singlet-A      2.9086 eV  426.26 nm  f=0.0001  <S**2>=0.000
     242 -> 247       -0.12303
     243 -> 247        0.65706
     243 -> 249        0.13360
     244 -> 247       -0.13706

 Excited State   4:      Singlet-A      2.9422 eV  421.40 nm  f=0.0003  <S**2>=0.000
     243 -> 247        0.13230
     244 -> 247        0.67530

 Excited State   5:      Singlet-A      3.0123 eV  411.59 nm  f=0.0013  <S**2>=0.000
     242 -> 247        0.68577
     243 -> 247        0.12746

 The electronic state is 1-A.
 Alpha  occ. eigenvalues --  -46.92449 -19.25964 -19.25354 -19.20078 -19.19975
 Alpha  occ. eigenvalues --  -19.18153 -19.17944 -14.42060 -14.41540 -14.39909
 Alpha  occ. eigenvalues --  -14.38682 -10.36664 -10.36466 -10.30773 -10.30752
 Alpha  occ. eigenvalues --  -10.29670 -10.29459 -10.29446 -10.29411 -10.28763
 Alpha  occ. eigenvalues --  -10.28345 -10.28126 -10.27923 -10.26989 -10.26123
 Alpha  occ. eigenvalues --  -10.26123 -10.26089 -10.26074 -10.25907 -10.25682
 Alpha  occ. eigenvalues --  -10.25480 -10.25418 -10.25368 -10.25363 -10.24913
 Alpha  occ. eigenvalues --  -10.24905 -10.24665 -10.24651 -10.24547 -10.24284
 Alpha  occ. eigenvalues --  -10.24101 -10.24068 -10.24021 -10.23821 -10.23753
 Alpha  occ. eigenvalues --  -10.23665 -10.23590 -10.23449 -10.23364 -10.23303
 Alpha  occ. eigenvalues --  -10.23190 -10.23154 -10.23121 -10.22911 -10.22840
 Alpha  occ. eigenvalues --  -10.22790 -10.22488 -10.22476 -10.22182 -10.22058
 Alpha  occ. eigenvalues --  -10.21939 -10.21920 -10.21769 -10.21761 -10.21743
 Alpha  occ. eigenvalues --  -10.21450  -3.14571  -1.87392  -1.86940  -1.86796
 Alpha  occ. eigenvalues --   -1.11055  -1.09407  -1.05461  -1.04921  -1.03023
 Alpha  occ. eigenvalues --   -1.01242  -0.99906  -0.99053  -0.98340  -0.96292
 Alpha  occ. eigenvalues --   -0.88775  -0.85050  -0.83868  -0.83652  -0.83515
 Alpha  occ. eigenvalues --   -0.83116  -0.82525  -0.82073  -0.81122  -0.80622
 Alpha  occ. eigenvalues --   -0.80567  -0.80093  -0.79093  -0.78477  -0.78040
 Alpha  occ. eigenvalues --   -0.77432  -0.76852  -0.76199  -0.75619  -0.74466
 Alpha  occ. eigenvalues --   -0.73514  -0.72574  -0.72546  -0.72017  -0.71209
 Alpha  occ. eigenvalues --   -0.70226  -0.69765  -0.69728  -0.68705  -0.68184
 Alpha  occ. eigenvalues --   -0.67786  -0.67323  -0.66587  -0.65313  -0.63602
 Alpha  occ. eigenvalues --   -0.63384  -0.62191  -0.61850  -0.60331  -0.60037
 Alpha  occ. eigenvalues --   -0.60002  -0.59877  -0.59566  -0.59174  -0.58526
 Alpha  occ. eigenvalues --   -0.57767  -0.57618  -0.56909  -0.56754  -0.55189
 Alpha  occ. eigenvalues --   -0.54115  -0.54031  -0.53556  -0.53109  -0.52432
 Alpha  occ. eigenvalues --   -0.51986  -0.51612  -0.51101  -0.51058  -0.50620
 Alpha  occ. eigenvalues --   -0.50369  -0.49693  -0.49233  -0.48874  -0.48399
 Alpha  occ. eigenvalues --   -0.48253  -0.48183  -0.47880  -0.47771  -0.47402
 Alpha  occ. eigenvalues --   -0.47260  -0.47056  -0.46811  -0.46738  -0.46451
 Alpha  occ. eigenvalues --   -0.46172  -0.46009  -0.45756  -0.45402  -0.45217
 Alpha  occ. eigenvalues --   -0.45021  -0.44911  -0.44614  -0.44371  -0.44142
 Alpha  occ. eigenvalues --   -0.44068  -0.43832  -0.43771  -0.43607  -0.43310
 Alpha  occ. eigenvalues --   -0.43225  -0.43196  -0.42983  -0.42604  -0.42464
 Alpha  occ. eigenvalues --   -0.41977  -0.41727  -0.41685  -0.41527  -0.41429
 Alpha  occ. eigenvalues --   -0.41413  -0.41100  -0.40965  -0.40779  -0.40686
 Alpha  occ. eigenvalues --   -0.40610  -0.40443  -0.40231  -0.40202  -0.39979
 Alpha  occ. eigenvalues --   -0.39780  -0.39105  -0.38888  -0.38764  -0.38628
 Alpha  occ. eigenvalues --   -0.38482  -0.38427  -0.38317  -0.38237  -0.38082
 Alpha  occ. eigenvalues --   -0.37662  -0.37558  -0.37167  -0.37090  -0.37072
 Alpha  occ. eigenvalues --   -0.36840  -0.36769  -0.36394  -0.36228  -0.36065
 Alpha  occ. eigenvalues --   -0.36055  -0.35816  -0.35624  -0.35402  -0.35196
 Alpha  occ. eigenvalues --   -0.34648  -0.34145  -0.34042  -0.33805  -0.33314
 Alpha  occ. eigenvalues --   -0.33077  -0.32723  -0.32444  -0.32336  -0.32319
 Alpha  occ. eigenvalues --   -0.31972  -0.31610  -0.31489  -0.31430  -0.31257
 Alpha  occ. eigenvalues --   -0.31003  -0.30685  -0.30301  -0.29798  -0.29464
 Alpha  occ. eigenvalues --   -0.28851  -0.28786  -0.28356  -0.27173  -0.25881
 Alpha  occ. eigenvalues --   -0.25848  -0.25535  -0.25357  -0.25237  -0.21534
 Alpha  occ. eigenvalues --   -0.19190
 Alpha virt. eigenvalues --   -0.11445  -0.05533  -0.03056  -0.01613  -0.01430
 Alpha virt. eigenvalues --    0.00518   0.00772   0.00972   0.01151   0.03200
 Alpha virt. eigenvalues --    0.04165   0.04343   0.05048   0.05419   0.05620

 Mulliken charges:
               1
     1  Mg   0.969611
     2  C    0.034644
     3  C   -0.089926
     4  C   -0.079706
     5  C   -0.065060
     6  N   -0.367470
     7  C   -0.010305
     8  C   -0.090778
     9  C   -0.109953
    10  C    0.063229
    11  C    0.023814
    12  C   -0.002727
    13  C   -0.042922
    14  C    0.244041
    15  O   -0.287969
    16  O   -0.390803
    17  N   -0.560197
    18  C    0.218338
    19  C   -0.176588
    20  C   -0.097026
    21  C    0.213119
    22  C    0.095077
    23  C    0.001620
    24  O   -0.249522
    25  C    0.000226
    26  N   -0.359192
    27  C    0.074166
    28  C   -0.106343
    29  C   -0.132118
    30  C    0.116609
    31  C    0.008129
    32  C   -0.073425
    33  C   -0.060610
    34  N   -0.450542
    35  C    0.110283
    36  C   -0.213255
    37  C   -0.007059
    38  C    0.110169
    39  C    0.085053
    40  C    0.078553
    41  O   -0.197972
    42  C   -0.073547
    43  C    0.266620
    44  O   -0.225221
    45  O   -0.383511
    46  C    0.120573
    47  C    0.278710
    48  C   -0.104376
    49  C   -0.269822
    50  C   -0.013236
    51  C    0.068661
    52  C   -0.075100
    53  C   -0.046392
    54  C   -0.200380
    55  C   -0.003698
    56  C   -0.003126
    57  C   -0.065708
    58  C   -0.038858
    59  C   -0.227139
    60  C   -0.022936
    61  C    0.062334
    62  C   -0.085385
    63  C   -0.051275
    64  C   -0.218947
    65  C    0.009781
    66  C   -0.026927
    67  H    0.010670
    68  H   -0.004699
    69  H   -0.001245
    70  H    0.058223
    71  H    0.057806
    72  H    0.052073
    73  H    0.038893
    74  H    0.050576
    75  H    0.057300
    76  H    0.049985
    77  H    0.075792
    78  H    0.081527
    79  H    0.071999
    80  H    0.017507
    81  H    0.055593
    82  H    0.065820
    83  H    0.074573
    84  H    0.063856
    85  H    0.055228
    86  H    0.048987
    87  H    0.044088
    88  H    0.040981
    89  H    0.040866
    90  H    0.046143
    91  H    0.032778
    92  H    0.045421
    93  H    0.042055
    94  H    0.046871
    95  H    0.045448
    96  H    0.074247
    97  H    0.046684
    98  H    0.079705
    99  H    0.069396
   100  H    0.067574
   101  H    0.049010
   102  H    0.068741
   103  H    0.043009
   104  H    0.021596
   105  H    0.067683
   106  H    0.057138
   107  H    0.030645
   108  H    0.042647
   109  H    0.020539
   110  H    0.031736
   111  H    0.040680
   112  H    0.034547
   113  H    0.033132
   114  H    0.041757
   115  H    0.044645
   116  H    0.046577
   117  H    0.036497
   118  H    0.026351
   119  H    0.015740
   120  H    0.031822
   121  H    0.040776
   122  H    0.031255
   123  H    0.025194
   124  H    0.040376
   125  H    0.030433
   126  H    0.031046
   127  H    0.040168
   128  H    0.017874
   129  H    0.035635
   130  H    0.020777
   131  H    0.021200
   132  H    0.019424
   133  H    0.029464
   134  H    0.039554
   135  H    0.026816
   136  H    0.036426
   137  H    0.037337
   138  H    0.038008
   139  H    0.023843
   140  H    0.030871
 Sum of Mulliken charges =  -0.00000

 Dipole moment (field-independent basis, Debye):
    X=              2.4135    Y=              5.6175    Z=              0.2364  Tot=              6.1186
 Quadrupole moment (field-independent basis, Debye-Ang):
   XX=           -357.2757   YY=           -438.8109   ZZ=           -398.0119
   XY=             13.5381   XZ=              1.8872   YZ=             38.8135

 Normal termination of Gaussian 16 at Sat Apr 30 18:03:28 2022.
