 Gaussian 16, Revision A.03,
 Gaussian 16:  ES64L-G16RevA.03 25-Dec-2016

 --------------------------------
 #p wB97XD/Def2SVP td=(nstates=5)
 --------------------------------

 ----------------------------------------------------
 step_851_chromophore_14 TDDFT with wB97XD functional
 ----------------------------------------------------
 Symbolic Z-matrix:
 Charge =  0 Multiplicity = 1

                         Standard orientation:
 ---------------------------------------------------------------------
 Center     Atomic      Atomic             Coordinates (Angstroms)
 Number     Number       Type             X           Y           Z
 ---------------------------------------------------------------------
      1         12           0        5.168504    0.855371   -0.062040
      2          6           0        4.764741   -2.555993    0.322511
      3          6           0        4.406903    0.472041   -3.348654
      4          6           0        4.933731    4.303019   -0.194397
      5          6           0        5.242974    1.131682    3.491988
      6          7           0        4.497729   -0.839553   -1.307957
      7          6           0        4.503841   -2.139519   -0.956518
      8          6           0        4.213706   -3.025719   -2.126726
      9          6           0        4.103152   -2.062403   -3.356911
     10          6           0        4.367855   -0.728465   -2.655866
     11          6           0        5.027974   -2.387482   -4.538778
     12          6           0        2.836065   -3.772705   -1.908364
     13          6           0        1.756897   -3.077778   -1.044191
     14          6           0        0.257272   -3.312739   -1.373003
     15          8           0       -0.206876   -4.339263   -1.910783
     16          8           0       -0.518707   -2.239681   -0.927817
     17          7           0        4.788393    2.153602   -1.553657
     18          6           0        4.569931    1.764659   -2.863325
     19          6           0        4.326474    2.943268   -3.689536
     20          6           0        4.489173    4.056277   -2.810151
     21          6           0        4.796968    3.564692   -1.440900
     22          6           0        4.030658    2.910022   -5.159169
     23          6           0        4.498743    5.466529   -3.297506
     24          8           0        4.104045    5.692876   -4.424679
     25          6           0        4.956659    6.539545   -2.488349
     26          7           0        5.074153    2.476028    1.446177
     27          6           0        4.987439    3.774572    1.107041
     28          6           0        4.927660    4.696792    2.409465
     29          6           0        5.306327    3.637750    3.474499
     30          6           0        5.101502    2.305298    2.794862
     31          6           0        5.813328    5.954106    2.408618
     32          6           0        4.523062    3.740060    4.870937
     33          6           0        5.338457    3.634137    6.165482
     34          7           0        4.996990   -0.391307    1.648434
     35          6           0        5.091947   -0.158610    2.979891
     36          6           0        5.053753   -1.411090    3.705754
     37          6           0        4.977761   -2.351830    2.702878
     38          6           0        4.965317   -1.735328    1.467454
     39          6           0        5.264527   -1.651977    5.180791
     40          6           0        4.881453   -3.736597    2.358553
     41          8           0        4.954530   -4.729130    3.035183
     42          6           0        4.669482   -3.909562    0.912279
     43          6           0        5.552577   -4.960271    0.332851
     44          8           0        5.177702   -6.070377    0.026539
     45          8           0        6.844854   -4.502788    0.245167
     46          6           0        7.899221   -5.329523   -0.351051
     47          6           0       -1.979802   -2.415352   -1.073266
     48          6           0       -2.620326   -1.116708   -0.639718
     49          6           0       -3.387364   -0.281814   -1.346962
     50          6           0       -3.762733   -0.623176   -2.817510
     51          6           0       -3.924595    0.992728   -0.772366
     52          6           0       -5.432644    1.051114   -0.781725
     53          6           0       -6.219843   -0.275062   -0.417066
     54          6           0       -7.589356   -0.133051    0.428435
     55          6           0       -7.267069    0.204375    1.924825
     56          6           0       -8.449987   -1.424583    0.358598
     57          6           0       -9.904094   -1.109194   -0.202561
     58          6           0      -10.954556   -1.276634    1.015371
     59          6           0      -11.931920   -0.092074    1.144340
     60          6           0      -11.139799    1.169391    1.730340
     61          6           0      -13.282443   -0.572870    1.857827
     62          6           0      -14.461281   -0.529397    0.858996
     63          6           0      -15.016596    0.845818    0.706321
     64          6           0      -16.049785    0.977450   -0.505556
     65          6           0      -16.028180    2.280246   -1.256898
     66          6           0      -17.471593    0.635989    0.068571
     67          1           0        4.429358    0.346838   -4.433133
     68          1           0        5.011140    5.392413   -0.229209
     69          1           0        5.159128    1.211170    4.577023
     70          1           0        5.042057   -3.732957   -2.143590
     71          1           0        3.086904   -2.114715   -3.749633
     72          1           0        4.344608   -2.688148   -5.333149
     73          1           0        5.659704   -3.210009   -4.204742
     74          1           0        5.665530   -1.541034   -4.791322
     75          1           0        3.179190   -4.725145   -1.505141
     76          1           0        2.361719   -4.115204   -2.828171
     77          1           0        1.786645   -1.995861   -1.172001
     78          1           0        1.823654   -3.319871    0.016093
     79          1           0        3.177449    3.519379   -5.456932
     80          1           0        3.889130    1.896100   -5.533272
     81          1           0        4.918491    3.247175   -5.694955
     82          1           0        5.883870    6.317020   -1.959344
     83          1           0        4.124852    6.519395   -1.784088
     84          1           0        5.066081    7.378745   -3.175901
     85          1           0        3.918219    5.040246    2.633714
     86          1           0        6.338001    3.823147    3.772097
     87          1           0        6.432339    6.043957    1.516791
     88          1           0        6.451103    5.890900    3.290272
     89          1           0        5.257231    6.891578    2.430977
     90          1           0        3.755084    2.968726    4.916836
     91          1           0        3.991702    4.692047    4.882935
     92          1           0        5.011498    4.447804    6.812723
     93          1           0        6.413122    3.691759    5.992814
     94          1           0        5.121927    2.677825    6.641892
     95          1           0        6.145359   -1.086781    5.484819
     96          1           0        5.412584   -2.718737    5.348994
     97          1           0        4.456677   -1.163143    5.725405
     98          1           0        3.646987   -4.287243    0.893998
     99          1           0        7.631430   -6.313904   -0.735639
    100          1           0        8.672388   -5.417450    0.412794
    101          1           0        8.311267   -4.818729   -1.221015
    102          1           0       -2.343240   -3.273311   -0.507623
    103          1           0       -2.080053   -2.509232   -2.154153
    104          1           0       -2.289500   -0.596072    0.258416
    105          1           0       -4.551028   -1.376730   -2.835362
    106          1           0       -2.967674   -0.923112   -3.500090
    107          1           0       -4.082716    0.316328   -3.266995
    108          1           0       -3.580014    1.828932   -1.381565
    109          1           0       -3.468657    1.104245    0.211314
    110          1           0       -5.581750    1.257756   -1.842076
    111          1           0       -5.881519    1.812688   -0.145107
    112          1           0       -5.456943   -0.811784    0.146349
    113          1           0       -6.511320   -0.850071   -1.295596
    114          1           0       -8.064199    0.695692   -0.095625
    115          1           0       -6.184689    0.182587    2.048100
    116          1           0       -7.909450   -0.368361    2.594795
    117          1           0       -7.610666    1.235624    2.014746
    118          1           0       -8.526417   -2.005041    1.278470
    119          1           0       -8.036243   -2.208955   -0.275990
    120          1           0      -10.159689   -1.897408   -0.910079
    121          1           0      -10.080353   -0.151152   -0.692053
    122          1           0      -10.393372   -1.454768    1.933129
    123          1           0      -11.514683   -2.196510    0.849268
    124          1           0      -12.110898    0.274665    0.132924
    125          1           0      -11.558067    1.506591    2.679199
    126          1           0      -11.294684    2.035283    1.086718
    127          1           0      -10.081752    0.932146    1.838028
    128          1           0      -13.578109    0.162189    2.606708
    129          1           0      -13.130561   -1.550533    2.315968
    130          1           0      -15.338309   -1.173307    0.931441
    131          1           0      -14.066685   -0.785371   -0.123790
    132          1           0      -14.203354    1.554927    0.548891
    133          1           0      -15.413211    1.001875    1.709442
    134          1           0      -15.821368    0.071318   -1.067464
    135          1           0      -15.353594    2.988971   -0.776299
    136          1           0      -16.926509    2.887162   -1.373746
    137          1           0      -15.625510    2.105883   -2.254898
    138          1           0      -17.434342    0.309956    1.107584
    139          1           0      -17.894819   -0.201961   -0.485168
    140          1           0      -18.219116    1.408316   -0.116838
 ---------------------------------------------------------------------

 SCF Done:  E(RwB97XD) =  -3007.87068962     A.U. after   18 cycles

 Excitation energies and oscillator strengths:

 Excited State   1:      Singlet-A      1.6809 eV  737.60 nm  f=0.3600  <S**2>=0.000
     245 -> 248        0.18423
     246 -> 247        0.68436
     245 <- 248        0.11710
 This state for optimization and/or second-order correction.
 Total Energy, E(TD-HF/TD-DFT) =  -3007.80891753
 Copying the excited state density for this state as the 1-particle RhoCI density.

 Excited State   2:      Singlet-A      2.2386 eV  553.86 nm  f=0.1020  <S**2>=0.000
     245 -> 247        0.63131
     246 -> 248       -0.30462

 Excited State   3:      Singlet-A      3.3514 eV  369.95 nm  f=0.0004  <S**2>=0.000
     240 -> 247       -0.16157
     243 -> 247       -0.41617
     244 -> 247        0.51965

 Excited State   4:      Singlet-A      3.5181 eV  352.42 nm  f=0.0886  <S**2>=0.000
     243 -> 247        0.43414
     244 -> 247        0.38885
     245 -> 247        0.10053
     246 -> 248        0.33452

 Excited State   5:      Singlet-A      3.5646 eV  347.83 nm  f=0.0144  <S**2>=0.000
     242 -> 247        0.57530
     242 -> 249       -0.24874
     242 -> 251       -0.16933
     243 -> 249        0.10727
     246 -> 248        0.11606

 The electronic state is 1-A.
 Alpha  occ. eigenvalues --  -46.95438 -19.30509 -19.29886 -19.24757 -19.24615
 Alpha  occ. eigenvalues --  -19.22851 -19.22839 -14.47265 -14.46592 -14.44992
 Alpha  occ. eigenvalues --  -14.43526 -10.43411 -10.43276 -10.37691 -10.37508
 Alpha  occ. eigenvalues --  -10.36330 -10.35945 -10.35942 -10.35892 -10.35273
 Alpha  occ. eigenvalues --  -10.34553 -10.34519 -10.34270 -10.33060 -10.32833
 Alpha  occ. eigenvalues --  -10.32386 -10.32312 -10.32230 -10.32222 -10.32127
 Alpha  occ. eigenvalues --  -10.31904 -10.31697 -10.31579 -10.31525 -10.31296
 Alpha  occ. eigenvalues --  -10.31250 -10.31205 -10.31120 -10.30983 -10.30556
 Alpha  occ. eigenvalues --  -10.30530 -10.30492 -10.30303 -10.30099 -10.30032
 Alpha  occ. eigenvalues --  -10.29936 -10.29868 -10.29838 -10.29820 -10.29801
 Alpha  occ. eigenvalues --  -10.29759 -10.29709 -10.29495 -10.29271 -10.29195
 Alpha  occ. eigenvalues --  -10.29127 -10.28847 -10.28826 -10.28529 -10.28378
 Alpha  occ. eigenvalues --  -10.28359 -10.28221 -10.28198 -10.28126 -10.28110
 Alpha  occ. eigenvalues --  -10.27868  -3.21427  -1.94996  -1.94542  -1.94396
 Alpha  occ. eigenvalues --   -1.18430  -1.16773  -1.12812  -1.12507  -1.10355
 Alpha  occ. eigenvalues --   -1.08569  -1.07306  -1.06375  -1.05651  -1.03897
 Alpha  occ. eigenvalues --   -0.96306  -0.92716  -0.91498  -0.91313  -0.91190
 Alpha  occ. eigenvalues --   -0.90729  -0.90119  -0.89753  -0.88615  -0.88428
 Alpha  occ. eigenvalues --   -0.88289  -0.87772  -0.86811  -0.86051  -0.85755
 Alpha  occ. eigenvalues --   -0.85100  -0.84512  -0.83803  -0.83230  -0.82098
 Alpha  occ. eigenvalues --   -0.81171  -0.80194  -0.80143  -0.79738  -0.78843
 Alpha  occ. eigenvalues --   -0.77919  -0.77423  -0.77366  -0.76403  -0.75814
 Alpha  occ. eigenvalues --   -0.75366  -0.74947  -0.74141  -0.72932  -0.71059
 Alpha  occ. eigenvalues --   -0.70943  -0.69823  -0.69479  -0.67895  -0.67623
 Alpha  occ. eigenvalues --   -0.67521  -0.67331  -0.67064  -0.66805  -0.65937
 Alpha  occ. eigenvalues --   -0.65435  -0.65266  -0.64436  -0.64328  -0.62609
 Alpha  occ. eigenvalues --   -0.61615  -0.61432  -0.61010  -0.60553  -0.59863
 Alpha  occ. eigenvalues --   -0.59431  -0.59027  -0.58626  -0.58471  -0.58131
 Alpha  occ. eigenvalues --   -0.57808  -0.57125  -0.56622  -0.56194  -0.55952
 Alpha  occ. eigenvalues --   -0.55676  -0.55648  -0.55286  -0.55068  -0.54814
 Alpha  occ. eigenvalues --   -0.54690  -0.54440  -0.54187  -0.54081  -0.53850
 Alpha  occ. eigenvalues --   -0.53473  -0.53252  -0.53128  -0.52751  -0.52543
 Alpha  occ. eigenvalues --   -0.52347  -0.52252  -0.51996  -0.51838  -0.51517
 Alpha  occ. eigenvalues --   -0.51391  -0.51126  -0.51093  -0.50923  -0.50613
 Alpha  occ. eigenvalues --   -0.50531  -0.50496  -0.50281  -0.49871  -0.49662
 Alpha  occ. eigenvalues --   -0.49259  -0.49102  -0.48895  -0.48757  -0.48657
 Alpha  occ. eigenvalues --   -0.48626  -0.48365  -0.48087  -0.48024  -0.47909
 Alpha  occ. eigenvalues --   -0.47843  -0.47637  -0.47465  -0.47443  -0.47110
 Alpha  occ. eigenvalues --   -0.46939  -0.46308  -0.45967  -0.45890  -0.45794
 Alpha  occ. eigenvalues --   -0.45655  -0.45548  -0.45434  -0.45357  -0.45257
 Alpha  occ. eigenvalues --   -0.44804  -0.44692  -0.44305  -0.44221  -0.44138
 Alpha  occ. eigenvalues --   -0.43945  -0.43873  -0.43477  -0.43359  -0.43305
 Alpha  occ. eigenvalues --   -0.43066  -0.42864  -0.42708  -0.42499  -0.42228
 Alpha  occ. eigenvalues --   -0.41724  -0.41089  -0.41018  -0.40792  -0.40341
 Alpha  occ. eigenvalues --   -0.40138  -0.39696  -0.39441  -0.39354  -0.39353
 Alpha  occ. eigenvalues --   -0.38906  -0.38651  -0.38542  -0.38480  -0.38305
 Alpha  occ. eigenvalues --   -0.37982  -0.37636  -0.37296  -0.36756  -0.36240
 Alpha  occ. eigenvalues --   -0.35659  -0.35634  -0.35445  -0.33762  -0.32687
 Alpha  occ. eigenvalues --   -0.32573  -0.32489  -0.32345  -0.32069  -0.26559
 Alpha  occ. eigenvalues --   -0.23397
 Alpha virt. eigenvalues --   -0.07331  -0.00167   0.03250   0.04469   0.04940
 Alpha virt. eigenvalues --    0.07425   0.07486   0.07809   0.07951   0.09608
 Alpha virt. eigenvalues --    0.10710   0.11089   0.11875   0.12112   0.12347

 Mulliken charges:
               1
     1  Mg   0.961868
     2  C    0.035329
     3  C   -0.106253
     4  C   -0.091970
     5  C   -0.082068
     6  N   -0.329851
     7  C   -0.042135
     8  C   -0.065800
     9  C   -0.087656
    10  C    0.050986
    11  C    0.033691
    12  C    0.005872
    13  C   -0.019106
    14  C    0.234686
    15  O   -0.285810
    16  O   -0.391003
    17  N   -0.529878
    18  C    0.211487
    19  C   -0.166860
    20  C   -0.089540
    21  C    0.206539
    22  C    0.105932
    23  C    0.000689
    24  O   -0.244369
    25  C    0.013097
    26  N   -0.325003
    27  C    0.062238
    28  C   -0.082323
    29  C   -0.104149
    30  C    0.105804
    31  C    0.018739
    32  C   -0.057865
    33  C   -0.045536
    34  N   -0.411430
    35  C    0.100932
    36  C   -0.215629
    37  C    0.006409
    38  C    0.080829
    39  C    0.095410
    40  C    0.053093
    41  O   -0.188548
    42  C   -0.024862
    43  C    0.238617
    44  O   -0.217999
    45  O   -0.382319
    46  C    0.136277
    47  C    0.294648
    48  C   -0.115349
    49  C   -0.252450
    50  C   -0.004136
    51  C    0.086596
    52  C   -0.058110
    53  C   -0.025789
    54  C   -0.172708
    55  C    0.009513
    56  C    0.010404
    57  C   -0.050272
    58  C   -0.020380
    59  C   -0.200684
    60  C   -0.000806
    61  C    0.078467
    62  C   -0.060225
    63  C   -0.033880
    64  C   -0.187722
    65  C    0.020655
    66  C   -0.016490
    67  H    0.001732
    68  H   -0.016434
    69  H   -0.012626
    70  H    0.046855
    71  H    0.048298
    72  H    0.047978
    73  H    0.033623
    74  H    0.044175
    75  H    0.048624
    76  H    0.043249
    77  H    0.064683
    78  H    0.073547
    79  H    0.069924
    80  H    0.013539
    81  H    0.051910
    82  H    0.060217
    83  H    0.067416
    84  H    0.063699
    85  H    0.045956
    86  H    0.033396
    87  H    0.037267
    88  H    0.035153
    89  H    0.036367
    90  H    0.037072
    91  H    0.023968
    92  H    0.040381
    93  H    0.035687
    94  H    0.041339
    95  H    0.038606
    96  H    0.071354
    97  H    0.040486
    98  H    0.068284
    99  H    0.066032
   100  H    0.063681
   101  H    0.044237
   102  H    0.065546
   103  H    0.035703
   104  H    0.017689
   105  H    0.062156
   106  H    0.052820
   107  H    0.024530
   108  H    0.035318
   109  H    0.013443
   110  H    0.020988
   111  H    0.033306
   112  H    0.018303
   113  H    0.022079
   114  H    0.028391
   115  H    0.038890
   116  H    0.040282
   117  H    0.030847
   118  H    0.017314
   119  H    0.008597
   120  H    0.024950
   121  H    0.031303
   122  H    0.018695
   123  H    0.016315
   124  H    0.024431
   125  H    0.024762
   126  H    0.025867
   127  H    0.020867
   128  H    0.006838
   129  H    0.029586
   130  H    0.012193
   131  H    0.006902
   132  H    0.005964
   133  H    0.018080
   134  H    0.027341
   135  H    0.020528
   136  H    0.031373
   137  H    0.031929
   138  H    0.031347
   139  H    0.018017
   140  H    0.024990
 Sum of Mulliken charges =  -0.00000

 Dipole moment (field-independent basis, Debye):
    X=              2.4556    Y=              5.9104    Z=             -0.1778  Tot=              6.4027
 Quadrupole moment (field-independent basis, Debye-Ang):
   XX=           -356.0757   YY=           -438.1153   ZZ=           -397.9399
   XY=             14.6521   XZ=             -0.5549   YZ=             37.9557

 Normal termination of Gaussian 16 at Sat Apr 30 18:32:45 2022.
