 Gaussian 16, Revision A.03,
 Gaussian 16:  ES64L-G16RevA.03 25-Dec-2016

 --------------------
 #p ZINDO=(nstates=5)
 --------------------

 -----------------------------
 step_851_chromophore_14 ZINDO
 -----------------------------
 Symbolic Z-matrix:
 Charge =  0 Multiplicity = 1

                         Standard orientation:
 ---------------------------------------------------------------------
 Center     Atomic      Atomic             Coordinates (Angstroms)
 Number     Number       Type             X           Y           Z
 ---------------------------------------------------------------------
      1         12           0        5.168504    0.855371   -0.062040
      2          6           0        4.764741   -2.555993    0.322511
      3          6           0        4.406903    0.472041   -3.348654
      4          6           0        4.933731    4.303019   -0.194397
      5          6           0        5.242974    1.131682    3.491988
      6          7           0        4.497729   -0.839553   -1.307957
      7          6           0        4.503841   -2.139519   -0.956518
      8          6           0        4.213706   -3.025719   -2.126726
      9          6           0        4.103152   -2.062403   -3.356911
     10          6           0        4.367855   -0.728465   -2.655866
     11          6           0        5.027974   -2.387482   -4.538778
     12          6           0        2.836065   -3.772705   -1.908364
     13          6           0        1.756897   -3.077778   -1.044191
     14          6           0        0.257272   -3.312739   -1.373003
     15          8           0       -0.206876   -4.339263   -1.910783
     16          8           0       -0.518707   -2.239681   -0.927817
     17          7           0        4.788393    2.153602   -1.553657
     18          6           0        4.569931    1.764659   -2.863325
     19          6           0        4.326474    2.943268   -3.689536
     20          6           0        4.489173    4.056277   -2.810151
     21          6           0        4.796968    3.564692   -1.440900
     22          6           0        4.030658    2.910022   -5.159169
     23          6           0        4.498743    5.466529   -3.297506
     24          8           0        4.104045    5.692876   -4.424679
     25          6           0        4.956659    6.539545   -2.488349
     26          7           0        5.074153    2.476028    1.446177
     27          6           0        4.987439    3.774572    1.107041
     28          6           0        4.927660    4.696792    2.409465
     29          6           0        5.306327    3.637750    3.474499
     30          6           0        5.101502    2.305298    2.794862
     31          6           0        5.813328    5.954106    2.408618
     32          6           0        4.523062    3.740060    4.870937
     33          6           0        5.338457    3.634137    6.165482
     34          7           0        4.996990   -0.391307    1.648434
     35          6           0        5.091947   -0.158610    2.979891
     36          6           0        5.053753   -1.411090    3.705754
     37          6           0        4.977761   -2.351830    2.702878
     38          6           0        4.965317   -1.735328    1.467454
     39          6           0        5.264527   -1.651977    5.180791
     40          6           0        4.881453   -3.736597    2.358553
     41          8           0        4.954530   -4.729130    3.035183
     42          6           0        4.669482   -3.909562    0.912279
     43          6           0        5.552577   -4.960271    0.332851
     44          8           0        5.177702   -6.070377    0.026539
     45          8           0        6.844854   -4.502788    0.245167
     46          6           0        7.899221   -5.329523   -0.351051
     47          6           0       -1.979802   -2.415352   -1.073266
     48          6           0       -2.620326   -1.116708   -0.639718
     49          6           0       -3.387364   -0.281814   -1.346962
     50          6           0       -3.762733   -0.623176   -2.817510
     51          6           0       -3.924595    0.992728   -0.772366
     52          6           0       -5.432644    1.051114   -0.781725
     53          6           0       -6.219843   -0.275062   -0.417066
     54          6           0       -7.589356   -0.133051    0.428435
     55          6           0       -7.267069    0.204375    1.924825
     56          6           0       -8.449987   -1.424583    0.358598
     57          6           0       -9.904094   -1.109194   -0.202561
     58          6           0      -10.954556   -1.276634    1.015371
     59          6           0      -11.931920   -0.092074    1.144340
     60          6           0      -11.139799    1.169391    1.730340
     61          6           0      -13.282443   -0.572870    1.857827
     62          6           0      -14.461281   -0.529397    0.858996
     63          6           0      -15.016596    0.845818    0.706321
     64          6           0      -16.049785    0.977450   -0.505556
     65          6           0      -16.028180    2.280246   -1.256898
     66          6           0      -17.471593    0.635989    0.068571
     67          1           0        4.429358    0.346838   -4.433133
     68          1           0        5.011140    5.392413   -0.229209
     69          1           0        5.159128    1.211170    4.577023
     70          1           0        5.042057   -3.732957   -2.143590
     71          1           0        3.086904   -2.114715   -3.749633
     72          1           0        4.344608   -2.688148   -5.333149
     73          1           0        5.659704   -3.210009   -4.204742
     74          1           0        5.665530   -1.541034   -4.791322
     75          1           0        3.179190   -4.725145   -1.505141
     76          1           0        2.361719   -4.115204   -2.828171
     77          1           0        1.786645   -1.995861   -1.172001
     78          1           0        1.823654   -3.319871    0.016093
     79          1           0        3.177449    3.519379   -5.456932
     80          1           0        3.889130    1.896100   -5.533272
     81          1           0        4.918491    3.247175   -5.694955
     82          1           0        5.883870    6.317020   -1.959344
     83          1           0        4.124852    6.519395   -1.784088
     84          1           0        5.066081    7.378745   -3.175901
     85          1           0        3.918219    5.040246    2.633714
     86          1           0        6.338001    3.823147    3.772097
     87          1           0        6.432339    6.043957    1.516791
     88          1           0        6.451103    5.890900    3.290272
     89          1           0        5.257231    6.891578    2.430977
     90          1           0        3.755084    2.968726    4.916836
     91          1           0        3.991702    4.692047    4.882935
     92          1           0        5.011498    4.447804    6.812723
     93          1           0        6.413122    3.691759    5.992814
     94          1           0        5.121927    2.677825    6.641892
     95          1           0        6.145359   -1.086781    5.484819
     96          1           0        5.412584   -2.718737    5.348994
     97          1           0        4.456677   -1.163143    5.725405
     98          1           0        3.646987   -4.287243    0.893998
     99          1           0        7.631430   -6.313904   -0.735639
    100          1           0        8.672388   -5.417450    0.412794
    101          1           0        8.311267   -4.818729   -1.221015
    102          1           0       -2.343240   -3.273311   -0.507623
    103          1           0       -2.080053   -2.509232   -2.154153
    104          1           0       -2.289500   -0.596072    0.258416
    105          1           0       -4.551028   -1.376730   -2.835362
    106          1           0       -2.967674   -0.923112   -3.500090
    107          1           0       -4.082716    0.316328   -3.266995
    108          1           0       -3.580014    1.828932   -1.381565
    109          1           0       -3.468657    1.104245    0.211314
    110          1           0       -5.581750    1.257756   -1.842076
    111          1           0       -5.881519    1.812688   -0.145107
    112          1           0       -5.456943   -0.811784    0.146349
    113          1           0       -6.511320   -0.850071   -1.295596
    114          1           0       -8.064199    0.695692   -0.095625
    115          1           0       -6.184689    0.182587    2.048100
    116          1           0       -7.909450   -0.368361    2.594795
    117          1           0       -7.610666    1.235624    2.014746
    118          1           0       -8.526417   -2.005041    1.278470
    119          1           0       -8.036243   -2.208955   -0.275990
    120          1           0      -10.159689   -1.897408   -0.910079
    121          1           0      -10.080353   -0.151152   -0.692053
    122          1           0      -10.393372   -1.454768    1.933129
    123          1           0      -11.514683   -2.196510    0.849268
    124          1           0      -12.110898    0.274665    0.132924
    125          1           0      -11.558067    1.506591    2.679199
    126          1           0      -11.294684    2.035283    1.086718
    127          1           0      -10.081752    0.932146    1.838028
    128          1           0      -13.578109    0.162189    2.606708
    129          1           0      -13.130561   -1.550533    2.315968
    130          1           0      -15.338309   -1.173307    0.931441
    131          1           0      -14.066685   -0.785371   -0.123790
    132          1           0      -14.203354    1.554927    0.548891
    133          1           0      -15.413211    1.001875    1.709442
    134          1           0      -15.821368    0.071318   -1.067464
    135          1           0      -15.353594    2.988971   -0.776299
    136          1           0      -16.926509    2.887162   -1.373746
    137          1           0      -15.625510    2.105883   -2.254898
    138          1           0      -17.434342    0.309956    1.107584
    139          1           0      -17.894819   -0.201961   -0.485168
    140          1           0      -18.219116    1.408316   -0.116838
 ---------------------------------------------------------------------

 SCF Done:  E(RZINDO/S) =  -474.456692838     A.U. after   20 cycles

 Excitation energies and oscillator strengths:

 Excited State   1:      Singlet-A      1.2889 eV  961.92 nm  f=0.5804  <S**2>=0.000
     175 ->178         0.18623
     176 ->177         0.66528
 This state for optimization and/or second-order correction.
 Total Energy, E(CIS/TDA) =  -474.409325616
 Copying the excited state density for this state as the 1-particle RhoCI density.

 Excited State   2:      Singlet-A      1.9637 eV  631.39 nm  f=0.0321  <S**2>=0.000
     175 ->177         0.53805
     176 ->178        -0.43432

 Excited State   3:      Singlet-A      2.8886 eV  429.21 nm  f=0.0022  <S**2>=0.000
     171 ->177         0.32735
     171 ->179        -0.33336
     171 ->181         0.33837
     171 ->185        -0.17463
     171 ->187        -0.18771
     171 ->202        -0.14701

 Excited State   4:      Singlet-A      2.9785 eV  416.27 nm  f=0.0009  <S**2>=0.000
     169 ->177         0.31376
     169 ->178        -0.16764
     169 ->179         0.37542
     169 ->181         0.31588
     169 ->185         0.24645
     169 ->192         0.10829

 Excited State   5:      Singlet-A      3.0460 eV  407.04 nm  f=0.2337  <S**2>=0.000
     175 ->177         0.17515
     176 ->178         0.22076
     176 ->179        -0.12407
     176 ->180         0.62616

 The electronic state is 1-A.
 Alpha  occ. eigenvalues --   -1.87753  -1.82106  -1.79884  -1.73474  -1.71908
 Alpha  occ. eigenvalues --   -1.70119  -1.64097  -1.63209  -1.61331  -1.61192
 Alpha  occ. eigenvalues --   -1.55390  -1.49644  -1.48924  -1.48107  -1.47232
 Alpha  occ. eigenvalues --   -1.46253  -1.43126  -1.41398  -1.40833  -1.37457
 Alpha  occ. eigenvalues --   -1.36812  -1.34021  -1.31948  -1.30495  -1.29299
 Alpha  occ. eigenvalues --   -1.28757  -1.26121  -1.24515  -1.20335  -1.18988
 Alpha  occ. eigenvalues --   -1.16989  -1.16532  -1.15721  -1.14157  -1.13446
 Alpha  occ. eigenvalues --   -1.12537  -1.10152  -1.09168  -1.06678  -1.05025
 Alpha  occ. eigenvalues --   -1.03670  -1.01981  -1.00314  -0.97962  -0.96089
 Alpha  occ. eigenvalues --   -0.95953  -0.94400  -0.93453  -0.92947  -0.92578
 Alpha  occ. eigenvalues --   -0.91254  -0.89214  -0.88326  -0.88105  -0.86928
 Alpha  occ. eigenvalues --   -0.86285  -0.84827  -0.84154  -0.82339  -0.80881
 Alpha  occ. eigenvalues --   -0.80153  -0.78985  -0.78337  -0.76896  -0.76384
 Alpha  occ. eigenvalues --   -0.76076  -0.74721  -0.74302  -0.73758  -0.73303
 Alpha  occ. eigenvalues --   -0.72555  -0.72005  -0.71793  -0.71632  -0.70549
 Alpha  occ. eigenvalues --   -0.70020  -0.69825  -0.69081  -0.68370  -0.67787
 Alpha  occ. eigenvalues --   -0.67396  -0.67040  -0.66973  -0.66420  -0.65746
 Alpha  occ. eigenvalues --   -0.65062  -0.64933  -0.64516  -0.64298  -0.63273
 Alpha  occ. eigenvalues --   -0.62814  -0.62598  -0.62141  -0.62001  -0.61931
 Alpha  occ. eigenvalues --   -0.61632  -0.61452  -0.60953  -0.60600  -0.59994
 Alpha  occ. eigenvalues --   -0.59727  -0.59639  -0.59318  -0.58934  -0.58024
 Alpha  occ. eigenvalues --   -0.57705  -0.57418  -0.56950  -0.56417  -0.56197
 Alpha  occ. eigenvalues --   -0.56096  -0.55924  -0.55329  -0.55262  -0.55013
 Alpha  occ. eigenvalues --   -0.54121  -0.53938  -0.53388  -0.53351  -0.53144
 Alpha  occ. eigenvalues --   -0.53122  -0.52695  -0.52378  -0.51882  -0.51718
 Alpha  occ. eigenvalues --   -0.51557  -0.50731  -0.50659  -0.50489  -0.50093
 Alpha  occ. eigenvalues --   -0.50021  -0.49457  -0.49244  -0.49000  -0.48804
 Alpha  occ. eigenvalues --   -0.48766  -0.48562  -0.48421  -0.48262  -0.48124
 Alpha  occ. eigenvalues --   -0.47527  -0.47142  -0.47052  -0.46996  -0.46451
 Alpha  occ. eigenvalues --   -0.46173  -0.45997  -0.45591  -0.45273  -0.45152
 Alpha  occ. eigenvalues --   -0.44900  -0.44632  -0.44490  -0.44390  -0.44088
 Alpha  occ. eigenvalues --   -0.44046  -0.43969  -0.43305  -0.42768  -0.42308
 Alpha  occ. eigenvalues --   -0.41978  -0.41736  -0.41637  -0.39637  -0.38754
 Alpha  occ. eigenvalues --   -0.38165  -0.37030  -0.35394  -0.35026  -0.34024
 Alpha  occ. eigenvalues --   -0.33970  -0.33215  -0.32649  -0.32523  -0.27386
 Alpha  occ. eigenvalues --   -0.22344
 Alpha virt. eigenvalues --   -0.08883  -0.02561  -0.00076   0.00489   0.01661
 Alpha virt. eigenvalues --    0.01771   0.02371   0.03088   0.04713   0.04907
 Alpha virt. eigenvalues --    0.06311   0.06849   0.07366   0.07674   0.08051

 Mulliken charges:
               1
     1  Mg   0.430224
     2  C   -0.047358
     3  C   -0.069634
     4  C   -0.093577
     5  C   -0.064108
     6  N   -0.278746
     7  C    0.116591
     8  C    0.001898
     9  C   -0.001348
    10  C    0.145028
    11  C   -0.052818
    12  C   -0.025953
    13  C    0.012717
    14  C    0.453542
    15  O   -0.521275
    16  O   -0.276643
    17  N   -0.331339
    18  C    0.125550
    19  C    0.051184
    20  C   -0.052530
    21  C    0.121579
    22  C   -0.028761
    23  C    0.337712
    24  O   -0.547034
    25  C   -0.029334
    26  N   -0.269675
    27  C    0.148302
    28  C   -0.001025
    29  C   -0.004146
    30  C    0.107921
    31  C   -0.053067
    32  C   -0.041108
    33  C   -0.055512
    34  N   -0.324897
    35  C    0.090552
    36  C    0.010103
    37  C   -0.048837
    38  C    0.084686
    39  C   -0.038436
    40  C    0.340603
    41  O   -0.530489
    42  C    0.061721
    43  C    0.494719
    44  O   -0.513842
    45  O   -0.275832
    46  C    0.077568
    47  C    0.111028
    48  C   -0.101175
    49  C    0.002064
    50  C   -0.051844
    51  C   -0.004551
    52  C   -0.033389
    53  C   -0.052464
    54  C   -0.017729
    55  C   -0.063549
    56  C   -0.034624
    57  C   -0.050407
    58  C   -0.041798
    59  C   -0.020315
    60  C   -0.064852
    61  C   -0.028309
    62  C   -0.036482
    63  C   -0.037731
    64  C   -0.011922
    65  C   -0.047952
    66  C   -0.065388
    67  H    0.030815
    68  H    0.033770
    69  H    0.025625
    70  H    0.042282
    71  H    0.037951
    72  H    0.027731
    73  H    0.024857
    74  H    0.027992
    75  H    0.027576
    76  H    0.031587
    77  H    0.038016
    78  H    0.054493
    79  H    0.048197
    80  H    0.016182
    81  H    0.037730
    82  H    0.034452
    83  H    0.055985
    84  H    0.047727
    85  H    0.035948
    86  H    0.034213
    87  H    0.020223
    88  H    0.022727
    89  H    0.018805
    90  H    0.021040
    91  H    0.012179
    92  H    0.019983
    93  H    0.022056
    94  H    0.020706
    95  H    0.023881
    96  H    0.042695
    97  H    0.031057
    98  H    0.061485
    99  H    0.053016
   100  H    0.039406
   101  H    0.027810
   102  H    0.060161
   103  H    0.048882
   104  H    0.028017
   105  H    0.033428
   106  H    0.028306
   107  H    0.012581
   108  H    0.021112
   109  H    0.018381
   110  H    0.018340
   111  H    0.023461
   112  H    0.020885
   113  H    0.019397
   114  H    0.026839
   115  H    0.032519
   116  H    0.030906
   117  H    0.010052
   118  H    0.025269
   119  H    0.011493
   120  H    0.013836
   121  H    0.032741
   122  H    0.021096
   123  H    0.010989
   124  H    0.022091
   125  H    0.015831
   126  H    0.016146
   127  H    0.028136
   128  H    0.018555
   129  H    0.026446
   130  H    0.023427
   131  H    0.004942
   132  H    0.012865
   133  H    0.020245
   134  H    0.027119
   135  H    0.012993
   136  H    0.024437
   137  H    0.014144
   138  H    0.023109
   139  H    0.007496
   140  H    0.019641
 Sum of Mulliken charges =  -0.00000

 Dipole moment (field-independent basis, Debye):
    X=              3.0769    Y=              8.9508    Z=             -0.7234  Tot=              9.4925
 N-N= 4.331031710309D+03 E-N= 0.000000000000D+00  KE=-9.336122898645D+03
 Leave Link  601 at Sat Apr 30 18:45:57 2022, MaxMem=  6710886400 cpu:               1.0 elap:               0.1
 (Enter /sw/apps/gaussian-16.0/g16/l9999.exe)
 1\1\GINC-BP1-COMPUTE134\SP\RZINDO CIS\STO-3G\C55H74Mg1N4O6\OF15641\30-
 Apr-2022\0\\#p ZINDO=(nstates=5)\\step_851_chromophore_14 ZINDO\\0,1\M
 g,0,46.24,43.987,44.294\C,0,42.896,43.204,43.903\C,0,46.971,40.732,43.
 662\C,0,49.538,44.995,44.037\C,0,45.323,47.432,44.23\N,0,45.057,42.225
 ,43.685\C,0,43.714,42.126,43.688\C,0,43.267,40.718,43.45\C,0,44.584,39
 .873,43.379\C,0,45.609,40.986,43.606\C,0,44.664,38.687,44.351\C,0,42.4
 97,40.623,42.071\C,0,42.872,41.626,40.954\C,0,42.767,41.18,39.47\O,0,4

 Normal termination of Gaussian 16 at Sat Apr 30 18:45:57 2022.
