 Gaussian 16, Revision A.03,
 Gaussian 16:  ES64L-G16RevA.03 25-Dec-2016

 ------------------------------
 #p blyp/Def2SVP td=(nstates=5)
 ------------------------------

 ---------------------------------------------------
 step_1451_chromophore_19 TDDFT with blyp functional
 ---------------------------------------------------
 Symbolic Z-matrix:
 Charge =  0 Multiplicity = 1

                         Standard orientation:
 ---------------------------------------------------------------------
 Center     Atomic      Atomic             Coordinates (Angstroms)
 Number     Number       Type             X           Y           Z
 ---------------------------------------------------------------------
      1         12           0       -5.845382    0.373554   -0.148447
      2          6           0       -3.315936   -2.135967   -0.409438
      3          6           0       -3.402328    2.528402    0.746783
      4          6           0       -8.346809    2.531863    0.535304
      5          6           0       -8.295055   -2.151283   -0.714152
      6          7           0       -3.648087    0.188846    0.321577
      7          6           0       -2.855249   -0.917886   -0.099498
      8          6           0       -1.379404   -0.456445   -0.084540
      9          6           0       -1.435474    0.976079    0.495588
     10          6           0       -2.864071    1.269600    0.488151
     11          6           0       -0.723100    1.039307    1.935353
     12          6           0       -0.654651   -0.679630   -1.461355
     13          6           0        0.622083   -1.532544   -1.402229
     14          6           0        1.618924   -1.349739   -0.220054
     15          8           0        1.398676   -1.754264    0.950552
     16          8           0        2.855782   -0.913571   -0.643909
     17          7           0       -5.837851    2.272914    0.465087
     18          6           0       -4.710152    3.024852    0.769084
     19          6           0       -5.198080    4.439823    0.926858
     20          6           0       -6.594170    4.446656    1.028210
     21          6           0       -6.957457    3.009533    0.595011
     22          6           0       -4.287020    5.546039    1.127920
     23          6           0       -7.518204    5.581984    1.311079
     24          8           0       -8.754737    5.377490    1.423363
     25          6           0       -7.025071    6.994669    1.664397
     26          7           0       -7.974931    0.199631   -0.028904
     27          6           0       -8.754730    1.258418    0.171025
     28          6           0      -10.221785    0.853893    0.245668
     29          6           0      -10.305831   -0.557503   -0.441366
     30          6           0       -8.767223   -0.884542   -0.382170
     31          6           0      -10.809669    0.971531    1.681549
     32          6           0      -10.951839   -0.462191   -1.895605
     33          6           0      -10.160859    0.227570   -3.002687
     34          7           0       -5.861825   -1.759977   -0.441409
     35          6           0       -6.977065   -2.633520   -0.681602
     36          6           0       -6.382903   -3.957220   -1.007997
     37          6           0       -4.983507   -3.714510   -0.940335
     38          6           0       -4.734415   -2.446041   -0.572861
     39          6           0       -7.145978   -5.287386   -1.138237
     40          6           0       -3.740766   -4.449700   -0.981182
     41          8           0       -3.622546   -5.650752   -1.196990
     42          6           0       -2.581908   -3.445495   -0.688692
     43          6           0       -2.021369   -3.912045    0.584497
     44          8           0       -2.484364   -3.638080    1.661091
     45          8           0       -0.907876   -4.723832    0.393234
     46          6           0       -0.385778   -5.332279    1.598065
     47          6           0        3.829825   -0.552078    0.356794
     48          6           0        5.093591   -0.380524   -0.381285
     49          6           0        6.378240   -0.432775   -0.028549
     50          6           0        6.667162   -0.921322    1.406361
     51          6           0        7.557866    0.063141   -0.864563
     52          6           0        7.783254    1.573044   -0.923852
     53          6           0        8.171706    2.039961   -2.396048
     54          6           0        9.453544    2.840691   -2.408275
     55          6           0        9.121491    4.244961   -2.857842
     56          6           0       10.616984    2.164272   -3.259407
     57          6           0       11.958638    2.208954   -2.565023
     58          6           0       12.020530    1.017331   -1.616437
     59          6           0       13.019597    1.324803   -0.424554
     60          6           0       14.127221    2.400627   -0.530544
     61          6           0       13.648425   -0.015287    0.117718
     62          6           0       13.460890    0.002252    1.643881
     63          6           0       12.154523   -0.655011    2.077635
     64          6           0       12.343237   -1.956348    2.851042
     65          6           0       11.865466   -3.170388    2.023706
     66          6           0       11.657522   -1.822410    4.254559
     67          1           0       -2.753165    3.371218    0.991670
     68          1           0       -9.126508    3.252206    0.792757
     69          1           0       -9.032525   -2.879683   -1.059083
     70          1           0       -0.874806   -1.080434    0.652386
     71          1           0       -0.819492    1.695718   -0.043846
     72          1           0       -1.371678    0.632194    2.710450
     73          1           0       -0.553705    2.057762    2.283657
     74          1           0        0.146603    0.393807    2.059337
     75          1           0       -0.495383    0.321575   -1.862110
     76          1           0       -1.273102   -1.199178   -2.193373
     77          1           0        1.130864   -1.293470   -2.335729
     78          1           0        0.194912   -2.518259   -1.586088
     79          1           0       -4.736896    6.423843    0.663445
     80          1           0       -3.298757    5.409147    0.687799
     81          1           0       -4.193965    5.810379    2.180913
     82          1           0       -6.300680    6.864150    2.469018
     83          1           0       -7.855143    7.542291    2.109611
     84          1           0       -6.488412    7.452186    0.833518
     85          1           0      -10.662321    1.621011   -0.391342
     86          1           0      -10.902220   -1.143366    0.257617
     87          1           0      -10.296110    0.318080    2.386746
     88          1           0      -11.890245    0.830068    1.706576
     89          1           0      -10.683950    2.006775    1.997737
     90          1           0      -11.908630    0.060086   -1.867896
     91          1           0      -11.154440   -1.518552   -2.074811
     92          1           0       -9.787308   -0.498063   -3.723999
     93          1           0       -9.377451    0.795073   -2.499823
     94          1           0      -10.827614    0.878584   -3.568418
     95          1           0       -8.219313   -5.122016   -1.045637
     96          1           0       -6.809765   -5.888660   -0.293240
     97          1           0       -6.775766   -5.706929   -2.073991
     98          1           0       -1.810996   -3.231229   -1.429471
     99          1           0       -1.134843   -5.662657    2.317592
    100          1           0        0.330204   -4.688089    2.108540
    101          1           0        0.176544   -6.256081    1.464081
    102          1           0        3.938375   -1.306321    1.136384
    103          1           0        3.689691    0.430643    0.805739
    104          1           0        4.950922   -0.129537   -1.431761
    105          1           0        7.648824   -0.735441    1.842183
    106          1           0        6.485530   -1.996812    1.416590
    107          1           0        5.832834   -0.703056    2.072870
    108          1           0        7.457925   -0.330247   -1.876825
    109          1           0        8.455273   -0.454136   -0.526399
    110          1           0        8.562331    1.892908   -0.231974
    111          1           0        6.887023    2.124868   -0.641446
    112          1           0        7.307296    2.612181   -2.733488
    113          1           0        8.267316    1.222643   -3.110971
    114          1           0        9.746036    3.013117   -1.373056
    115          1           0       10.073483    4.725356   -3.083030
    116          1           0        8.777476    4.761241   -1.962692
    117          1           0        8.403695    4.404146   -3.663328
    118          1           0       10.793507    2.772823   -4.146635
    119          1           0       10.390896    1.203007   -3.720353
    120          1           0       11.968335    3.131113   -1.984181
    121          1           0       12.767557    2.265030   -3.293097
    122          1           0       12.464219    0.218370   -2.209981
    123          1           0       11.087816    0.566258   -1.279523
    124          1           0       12.304064    1.810015    0.238351
    125          1           0       14.408608    2.610925   -1.563067
    126          1           0       14.934203    2.129207    0.150034
    127          1           0       13.632307    3.292386   -0.144638
    128          1           0       14.695078   -0.220318   -0.111088
    129          1           0       13.123797   -0.888314   -0.270037
    130          1           0       13.428376    0.986963    2.108829
    131          1           0       14.368867   -0.430951    2.064990
    132          1           0       11.600535   -0.881476    1.166245
    133          1           0       11.594866    0.114046    2.609810
    134          1           0       13.399443   -2.157430    3.033799
    135          1           0       12.689155   -3.805290    1.697385
    136          1           0       11.013978   -2.974137    1.371583
    137          1           0       11.273485   -3.784672    2.703458
    138          1           0       11.916936   -0.823770    4.606028
    139          1           0       11.933526   -2.633993    4.927584
    140          1           0       10.589270   -1.658444    4.114116
 ---------------------------------------------------------------------

 SCF Done:  E(RB-LYP) =  -3007.34695732     A.U. after   21 cycles

 Excitation energies and oscillator strengths:

 Excited State   1:      Singlet-A      1.7279 eV  717.56 nm  f=0.2938  <S**2>=0.000
     245 -> 248       -0.10744
     245 -> 250        0.11020
     246 -> 247        0.69952
     246 <- 247       -0.16168
 This state for optimization and/or second-order correction.
 Total Energy, E(TD-HF/TD-DFT) =  -3007.28345985
 Copying the excited state density for this state as the 1-particle RhoCI density.

 Excited State   2:      Singlet-A      1.8801 eV  659.44 nm  f=0.0024  <S**2>=0.000
     244 -> 247        0.69996

 Excited State   3:      Singlet-A      2.0278 eV  611.43 nm  f=0.0693  <S**2>=0.000
     242 -> 247        0.11462
     243 -> 247        0.23143
     245 -> 247        0.60575
     246 -> 248        0.13776
     246 -> 249        0.10368
     246 -> 250       -0.15274

 Excited State   4:      Singlet-A      2.0473 eV  605.59 nm  f=0.0092  <S**2>=0.000
     243 -> 247        0.66733
     245 -> 247       -0.20723

 Excited State   5:      Singlet-A      2.2899 eV  541.45 nm  f=0.0125  <S**2>=0.000
     242 -> 247        0.68828
     245 -> 247       -0.11111

 The electronic state is 1-A.
 Alpha  occ. eigenvalues --  -46.26726 -18.83867 -18.81284 -18.78302 -18.76097
 Alpha  occ. eigenvalues --  -18.75611 -18.75055 -14.02781 -14.02773 -14.01681
 Alpha  occ. eigenvalues --  -13.99795 -10.06100 -10.03141 -10.00414  -9.99070
 Alpha  occ. eigenvalues --   -9.98977  -9.96884  -9.96372  -9.96293  -9.96183
 Alpha  occ. eigenvalues --   -9.96078  -9.95566  -9.95336  -9.94928  -9.94560
 Alpha  occ. eigenvalues --   -9.94373  -9.94046  -9.94031  -9.94024  -9.93667
 Alpha  occ. eigenvalues --   -9.93291  -9.93263  -9.93222  -9.93215  -9.93101
 Alpha  occ. eigenvalues --   -9.93069  -9.92916  -9.92715  -9.92679  -9.92636
 Alpha  occ. eigenvalues --   -9.92569  -9.92405  -9.92405  -9.92193  -9.92114
 Alpha  occ. eigenvalues --   -9.92030  -9.92020  -9.91932  -9.91906  -9.91867
 Alpha  occ. eigenvalues --   -9.91837  -9.91761  -9.91678  -9.91238  -9.91202
 Alpha  occ. eigenvalues --   -9.91172  -9.91084  -9.91037  -9.91026  -9.91009
 Alpha  occ. eigenvalues --   -9.90917  -9.90846  -9.90723  -9.90516  -9.90446
 Alpha  occ. eigenvalues --   -9.89512  -2.91381  -1.71796  -1.71269  -1.71094
 Alpha  occ. eigenvalues --   -0.98792  -0.97129  -0.90610  -0.90150  -0.90024
 Alpha  occ. eigenvalues --   -0.89757  -0.86055  -0.85455  -0.84967  -0.84137
 Alpha  occ. eigenvalues --   -0.75321  -0.74031  -0.73394  -0.72792  -0.72482
 Alpha  occ. eigenvalues --   -0.72147  -0.71266  -0.70996  -0.70852  -0.70471
 Alpha  occ. eigenvalues --   -0.69515  -0.68682  -0.68372  -0.67485  -0.67228
 Alpha  occ. eigenvalues --   -0.66609  -0.65723  -0.65425  -0.64806  -0.64534
 Alpha  occ. eigenvalues --   -0.64409  -0.62828  -0.61746  -0.61219  -0.60562
 Alpha  occ. eigenvalues --   -0.60449  -0.60440  -0.59796  -0.59453  -0.58837
 Alpha  occ. eigenvalues --   -0.58664  -0.57373  -0.56703  -0.55876  -0.54663
 Alpha  occ. eigenvalues --   -0.54309  -0.53575  -0.52559  -0.52506  -0.51598
 Alpha  occ. eigenvalues --   -0.51157  -0.50995  -0.50585  -0.50229  -0.50014
 Alpha  occ. eigenvalues --   -0.49663  -0.49505  -0.48672  -0.48014  -0.47218
 Alpha  occ. eigenvalues --   -0.46308  -0.45966  -0.45414  -0.44602  -0.44379
 Alpha  occ. eigenvalues --   -0.43993  -0.43770  -0.43168  -0.42447  -0.42399
 Alpha  occ. eigenvalues --   -0.42073  -0.41829  -0.41671  -0.41493  -0.40955
 Alpha  occ. eigenvalues --   -0.40690  -0.40582  -0.40327  -0.40214  -0.40012
 Alpha  occ. eigenvalues --   -0.39875  -0.39751  -0.39706  -0.39430  -0.39398
 Alpha  occ. eigenvalues --   -0.39242  -0.38965  -0.38483  -0.38263  -0.38053
 Alpha  occ. eigenvalues --   -0.37891  -0.37719  -0.37369  -0.37275  -0.37202
 Alpha  occ. eigenvalues --   -0.37001  -0.36878  -0.36699  -0.36514  -0.36455
 Alpha  occ. eigenvalues --   -0.36189  -0.35828  -0.35766  -0.35604  -0.35523
 Alpha  occ. eigenvalues --   -0.35324  -0.35259  -0.34950  -0.34871  -0.34730
 Alpha  occ. eigenvalues --   -0.34359  -0.34028  -0.33992  -0.33895  -0.33712
 Alpha  occ. eigenvalues --   -0.33540  -0.33427  -0.33217  -0.33068  -0.32895
 Alpha  occ. eigenvalues --   -0.32594  -0.32534  -0.32458  -0.32251  -0.32135
 Alpha  occ. eigenvalues --   -0.32011  -0.31977  -0.31714  -0.31525  -0.31434
 Alpha  occ. eigenvalues --   -0.31169  -0.31070  -0.30991  -0.30789  -0.30529
 Alpha  occ. eigenvalues --   -0.30425  -0.30348  -0.30131  -0.30118  -0.29928
 Alpha  occ. eigenvalues --   -0.29550  -0.29362  -0.29156  -0.29039  -0.28787
 Alpha  occ. eigenvalues --   -0.28739  -0.28531  -0.28513  -0.28401  -0.28159
 Alpha  occ. eigenvalues --   -0.27717  -0.27631  -0.26732  -0.26461  -0.26450
 Alpha  occ. eigenvalues --   -0.26244  -0.25883  -0.25570  -0.25186  -0.25170
 Alpha  occ. eigenvalues --   -0.25049  -0.24658  -0.24305  -0.23416  -0.22740
 Alpha  occ. eigenvalues --   -0.22704  -0.21889  -0.21732  -0.21578  -0.21081
 Alpha  occ. eigenvalues --   -0.20157  -0.19332  -0.18798  -0.18223  -0.17200
 Alpha  occ. eigenvalues --   -0.15358
 Alpha virt. eigenvalues --   -0.11393  -0.06754  -0.05916  -0.05602  -0.04865
 Alpha virt. eigenvalues --   -0.02456  -0.01958  -0.01671  -0.00951   0.00630
 Alpha virt. eigenvalues --    0.00811   0.01713   0.02300   0.02344   0.02728

 Mulliken charges:
               1
     1  Mg   0.689153
     2  C   -0.032371
     3  C   -0.054093
     4  C   -0.070010
     5  C   -0.047671
     6  N   -0.218726
     7  C   -0.093771
     8  C    0.025847
     9  C    0.013678
    10  C    0.092836
    11  C    0.079876
    12  C    0.089046
    13  C    0.121154
    14  C    0.150893
    15  O   -0.219931
    16  O   -0.252618
    17  N   -0.313064
    18  C    0.094575
    19  C   -0.131206
    20  C    0.040026
    21  C    0.096138
    22  C    0.173338
    23  C   -0.073416
    24  O   -0.198532
    25  C    0.129055
    26  N   -0.206520
    27  C    0.031957
    28  C    0.003798
    29  C    0.044903
    30  C    0.021449
    31  C    0.138339
    32  C    0.064995
    33  C    0.077694
    34  N   -0.262928
    35  C    0.098761
    36  C   -0.201923
    37  C    0.109381
    38  C    0.093397
    39  C    0.185194
    40  C   -0.079923
    41  O   -0.138062
    42  C    0.145127
    43  C    0.108345
    44  O   -0.163491
    45  O   -0.269487
    46  C    0.225107
    47  C    0.361424
    48  C   -0.164985
    49  C   -0.136855
    50  C    0.111961
    51  C    0.153712
    52  C    0.084962
    53  C    0.104660
    54  C   -0.071509
    55  C    0.109095
    56  C    0.140650
    57  C    0.047221
    58  C    0.096086
    59  C   -0.114658
    60  C    0.153640
    61  C    0.110471
    62  C    0.044656
    63  C    0.116267
    64  C   -0.087258
    65  C    0.128451
    66  C    0.106448
    67  H   -0.077067
    68  H   -0.031917
    69  H   -0.063954
    70  H    0.007806
    71  H   -0.034550
    72  H   -0.013517
    73  H   -0.011847
    74  H    0.010852
    75  H   -0.027917
    76  H   -0.014787
    77  H   -0.014572
    78  H    0.014998
    79  H   -0.022406
    80  H   -0.004517
    81  H    0.012321
    82  H   -0.002075
    83  H    0.000745
    84  H    0.022195
    85  H   -0.038946
    86  H   -0.033475
    87  H   -0.001030
    88  H   -0.009342
    89  H   -0.006146
    90  H   -0.018390
    91  H   -0.020743
    92  H   -0.003425
    93  H    0.012699
    94  H   -0.010892
    95  H   -0.014552
    96  H    0.015780
    97  H    0.015459
    98  H   -0.017153
    99  H    0.007347
   100  H    0.009589
   101  H   -0.003592
   102  H    0.004306
   103  H    0.013542
   104  H   -0.042287
   105  H   -0.001236
   106  H   -0.007822
   107  H   -0.020201
   108  H   -0.025028
   109  H   -0.036727
   110  H   -0.025018
   111  H   -0.029239
   112  H   -0.036835
   113  H   -0.030220
   114  H   -0.035292
   115  H   -0.031523
   116  H   -0.031279
   117  H   -0.005521
   118  H   -0.061129
   119  H   -0.041042
   120  H   -0.033288
   121  H   -0.021622
   122  H   -0.045781
   123  H   -0.018724
   124  H   -0.034171
   125  H   -0.009959
   126  H   -0.011067
   127  H   -0.026897
   128  H   -0.035529
   129  H   -0.038239
   130  H   -0.038361
   131  H   -0.043193
   132  H   -0.036297
   133  H   -0.043547
   134  H   -0.035667
   135  H   -0.002917
   136  H   -0.024541
   137  H   -0.050528
   138  H   -0.023931
   139  H   -0.001221
   140  H   -0.025702
 Sum of Mulliken charges =  -0.00000

 Dipole moment (field-independent basis, Debye):
    X=              4.0412    Y=              4.8365    Z=             -1.7940  Tot=              6.5530
 Quadrupole moment (field-independent basis, Debye-Ang):
   XX=           -384.8690   YY=           -420.2865   ZZ=           -405.7180
   XY=              1.2923   XZ=             15.8867   YZ=             -2.9693

 Normal termination of Gaussian 16 at Thu Apr 28 05:29:44 2022.
