 Gaussian 16, Revision A.03,
 Gaussian 16:  ES64L-G16RevA.03 25-Dec-2016

 -----------------------------------
 #p cam-b3lyp/Def2SVP td=(nstates=5)
 -----------------------------------

 --------------------------------------------------------
 step_1451_chromophore_19 TDDFT with cam-b3lyp functional
 --------------------------------------------------------
 Symbolic Z-matrix:
 Charge =  0 Multiplicity = 1

                         Standard orientation:
 ---------------------------------------------------------------------
 Center     Atomic      Atomic             Coordinates (Angstroms)
 Number     Number       Type             X           Y           Z
 ---------------------------------------------------------------------
      1         12           0       -5.845382    0.373554   -0.148447
      2          6           0       -3.315936   -2.135967   -0.409438
      3          6           0       -3.402328    2.528402    0.746783
      4          6           0       -8.346809    2.531863    0.535304
      5          6           0       -8.295055   -2.151283   -0.714152
      6          7           0       -3.648087    0.188846    0.321577
      7          6           0       -2.855249   -0.917886   -0.099498
      8          6           0       -1.379404   -0.456445   -0.084540
      9          6           0       -1.435474    0.976079    0.495588
     10          6           0       -2.864071    1.269600    0.488151
     11          6           0       -0.723100    1.039307    1.935353
     12          6           0       -0.654651   -0.679630   -1.461355
     13          6           0        0.622083   -1.532544   -1.402229
     14          6           0        1.618924   -1.349739   -0.220054
     15          8           0        1.398676   -1.754264    0.950552
     16          8           0        2.855782   -0.913571   -0.643909
     17          7           0       -5.837851    2.272914    0.465087
     18          6           0       -4.710152    3.024852    0.769084
     19          6           0       -5.198080    4.439823    0.926858
     20          6           0       -6.594170    4.446656    1.028210
     21          6           0       -6.957457    3.009533    0.595011
     22          6           0       -4.287020    5.546039    1.127920
     23          6           0       -7.518204    5.581984    1.311079
     24          8           0       -8.754737    5.377490    1.423363
     25          6           0       -7.025071    6.994669    1.664397
     26          7           0       -7.974931    0.199631   -0.028904
     27          6           0       -8.754730    1.258418    0.171025
     28          6           0      -10.221785    0.853893    0.245668
     29          6           0      -10.305831   -0.557503   -0.441366
     30          6           0       -8.767223   -0.884542   -0.382170
     31          6           0      -10.809669    0.971531    1.681549
     32          6           0      -10.951839   -0.462191   -1.895605
     33          6           0      -10.160859    0.227570   -3.002687
     34          7           0       -5.861825   -1.759977   -0.441409
     35          6           0       -6.977065   -2.633520   -0.681602
     36          6           0       -6.382903   -3.957220   -1.007997
     37          6           0       -4.983507   -3.714510   -0.940335
     38          6           0       -4.734415   -2.446041   -0.572861
     39          6           0       -7.145978   -5.287386   -1.138237
     40          6           0       -3.740766   -4.449700   -0.981182
     41          8           0       -3.622546   -5.650752   -1.196990
     42          6           0       -2.581908   -3.445495   -0.688692
     43          6           0       -2.021369   -3.912045    0.584497
     44          8           0       -2.484364   -3.638080    1.661091
     45          8           0       -0.907876   -4.723832    0.393234
     46          6           0       -0.385778   -5.332279    1.598065
     47          6           0        3.829825   -0.552078    0.356794
     48          6           0        5.093591   -0.380524   -0.381285
     49          6           0        6.378240   -0.432775   -0.028549
     50          6           0        6.667162   -0.921322    1.406361
     51          6           0        7.557866    0.063141   -0.864563
     52          6           0        7.783254    1.573044   -0.923852
     53          6           0        8.171706    2.039961   -2.396048
     54          6           0        9.453544    2.840691   -2.408275
     55          6           0        9.121491    4.244961   -2.857842
     56          6           0       10.616984    2.164272   -3.259407
     57          6           0       11.958638    2.208954   -2.565023
     58          6           0       12.020530    1.017331   -1.616437
     59          6           0       13.019597    1.324803   -0.424554
     60          6           0       14.127221    2.400627   -0.530544
     61          6           0       13.648425   -0.015287    0.117718
     62          6           0       13.460890    0.002252    1.643881
     63          6           0       12.154523   -0.655011    2.077635
     64          6           0       12.343237   -1.956348    2.851042
     65          6           0       11.865466   -3.170388    2.023706
     66          6           0       11.657522   -1.822410    4.254559
     67          1           0       -2.753165    3.371218    0.991670
     68          1           0       -9.126508    3.252206    0.792757
     69          1           0       -9.032525   -2.879683   -1.059083
     70          1           0       -0.874806   -1.080434    0.652386
     71          1           0       -0.819492    1.695718   -0.043846
     72          1           0       -1.371678    0.632194    2.710450
     73          1           0       -0.553705    2.057762    2.283657
     74          1           0        0.146603    0.393807    2.059337
     75          1           0       -0.495383    0.321575   -1.862110
     76          1           0       -1.273102   -1.199178   -2.193373
     77          1           0        1.130864   -1.293470   -2.335729
     78          1           0        0.194912   -2.518259   -1.586088
     79          1           0       -4.736896    6.423843    0.663445
     80          1           0       -3.298757    5.409147    0.687799
     81          1           0       -4.193965    5.810379    2.180913
     82          1           0       -6.300680    6.864150    2.469018
     83          1           0       -7.855143    7.542291    2.109611
     84          1           0       -6.488412    7.452186    0.833518
     85          1           0      -10.662321    1.621011   -0.391342
     86          1           0      -10.902220   -1.143366    0.257617
     87          1           0      -10.296110    0.318080    2.386746
     88          1           0      -11.890245    0.830068    1.706576
     89          1           0      -10.683950    2.006775    1.997737
     90          1           0      -11.908630    0.060086   -1.867896
     91          1           0      -11.154440   -1.518552   -2.074811
     92          1           0       -9.787308   -0.498063   -3.723999
     93          1           0       -9.377451    0.795073   -2.499823
     94          1           0      -10.827614    0.878584   -3.568418
     95          1           0       -8.219313   -5.122016   -1.045637
     96          1           0       -6.809765   -5.888660   -0.293240
     97          1           0       -6.775766   -5.706929   -2.073991
     98          1           0       -1.810996   -3.231229   -1.429471
     99          1           0       -1.134843   -5.662657    2.317592
    100          1           0        0.330204   -4.688089    2.108540
    101          1           0        0.176544   -6.256081    1.464081
    102          1           0        3.938375   -1.306321    1.136384
    103          1           0        3.689691    0.430643    0.805739
    104          1           0        4.950922   -0.129537   -1.431761
    105          1           0        7.648824   -0.735441    1.842183
    106          1           0        6.485530   -1.996812    1.416590
    107          1           0        5.832834   -0.703056    2.072870
    108          1           0        7.457925   -0.330247   -1.876825
    109          1           0        8.455273   -0.454136   -0.526399
    110          1           0        8.562331    1.892908   -0.231974
    111          1           0        6.887023    2.124868   -0.641446
    112          1           0        7.307296    2.612181   -2.733488
    113          1           0        8.267316    1.222643   -3.110971
    114          1           0        9.746036    3.013117   -1.373056
    115          1           0       10.073483    4.725356   -3.083030
    116          1           0        8.777476    4.761241   -1.962692
    117          1           0        8.403695    4.404146   -3.663328
    118          1           0       10.793507    2.772823   -4.146635
    119          1           0       10.390896    1.203007   -3.720353
    120          1           0       11.968335    3.131113   -1.984181
    121          1           0       12.767557    2.265030   -3.293097
    122          1           0       12.464219    0.218370   -2.209981
    123          1           0       11.087816    0.566258   -1.279523
    124          1           0       12.304064    1.810015    0.238351
    125          1           0       14.408608    2.610925   -1.563067
    126          1           0       14.934203    2.129207    0.150034
    127          1           0       13.632307    3.292386   -0.144638
    128          1           0       14.695078   -0.220318   -0.111088
    129          1           0       13.123797   -0.888314   -0.270037
    130          1           0       13.428376    0.986963    2.108829
    131          1           0       14.368867   -0.430951    2.064990
    132          1           0       11.600535   -0.881476    1.166245
    133          1           0       11.594866    0.114046    2.609810
    134          1           0       13.399443   -2.157430    3.033799
    135          1           0       12.689155   -3.805290    1.697385
    136          1           0       11.013978   -2.974137    1.371583
    137          1           0       11.273485   -3.784672    2.703458
    138          1           0       11.916936   -0.823770    4.606028
    139          1           0       11.933526   -2.633993    4.927584
    140          1           0       10.589270   -1.658444    4.114116
 ---------------------------------------------------------------------

 SCF Done:  E(RCAM-B3LYP) =  -3007.14052794     A.U. after   18 cycles

 Excitation energies and oscillator strengths:

 Excited State   1:      Singlet-A      1.6945 eV  731.67 nm  f=0.3580  <S**2>=0.000
     245 -> 248       -0.13284
     246 -> 247        0.69309
 This state for optimization and/or second-order correction.
 Total Energy, E(TD-HF/TD-DFT) =  -3007.07825464
 Copying the excited state density for this state as the 1-particle RhoCI density.

 Excited State   2:      Singlet-A      2.3032 eV  538.31 nm  f=0.1215  <S**2>=0.000
     245 -> 247        0.64175
     246 -> 248        0.25182
     246 -> 249        0.12918

 Excited State   3:      Singlet-A      3.2402 eV  382.64 nm  f=0.0099  <S**2>=0.000
     241 -> 247        0.11290
     244 -> 247        0.68492

 Excited State   4:      Singlet-A      3.5070 eV  353.54 nm  f=0.0011  <S**2>=0.000
     239 -> 247        0.43904
     239 -> 248       -0.23348
     239 -> 249        0.31243
     240 -> 247       -0.27580
     240 -> 248        0.10824
     240 -> 249       -0.15010

 Excited State   5:      Singlet-A      3.5274 eV  351.49 nm  f=0.4606  <S**2>=0.000
     239 -> 247       -0.10684
     241 -> 247        0.14785
     245 -> 247       -0.22506
     246 -> 248        0.61815

 The electronic state is 1-A.
 Alpha  occ. eigenvalues --  -46.88251 -19.26733 -19.24002 -19.21268 -19.19514
 Alpha  occ. eigenvalues --  -19.19036 -19.17683 -14.41860 -14.41439 -14.40511
 Alpha  occ. eigenvalues --  -14.37729 -10.41522 -10.38388 -10.36334 -10.33907
 Alpha  occ. eigenvalues --  -10.32947 -10.32133 -10.31627 -10.31463 -10.30017
 Alpha  occ. eigenvalues --  -10.29932 -10.29921 -10.29847 -10.29718 -10.28558
 Alpha  occ. eigenvalues --  -10.28505 -10.28265 -10.28203 -10.28160 -10.27954
 Alpha  occ. eigenvalues --  -10.27596 -10.27423 -10.27364 -10.27253 -10.27193
 Alpha  occ. eigenvalues --  -10.27160 -10.26975 -10.26829 -10.26805 -10.26532
 Alpha  occ. eigenvalues --  -10.26111 -10.26086 -10.26076 -10.26041 -10.26003
 Alpha  occ. eigenvalues --  -10.25845 -10.25790 -10.25641 -10.25590 -10.25532
 Alpha  occ. eigenvalues --  -10.25523 -10.25169 -10.25146 -10.25081 -10.24872
 Alpha  occ. eigenvalues --  -10.24816 -10.24713 -10.24691 -10.24688 -10.24636
 Alpha  occ. eigenvalues --  -10.24574 -10.24430 -10.24291 -10.24137 -10.24060
 Alpha  occ. eigenvalues --  -10.22715  -3.16811  -1.91701  -1.91264  -1.91119
 Alpha  occ. eigenvalues --   -1.17152  -1.15518  -1.08998  -1.08490  -1.07983
 Alpha  occ. eigenvalues --   -1.07492  -1.04012  -1.03149  -1.02766  -1.01163
 Alpha  occ. eigenvalues --   -0.92161  -0.90895  -0.90194  -0.89617  -0.89561
 Alpha  occ. eigenvalues --   -0.89220  -0.87854  -0.87621  -0.87553  -0.86954
 Alpha  occ. eigenvalues --   -0.85917  -0.84988  -0.84374  -0.83583  -0.83161
 Alpha  occ. eigenvalues --   -0.82829  -0.82156  -0.81360  -0.80757  -0.80325
 Alpha  occ. eigenvalues --   -0.80099  -0.79107  -0.77240  -0.76515  -0.75900
 Alpha  occ. eigenvalues --   -0.75801  -0.75688  -0.75095  -0.74730  -0.74021
 Alpha  occ. eigenvalues --   -0.73771  -0.72109  -0.71698  -0.70712  -0.69224
 Alpha  occ. eigenvalues --   -0.68909  -0.68505  -0.66977  -0.66847  -0.65689
 Alpha  occ. eigenvalues --   -0.65370  -0.65086  -0.64366  -0.64133  -0.64029
 Alpha  occ. eigenvalues --   -0.63602  -0.63467  -0.62533  -0.61571  -0.60849
 Alpha  occ. eigenvalues --   -0.60219  -0.59461  -0.58820  -0.58120  -0.57809
 Alpha  occ. eigenvalues --   -0.57200  -0.57137  -0.56468  -0.55676  -0.55495
 Alpha  occ. eigenvalues --   -0.55182  -0.54970  -0.54447  -0.54267  -0.53669
 Alpha  occ. eigenvalues --   -0.53571  -0.53376  -0.53329  -0.53226  -0.53059
 Alpha  occ. eigenvalues --   -0.52800  -0.52581  -0.52284  -0.52058  -0.51847
 Alpha  occ. eigenvalues --   -0.51751  -0.51601  -0.50983  -0.50767  -0.50474
 Alpha  occ. eigenvalues --   -0.50290  -0.50034  -0.49705  -0.49576  -0.49525
 Alpha  occ. eigenvalues --   -0.49324  -0.49251  -0.48986  -0.48837  -0.48751
 Alpha  occ. eigenvalues --   -0.48396  -0.48243  -0.48066  -0.47801  -0.47567
 Alpha  occ. eigenvalues --   -0.47477  -0.47257  -0.47136  -0.47078  -0.46712
 Alpha  occ. eigenvalues --   -0.46234  -0.45927  -0.45655  -0.45615  -0.45408
 Alpha  occ. eigenvalues --   -0.45319  -0.45136  -0.44848  -0.44733  -0.44670
 Alpha  occ. eigenvalues --   -0.44543  -0.44178  -0.44124  -0.43885  -0.43778
 Alpha  occ. eigenvalues --   -0.43698  -0.43657  -0.43611  -0.43062  -0.42927
 Alpha  occ. eigenvalues --   -0.42509  -0.42445  -0.42282  -0.42231  -0.42118
 Alpha  occ. eigenvalues --   -0.41729  -0.41568  -0.41412  -0.41282  -0.41196
 Alpha  occ. eigenvalues --   -0.40633  -0.40552  -0.40433  -0.40398  -0.40092
 Alpha  occ. eigenvalues --   -0.39971  -0.39744  -0.39473  -0.39329  -0.38983
 Alpha  occ. eigenvalues --   -0.38578  -0.38495  -0.37831  -0.37616  -0.37241
 Alpha  occ. eigenvalues --   -0.36991  -0.36938  -0.36405  -0.35840  -0.35792
 Alpha  occ. eigenvalues --   -0.35743  -0.35691  -0.35197  -0.34670  -0.33857
 Alpha  occ. eigenvalues --   -0.33451  -0.32627  -0.32167  -0.31886  -0.31622
 Alpha  occ. eigenvalues --   -0.30486  -0.29816  -0.29782  -0.27907  -0.24193
 Alpha  occ. eigenvalues --   -0.20645
 Alpha virt. eigenvalues --   -0.08440  -0.00995   0.00028   0.01779   0.02185
 Alpha virt. eigenvalues --    0.02663   0.05491   0.05722   0.06531   0.06954
 Alpha virt. eigenvalues --    0.07358   0.08370   0.08488   0.08740   0.09363

 Mulliken charges:
               1
     1  Mg   0.820759
     2  C   -0.052620
     3  C   -0.073409
     4  C   -0.092011
     5  C   -0.051732
     6  N   -0.283523
     7  C   -0.052421
     8  C   -0.033520
     9  C   -0.041998
    10  C    0.114540
    11  C    0.028843
    12  C    0.038918
    13  C    0.054367
    14  C    0.225460
    15  O   -0.261296
    16  O   -0.319275
    17  N   -0.406885
    18  C    0.119269
    19  C   -0.133025
    20  C   -0.022312
    21  C    0.132615
    22  C    0.103622
    23  C    0.002409
    24  O   -0.235241
    25  C    0.050091
    26  N   -0.275882
    27  C    0.054088
    28  C   -0.054351
    29  C   -0.005750
    30  C    0.025774
    31  C    0.081307
    32  C    0.017312
    33  C    0.016622
    34  N   -0.348852
    35  C    0.090837
    36  C   -0.196217
    37  C    0.025847
    38  C    0.130396
    39  C    0.137224
    40  C    0.013174
    41  O   -0.180006
    42  C    0.063746
    43  C    0.198624
    44  O   -0.198081
    45  O   -0.332567
    46  C    0.184261
    47  C    0.328833
    48  C   -0.180530
    49  C   -0.163751
    50  C    0.047060
    51  C    0.101000
    52  C    0.030856
    53  C    0.049635
    54  C   -0.129597
    55  C    0.054045
    56  C    0.079937
    57  C   -0.005806
    58  C    0.050410
    59  C   -0.164874
    60  C    0.093357
    61  C    0.050686
    62  C   -0.009692
    63  C    0.062287
    64  C   -0.146216
    65  C    0.063445
    66  C    0.048595
    67  H   -0.041398
    68  H    0.009109
    69  H   -0.030373
    70  H    0.043942
    71  H    0.002255
    72  H    0.014044
    73  H    0.012095
    74  H    0.036750
    75  H    0.001826
    76  H    0.017144
    77  H    0.022451
    78  H    0.044744
    79  H    0.007009
    80  H    0.026761
    81  H    0.043414
    82  H    0.026090
    83  H    0.039011
    84  H    0.049548
    85  H   -0.004409
    86  H    0.002767
    87  H    0.024046
    88  H    0.016386
    89  H    0.016596
    90  H    0.007953
    91  H    0.006174
    92  H    0.021200
    93  H    0.028497
    94  H    0.012438
    95  H    0.006158
    96  H    0.038662
    97  H    0.037539
    98  H    0.022510
    99  H    0.032020
   100  H    0.030825
   101  H    0.019648
   102  H    0.033265
   103  H    0.038251
   104  H   -0.007439
   105  H    0.022506
   106  H    0.018345
   107  H    0.003995
   108  H    0.005480
   109  H   -0.009069
   110  H    0.001357
   111  H    0.000706
   112  H   -0.006337
   113  H   -0.002370
   114  H   -0.005311
   115  H   -0.007042
   116  H   -0.006080
   117  H    0.017885
   118  H   -0.027909
   119  H   -0.011160
   120  H   -0.008104
   121  H    0.007169
   122  H   -0.015791
   123  H    0.004213
   124  H   -0.005756
   125  H    0.013609
   126  H    0.013657
   127  H   -0.002537
   128  H   -0.004526
   129  H   -0.009508
   130  H   -0.010005
   131  H   -0.013375
   132  H   -0.012087
   133  H   -0.014058
   134  H   -0.003534
   135  H    0.022033
   136  H    0.000279
   137  H   -0.023031
   138  H   -0.000023
   139  H    0.022948
   140  H   -0.002887
 Sum of Mulliken charges =  -0.00000

 Dipole moment (field-independent basis, Debye):
    X=              4.2285    Y=              6.9963    Z=             -1.3972  Tot=              8.2935
 Quadrupole moment (field-independent basis, Debye-Ang):
   XX=           -387.2513   YY=           -414.7583   ZZ=           -405.2157
   XY=            -10.4439   XZ=             13.3836   YZ=             -1.7401

 Normal termination of Gaussian 16 at Thu Apr 28 04:22:29 2022.
