 Gaussian 16, Revision A.03,
 Gaussian 16:  ES64L-G16RevA.03 25-Dec-2016

 ---------------------------------
 #p PBE1PBE/Def2SVP td=(nstates=5)
 ---------------------------------

 ------------------------------------------------------
 step_1451_chromophore_19 TDDFT with PBE1PBE functional
 ------------------------------------------------------
 Symbolic Z-matrix:
 Charge =  0 Multiplicity = 1

                         Standard orientation:
 ---------------------------------------------------------------------
 Center     Atomic      Atomic             Coordinates (Angstroms)
 Number     Number       Type             X           Y           Z
 ---------------------------------------------------------------------
      1         12           0       -5.845382    0.373554   -0.148447
      2          6           0       -3.315936   -2.135967   -0.409438
      3          6           0       -3.402328    2.528402    0.746783
      4          6           0       -8.346809    2.531863    0.535304
      5          6           0       -8.295055   -2.151283   -0.714152
      6          7           0       -3.648087    0.188846    0.321577
      7          6           0       -2.855249   -0.917886   -0.099498
      8          6           0       -1.379404   -0.456445   -0.084540
      9          6           0       -1.435474    0.976079    0.495588
     10          6           0       -2.864071    1.269600    0.488151
     11          6           0       -0.723100    1.039307    1.935353
     12          6           0       -0.654651   -0.679630   -1.461355
     13          6           0        0.622083   -1.532544   -1.402229
     14          6           0        1.618924   -1.349739   -0.220054
     15          8           0        1.398676   -1.754264    0.950552
     16          8           0        2.855782   -0.913571   -0.643909
     17          7           0       -5.837851    2.272914    0.465087
     18          6           0       -4.710152    3.024852    0.769084
     19          6           0       -5.198080    4.439823    0.926858
     20          6           0       -6.594170    4.446656    1.028210
     21          6           0       -6.957457    3.009533    0.595011
     22          6           0       -4.287020    5.546039    1.127920
     23          6           0       -7.518204    5.581984    1.311079
     24          8           0       -8.754737    5.377490    1.423363
     25          6           0       -7.025071    6.994669    1.664397
     26          7           0       -7.974931    0.199631   -0.028904
     27          6           0       -8.754730    1.258418    0.171025
     28          6           0      -10.221785    0.853893    0.245668
     29          6           0      -10.305831   -0.557503   -0.441366
     30          6           0       -8.767223   -0.884542   -0.382170
     31          6           0      -10.809669    0.971531    1.681549
     32          6           0      -10.951839   -0.462191   -1.895605
     33          6           0      -10.160859    0.227570   -3.002687
     34          7           0       -5.861825   -1.759977   -0.441409
     35          6           0       -6.977065   -2.633520   -0.681602
     36          6           0       -6.382903   -3.957220   -1.007997
     37          6           0       -4.983507   -3.714510   -0.940335
     38          6           0       -4.734415   -2.446041   -0.572861
     39          6           0       -7.145978   -5.287386   -1.138237
     40          6           0       -3.740766   -4.449700   -0.981182
     41          8           0       -3.622546   -5.650752   -1.196990
     42          6           0       -2.581908   -3.445495   -0.688692
     43          6           0       -2.021369   -3.912045    0.584497
     44          8           0       -2.484364   -3.638080    1.661091
     45          8           0       -0.907876   -4.723832    0.393234
     46          6           0       -0.385778   -5.332279    1.598065
     47          6           0        3.829825   -0.552078    0.356794
     48          6           0        5.093591   -0.380524   -0.381285
     49          6           0        6.378240   -0.432775   -0.028549
     50          6           0        6.667162   -0.921322    1.406361
     51          6           0        7.557866    0.063141   -0.864563
     52          6           0        7.783254    1.573044   -0.923852
     53          6           0        8.171706    2.039961   -2.396048
     54          6           0        9.453544    2.840691   -2.408275
     55          6           0        9.121491    4.244961   -2.857842
     56          6           0       10.616984    2.164272   -3.259407
     57          6           0       11.958638    2.208954   -2.565023
     58          6           0       12.020530    1.017331   -1.616437
     59          6           0       13.019597    1.324803   -0.424554
     60          6           0       14.127221    2.400627   -0.530544
     61          6           0       13.648425   -0.015287    0.117718
     62          6           0       13.460890    0.002252    1.643881
     63          6           0       12.154523   -0.655011    2.077635
     64          6           0       12.343237   -1.956348    2.851042
     65          6           0       11.865466   -3.170388    2.023706
     66          6           0       11.657522   -1.822410    4.254559
     67          1           0       -2.753165    3.371218    0.991670
     68          1           0       -9.126508    3.252206    0.792757
     69          1           0       -9.032525   -2.879683   -1.059083
     70          1           0       -0.874806   -1.080434    0.652386
     71          1           0       -0.819492    1.695718   -0.043846
     72          1           0       -1.371678    0.632194    2.710450
     73          1           0       -0.553705    2.057762    2.283657
     74          1           0        0.146603    0.393807    2.059337
     75          1           0       -0.495383    0.321575   -1.862110
     76          1           0       -1.273102   -1.199178   -2.193373
     77          1           0        1.130864   -1.293470   -2.335729
     78          1           0        0.194912   -2.518259   -1.586088
     79          1           0       -4.736896    6.423843    0.663445
     80          1           0       -3.298757    5.409147    0.687799
     81          1           0       -4.193965    5.810379    2.180913
     82          1           0       -6.300680    6.864150    2.469018
     83          1           0       -7.855143    7.542291    2.109611
     84          1           0       -6.488412    7.452186    0.833518
     85          1           0      -10.662321    1.621011   -0.391342
     86          1           0      -10.902220   -1.143366    0.257617
     87          1           0      -10.296110    0.318080    2.386746
     88          1           0      -11.890245    0.830068    1.706576
     89          1           0      -10.683950    2.006775    1.997737
     90          1           0      -11.908630    0.060086   -1.867896
     91          1           0      -11.154440   -1.518552   -2.074811
     92          1           0       -9.787308   -0.498063   -3.723999
     93          1           0       -9.377451    0.795073   -2.499823
     94          1           0      -10.827614    0.878584   -3.568418
     95          1           0       -8.219313   -5.122016   -1.045637
     96          1           0       -6.809765   -5.888660   -0.293240
     97          1           0       -6.775766   -5.706929   -2.073991
     98          1           0       -1.810996   -3.231229   -1.429471
     99          1           0       -1.134843   -5.662657    2.317592
    100          1           0        0.330204   -4.688089    2.108540
    101          1           0        0.176544   -6.256081    1.464081
    102          1           0        3.938375   -1.306321    1.136384
    103          1           0        3.689691    0.430643    0.805739
    104          1           0        4.950922   -0.129537   -1.431761
    105          1           0        7.648824   -0.735441    1.842183
    106          1           0        6.485530   -1.996812    1.416590
    107          1           0        5.832834   -0.703056    2.072870
    108          1           0        7.457925   -0.330247   -1.876825
    109          1           0        8.455273   -0.454136   -0.526399
    110          1           0        8.562331    1.892908   -0.231974
    111          1           0        6.887023    2.124868   -0.641446
    112          1           0        7.307296    2.612181   -2.733488
    113          1           0        8.267316    1.222643   -3.110971
    114          1           0        9.746036    3.013117   -1.373056
    115          1           0       10.073483    4.725356   -3.083030
    116          1           0        8.777476    4.761241   -1.962692
    117          1           0        8.403695    4.404146   -3.663328
    118          1           0       10.793507    2.772823   -4.146635
    119          1           0       10.390896    1.203007   -3.720353
    120          1           0       11.968335    3.131113   -1.984181
    121          1           0       12.767557    2.265030   -3.293097
    122          1           0       12.464219    0.218370   -2.209981
    123          1           0       11.087816    0.566258   -1.279523
    124          1           0       12.304064    1.810015    0.238351
    125          1           0       14.408608    2.610925   -1.563067
    126          1           0       14.934203    2.129207    0.150034
    127          1           0       13.632307    3.292386   -0.144638
    128          1           0       14.695078   -0.220318   -0.111088
    129          1           0       13.123797   -0.888314   -0.270037
    130          1           0       13.428376    0.986963    2.108829
    131          1           0       14.368867   -0.430951    2.064990
    132          1           0       11.600535   -0.881476    1.166245
    133          1           0       11.594866    0.114046    2.609810
    134          1           0       13.399443   -2.157430    3.033799
    135          1           0       12.689155   -3.805290    1.697385
    136          1           0       11.013978   -2.974137    1.371583
    137          1           0       11.273485   -3.784672    2.703458
    138          1           0       11.916936   -0.823770    4.606028
    139          1           0       11.933526   -2.633993    4.927584
    140          1           0       10.589270   -1.658444    4.114116
 ---------------------------------------------------------------------

 SCF Done:  E(RPBE1PBE) =  -3005.32761160     A.U. after   16 cycles

 Excitation energies and oscillator strengths:

 Excited State   1:      Singlet-A      1.7851 eV  694.56 nm  f=0.3503  <S**2>=0.000
     245 -> 248       -0.11562
     246 -> 247        0.70045
     246 <- 247       -0.11673
 This state for optimization and/or second-order correction.
 Total Energy, E(TD-HF/TD-DFT) =  -3005.26201088
 Copying the excited state density for this state as the 1-particle RhoCI density.

 Excited State   2:      Singlet-A      2.2715 eV  545.83 nm  f=0.1156  <S**2>=0.000
     245 -> 247        0.65238
     246 -> 248        0.20205
     246 -> 249        0.16552

 Excited State   3:      Singlet-A      2.8053 eV  441.96 nm  f=0.0092  <S**2>=0.000
     244 -> 247        0.69752

 Excited State   4:      Singlet-A      3.0143 eV  411.33 nm  f=0.0005  <S**2>=0.000
     243 -> 247        0.68265
     243 -> 251        0.12520

 Excited State   5:      Singlet-A      3.1132 eV  398.25 nm  f=0.0008  <S**2>=0.000
     240 -> 247        0.53784
     240 -> 248       -0.17454
     240 -> 249        0.14417
     241 -> 247        0.36624

 The electronic state is 1-A.
 Alpha  occ. eigenvalues --  -46.91666 -19.27431 -19.24741 -19.21567 -19.19366
 Alpha  occ. eigenvalues --  -19.19343 -19.18281 -14.41258 -14.41074 -14.39969
 Alpha  occ. eigenvalues --  -14.37699 -10.38590 -10.35485 -10.33104 -10.31386
 Alpha  occ. eigenvalues --  -10.30336 -10.29419 -10.28740 -10.28671 -10.28071
 Alpha  occ. eigenvalues --  -10.27678 -10.27510 -10.27219 -10.26997 -10.26661
 Alpha  occ. eigenvalues --  -10.26075 -10.25946 -10.25838 -10.25721 -10.25602
 Alpha  occ. eigenvalues --  -10.25431 -10.25137 -10.25095 -10.24943 -10.24900
 Alpha  occ. eigenvalues --  -10.24868 -10.24632 -10.24537 -10.24352 -10.24349
 Alpha  occ. eigenvalues --  -10.23954 -10.23848 -10.23667 -10.23653 -10.23363
 Alpha  occ. eigenvalues --  -10.23355 -10.23346 -10.23256 -10.23248 -10.23237
 Alpha  occ. eigenvalues --  -10.23004 -10.22965 -10.22693 -10.22564 -10.22459
 Alpha  occ. eigenvalues --  -10.22340 -10.22267 -10.22254 -10.22147 -10.22081
 Alpha  occ. eigenvalues --  -10.22023 -10.21811 -10.21693 -10.21686 -10.21604
 Alpha  occ. eigenvalues --  -10.20945  -3.13805  -1.86636  -1.86176  -1.86036
 Alpha  occ. eigenvalues --   -1.11977  -1.10358  -1.03566  -1.03333  -1.02821
 Alpha  occ. eigenvalues --   -1.02417  -0.98433  -0.97735  -0.97276  -0.96183
 Alpha  occ. eigenvalues --   -0.86711  -0.85026  -0.84315  -0.83732  -0.83459
 Alpha  occ. eigenvalues --   -0.83352  -0.82112  -0.81879  -0.81665  -0.81352
 Alpha  occ. eigenvalues --   -0.80110  -0.79271  -0.78886  -0.77801  -0.77610
 Alpha  occ. eigenvalues --   -0.77035  -0.76165  -0.75554  -0.75042  -0.74522
 Alpha  occ. eigenvalues --   -0.74503  -0.73103  -0.71558  -0.70912  -0.70121
 Alpha  occ. eigenvalues --   -0.70010  -0.69883  -0.69215  -0.69057  -0.68210
 Alpha  occ. eigenvalues --   -0.68032  -0.66749  -0.66008  -0.65042  -0.63574
 Alpha  occ. eigenvalues --   -0.63174  -0.62711  -0.61515  -0.61126  -0.60138
 Alpha  occ. eigenvalues --   -0.59573  -0.59451  -0.59009  -0.58754  -0.58183
 Alpha  occ. eigenvalues --   -0.58176  -0.57620  -0.56716  -0.56187  -0.55277
 Alpha  occ. eigenvalues --   -0.54588  -0.53916  -0.53448  -0.52643  -0.52296
 Alpha  occ. eigenvalues --   -0.51930  -0.51638  -0.50993  -0.50206  -0.50062
 Alpha  occ. eigenvalues --   -0.49796  -0.49636  -0.48989  -0.48657  -0.48126
 Alpha  occ. eigenvalues --   -0.47952  -0.47829  -0.47675  -0.47608  -0.47375
 Alpha  occ. eigenvalues --   -0.47240  -0.47102  -0.47000  -0.46651  -0.46436
 Alpha  occ. eigenvalues --   -0.46377  -0.46071  -0.45346  -0.45247  -0.45158
 Alpha  occ. eigenvalues --   -0.44919  -0.44535  -0.44228  -0.44193  -0.44015
 Alpha  occ. eigenvalues --   -0.43870  -0.43851  -0.43529  -0.43465  -0.43275
 Alpha  occ. eigenvalues --   -0.42962  -0.42820  -0.42730  -0.42500  -0.42106
 Alpha  occ. eigenvalues --   -0.42089  -0.41932  -0.41758  -0.41704  -0.41317
 Alpha  occ. eigenvalues --   -0.40980  -0.40622  -0.40516  -0.40347  -0.40146
 Alpha  occ. eigenvalues --   -0.40066  -0.39930  -0.39492  -0.39450  -0.39423
 Alpha  occ. eigenvalues --   -0.39175  -0.38936  -0.38785  -0.38747  -0.38593
 Alpha  occ. eigenvalues --   -0.38463  -0.38347  -0.38305  -0.37973  -0.37911
 Alpha  occ. eigenvalues --   -0.37401  -0.37188  -0.37120  -0.37015  -0.36896
 Alpha  occ. eigenvalues --   -0.36619  -0.36500  -0.36298  -0.36130  -0.36038
 Alpha  occ. eigenvalues --   -0.35385  -0.35346  -0.35236  -0.35165  -0.34922
 Alpha  occ. eigenvalues --   -0.34870  -0.34677  -0.34243  -0.34056  -0.34036
 Alpha  occ. eigenvalues --   -0.33366  -0.33245  -0.32819  -0.32637  -0.32024
 Alpha  occ. eigenvalues --   -0.32000  -0.31747  -0.31504  -0.30933  -0.30683
 Alpha  occ. eigenvalues --   -0.30677  -0.30556  -0.30093  -0.29561  -0.28936
 Alpha  occ. eigenvalues --   -0.28593  -0.28253  -0.27120  -0.26954  -0.26233
 Alpha  occ. eigenvalues --   -0.26064  -0.25077  -0.24972  -0.23971  -0.20980
 Alpha  occ. eigenvalues --   -0.18258
 Alpha virt. eigenvalues --   -0.10976  -0.04772  -0.03824  -0.02707  -0.02214
 Alpha virt. eigenvalues --   -0.00255   0.01020   0.01202   0.02242   0.03425
 Alpha virt. eigenvalues --    0.03568   0.04827   0.05011   0.05219   0.05538

 Mulliken charges:
               1
     1  Mg   0.966828
     2  C   -0.065862
     3  C   -0.069521
     4  C   -0.073381
     5  C   -0.056732
     6  N   -0.383752
     7  C    0.021501
     8  C   -0.101815
     9  C   -0.115138
    10  C    0.145767
    11  C   -0.026795
    12  C   -0.010653
    13  C   -0.025609
    14  C    0.286934
    15  O   -0.292898
    16  O   -0.352787
    17  N   -0.524197
    18  C    0.144897
    19  C   -0.167406
    20  C   -0.068042
    21  C    0.163369
    22  C    0.042030
    23  C    0.047867
    24  O   -0.273344
    25  C   -0.025579
    26  N   -0.379085
    27  C    0.081759
    28  C   -0.125869
    29  C   -0.083312
    30  C    0.063003
    31  C    0.020262
    32  C   -0.039594
    33  C   -0.062277
    34  N   -0.474112
    35  C    0.121627
    36  C   -0.202168
    37  C   -0.027273
    38  C    0.197800
    39  C    0.079005
    40  C    0.108701
    41  O   -0.223140
    42  C   -0.066577
    43  C    0.298639
    44  O   -0.230233
    45  O   -0.366092
    46  C    0.128347
    47  C    0.286725
    48  C   -0.184679
    49  C   -0.213239
    50  C   -0.015388
    51  C    0.038603
    52  C   -0.032332
    53  C    0.001874
    54  C   -0.216704
    55  C   -0.006541
    56  C    0.023986
    57  C   -0.075820
    58  C   -0.005237
    59  C   -0.241015
    60  C    0.030604
    61  C   -0.013240
    62  C   -0.069446
    63  C    0.007280
    64  C   -0.234193
    65  C    0.003865
    66  C   -0.018864
    67  H   -0.008185
    68  H    0.039932
    69  H    0.003028
    70  H    0.087212
    71  H    0.038077
    72  H    0.041585
    73  H    0.039515
    74  H    0.063542
    75  H    0.035417
    76  H    0.049349
    77  H    0.055411
    78  H    0.077950
    79  H    0.035938
    80  H    0.051303
    81  H    0.069228
    82  H    0.053792
    83  H    0.064750
    84  H    0.074440
    85  H    0.034493
    86  H    0.040352
    87  H    0.051286
    88  H    0.044424
    89  H    0.046017
    90  H    0.041868
    91  H    0.038885
    92  H    0.048839
    93  H    0.062109
    94  H    0.041177
    95  H    0.035216
    96  H    0.068657
    97  H    0.066853
    98  H    0.062541
    99  H    0.053603
   100  H    0.053782
   101  H    0.042492
   102  H    0.058088
   103  H    0.065640
   104  H    0.023972
   105  H    0.048455
   106  H    0.047102
   107  H    0.031953
   108  H    0.037517
   109  H    0.024034
   110  H    0.032648
   111  H    0.033947
   112  H    0.026551
   113  H    0.028290
   114  H    0.032201
   115  H    0.021929
   116  H    0.023615
   117  H    0.044576
   118  H    0.006589
   119  H    0.019790
   120  H    0.026380
   121  H    0.038660
   122  H    0.019419
   123  H    0.039504
   124  H    0.032800
   125  H    0.041619
   126  H    0.041593
   127  H    0.025109
   128  H    0.027333
   129  H    0.023819
   130  H    0.022788
   131  H    0.018453
   132  H    0.021573
   133  H    0.017193
   134  H    0.033930
   135  H    0.048961
   136  H    0.026252
   137  H    0.005801
   138  H    0.029674
   139  H    0.050121
   140  H    0.025914
 Sum of Mulliken charges =  -0.00000

 Dipole moment (field-independent basis, Debye):
    X=              4.0418    Y=              5.9613    Z=             -1.6318  Tot=              7.3848
 Quadrupole moment (field-independent basis, Debye-Ang):
   XX=           -379.6169   YY=           -412.9036   ZZ=           -402.5687
   XY=             -3.2619   XZ=             15.2646   YZ=             -1.9776

 Normal termination of Gaussian 16 at Thu Apr 28 04:41:32 2022.
