 Gaussian 16, Revision A.03,
 Gaussian 16:  ES64L-G16RevA.03 25-Dec-2016

 --------------------------------
 #p wB97XD/Def2SVP td=(nstates=5)
 --------------------------------

 -----------------------------------------------------
 step_1451_chromophore_19 TDDFT with wB97XD functional
 -----------------------------------------------------
 Symbolic Z-matrix:
 Charge =  0 Multiplicity = 1

                         Standard orientation:
 ---------------------------------------------------------------------
 Center     Atomic      Atomic             Coordinates (Angstroms)
 Number     Number       Type             X           Y           Z
 ---------------------------------------------------------------------
      1         12           0       -5.845382    0.373554   -0.148447
      2          6           0       -3.315936   -2.135967   -0.409438
      3          6           0       -3.402328    2.528402    0.746783
      4          6           0       -8.346809    2.531863    0.535304
      5          6           0       -8.295055   -2.151283   -0.714152
      6          7           0       -3.648087    0.188846    0.321577
      7          6           0       -2.855249   -0.917886   -0.099498
      8          6           0       -1.379404   -0.456445   -0.084540
      9          6           0       -1.435474    0.976079    0.495588
     10          6           0       -2.864071    1.269600    0.488151
     11          6           0       -0.723100    1.039307    1.935353
     12          6           0       -0.654651   -0.679630   -1.461355
     13          6           0        0.622083   -1.532544   -1.402229
     14          6           0        1.618924   -1.349739   -0.220054
     15          8           0        1.398676   -1.754264    0.950552
     16          8           0        2.855782   -0.913571   -0.643909
     17          7           0       -5.837851    2.272914    0.465087
     18          6           0       -4.710152    3.024852    0.769084
     19          6           0       -5.198080    4.439823    0.926858
     20          6           0       -6.594170    4.446656    1.028210
     21          6           0       -6.957457    3.009533    0.595011
     22          6           0       -4.287020    5.546039    1.127920
     23          6           0       -7.518204    5.581984    1.311079
     24          8           0       -8.754737    5.377490    1.423363
     25          6           0       -7.025071    6.994669    1.664397
     26          7           0       -7.974931    0.199631   -0.028904
     27          6           0       -8.754730    1.258418    0.171025
     28          6           0      -10.221785    0.853893    0.245668
     29          6           0      -10.305831   -0.557503   -0.441366
     30          6           0       -8.767223   -0.884542   -0.382170
     31          6           0      -10.809669    0.971531    1.681549
     32          6           0      -10.951839   -0.462191   -1.895605
     33          6           0      -10.160859    0.227570   -3.002687
     34          7           0       -5.861825   -1.759977   -0.441409
     35          6           0       -6.977065   -2.633520   -0.681602
     36          6           0       -6.382903   -3.957220   -1.007997
     37          6           0       -4.983507   -3.714510   -0.940335
     38          6           0       -4.734415   -2.446041   -0.572861
     39          6           0       -7.145978   -5.287386   -1.138237
     40          6           0       -3.740766   -4.449700   -0.981182
     41          8           0       -3.622546   -5.650752   -1.196990
     42          6           0       -2.581908   -3.445495   -0.688692
     43          6           0       -2.021369   -3.912045    0.584497
     44          8           0       -2.484364   -3.638080    1.661091
     45          8           0       -0.907876   -4.723832    0.393234
     46          6           0       -0.385778   -5.332279    1.598065
     47          6           0        3.829825   -0.552078    0.356794
     48          6           0        5.093591   -0.380524   -0.381285
     49          6           0        6.378240   -0.432775   -0.028549
     50          6           0        6.667162   -0.921322    1.406361
     51          6           0        7.557866    0.063141   -0.864563
     52          6           0        7.783254    1.573044   -0.923852
     53          6           0        8.171706    2.039961   -2.396048
     54          6           0        9.453544    2.840691   -2.408275
     55          6           0        9.121491    4.244961   -2.857842
     56          6           0       10.616984    2.164272   -3.259407
     57          6           0       11.958638    2.208954   -2.565023
     58          6           0       12.020530    1.017331   -1.616437
     59          6           0       13.019597    1.324803   -0.424554
     60          6           0       14.127221    2.400627   -0.530544
     61          6           0       13.648425   -0.015287    0.117718
     62          6           0       13.460890    0.002252    1.643881
     63          6           0       12.154523   -0.655011    2.077635
     64          6           0       12.343237   -1.956348    2.851042
     65          6           0       11.865466   -3.170388    2.023706
     66          6           0       11.657522   -1.822410    4.254559
     67          1           0       -2.753165    3.371218    0.991670
     68          1           0       -9.126508    3.252206    0.792757
     69          1           0       -9.032525   -2.879683   -1.059083
     70          1           0       -0.874806   -1.080434    0.652386
     71          1           0       -0.819492    1.695718   -0.043846
     72          1           0       -1.371678    0.632194    2.710450
     73          1           0       -0.553705    2.057762    2.283657
     74          1           0        0.146603    0.393807    2.059337
     75          1           0       -0.495383    0.321575   -1.862110
     76          1           0       -1.273102   -1.199178   -2.193373
     77          1           0        1.130864   -1.293470   -2.335729
     78          1           0        0.194912   -2.518259   -1.586088
     79          1           0       -4.736896    6.423843    0.663445
     80          1           0       -3.298757    5.409147    0.687799
     81          1           0       -4.193965    5.810379    2.180913
     82          1           0       -6.300680    6.864150    2.469018
     83          1           0       -7.855143    7.542291    2.109611
     84          1           0       -6.488412    7.452186    0.833518
     85          1           0      -10.662321    1.621011   -0.391342
     86          1           0      -10.902220   -1.143366    0.257617
     87          1           0      -10.296110    0.318080    2.386746
     88          1           0      -11.890245    0.830068    1.706576
     89          1           0      -10.683950    2.006775    1.997737
     90          1           0      -11.908630    0.060086   -1.867896
     91          1           0      -11.154440   -1.518552   -2.074811
     92          1           0       -9.787308   -0.498063   -3.723999
     93          1           0       -9.377451    0.795073   -2.499823
     94          1           0      -10.827614    0.878584   -3.568418
     95          1           0       -8.219313   -5.122016   -1.045637
     96          1           0       -6.809765   -5.888660   -0.293240
     97          1           0       -6.775766   -5.706929   -2.073991
     98          1           0       -1.810996   -3.231229   -1.429471
     99          1           0       -1.134843   -5.662657    2.317592
    100          1           0        0.330204   -4.688089    2.108540
    101          1           0        0.176544   -6.256081    1.464081
    102          1           0        3.938375   -1.306321    1.136384
    103          1           0        3.689691    0.430643    0.805739
    104          1           0        4.950922   -0.129537   -1.431761
    105          1           0        7.648824   -0.735441    1.842183
    106          1           0        6.485530   -1.996812    1.416590
    107          1           0        5.832834   -0.703056    2.072870
    108          1           0        7.457925   -0.330247   -1.876825
    109          1           0        8.455273   -0.454136   -0.526399
    110          1           0        8.562331    1.892908   -0.231974
    111          1           0        6.887023    2.124868   -0.641446
    112          1           0        7.307296    2.612181   -2.733488
    113          1           0        8.267316    1.222643   -3.110971
    114          1           0        9.746036    3.013117   -1.373056
    115          1           0       10.073483    4.725356   -3.083030
    116          1           0        8.777476    4.761241   -1.962692
    117          1           0        8.403695    4.404146   -3.663328
    118          1           0       10.793507    2.772823   -4.146635
    119          1           0       10.390896    1.203007   -3.720353
    120          1           0       11.968335    3.131113   -1.984181
    121          1           0       12.767557    2.265030   -3.293097
    122          1           0       12.464219    0.218370   -2.209981
    123          1           0       11.087816    0.566258   -1.279523
    124          1           0       12.304064    1.810015    0.238351
    125          1           0       14.408608    2.610925   -1.563067
    126          1           0       14.934203    2.129207    0.150034
    127          1           0       13.632307    3.292386   -0.144638
    128          1           0       14.695078   -0.220318   -0.111088
    129          1           0       13.123797   -0.888314   -0.270037
    130          1           0       13.428376    0.986963    2.108829
    131          1           0       14.368867   -0.430951    2.064990
    132          1           0       11.600535   -0.881476    1.166245
    133          1           0       11.594866    0.114046    2.609810
    134          1           0       13.399443   -2.157430    3.033799
    135          1           0       12.689155   -3.805290    1.697385
    136          1           0       11.013978   -2.974137    1.371583
    137          1           0       11.273485   -3.784672    2.703458
    138          1           0       11.916936   -0.823770    4.606028
    139          1           0       11.933526   -2.633993    4.927584
    140          1           0       10.589270   -1.658444    4.114116
 ---------------------------------------------------------------------

 SCF Done:  E(RwB97XD) =  -3007.84062570     A.U. after   19 cycles

 Excitation energies and oscillator strengths:

 Excited State   1:      Singlet-A      1.6742 eV  740.55 nm  f=0.3571  <S**2>=0.000
     245 -> 248       -0.13731
     246 -> 247        0.69049
 This state for optimization and/or second-order correction.
 Total Energy, E(TD-HF/TD-DFT) =  -3007.77909896
 Copying the excited state density for this state as the 1-particle RhoCI density.

 Excited State   2:      Singlet-A      2.2604 eV  548.51 nm  f=0.1199  <S**2>=0.000
     245 -> 247        0.63911
     246 -> 248        0.25501
     246 -> 249        0.12596

 Excited State   3:      Singlet-A      3.3163 eV  373.86 nm  f=0.0107  <S**2>=0.000
     241 -> 247        0.14792
     244 -> 247        0.67111

 Excited State   4:      Singlet-A      3.5000 eV  354.24 nm  f=0.0004  <S**2>=0.000
     238 -> 247        0.22822
     238 -> 248       -0.13627
     238 -> 249        0.19676
     240 -> 247        0.45881
     240 -> 248       -0.21051
     240 -> 249        0.31249

 Excited State   5:      Singlet-A      3.5533 eV  348.93 nm  f=0.5102  <S**2>=0.000
     238 -> 247       -0.16597
     241 -> 247        0.19894
     245 -> 247       -0.22481
     246 -> 248        0.59694

 The electronic state is 1-A.
 Alpha  occ. eigenvalues --  -46.94600 -19.31971 -19.29179 -19.26203 -19.24655
 Alpha  occ. eigenvalues --  -19.23895 -19.22639 -14.46510 -14.46003 -14.45169
 Alpha  occ. eigenvalues --  -14.42257 -10.45349 -10.42168 -10.40408 -10.37834
 Alpha  occ. eigenvalues --  -10.36824 -10.36334 -10.35852 -10.35572 -10.34206
 Alpha  occ. eigenvalues --  -10.34090 -10.33777 -10.33719 -10.33606 -10.32735
 Alpha  occ. eigenvalues --  -10.32470 -10.32283 -10.32163 -10.32154 -10.31927
 Alpha  occ. eigenvalues --  -10.31626 -10.31451 -10.31335 -10.31316 -10.31271
 Alpha  occ. eigenvalues --  -10.31202 -10.31056 -10.30796 -10.30690 -10.30571
 Alpha  occ. eigenvalues --  -10.30156 -10.30039 -10.30018 -10.29972 -10.29935
 Alpha  occ. eigenvalues --  -10.29717 -10.29685 -10.29630 -10.29533 -10.29506
 Alpha  occ. eigenvalues --  -10.29412 -10.29083 -10.28915 -10.28860 -10.28809
 Alpha  occ. eigenvalues --  -10.28732 -10.28633 -10.28631 -10.28513 -10.28495
 Alpha  occ. eigenvalues --  -10.28468 -10.28263 -10.28101 -10.28043 -10.27955
 Alpha  occ. eigenvalues --  -10.26620  -3.20596  -1.94177  -1.93719  -1.93571
 Alpha  occ. eigenvalues --   -1.19340  -1.17616  -1.11301  -1.10631  -1.10157
 Alpha  occ. eigenvalues --   -1.09635  -1.06093  -1.05154  -1.04825  -1.03106
 Alpha  occ. eigenvalues --   -0.94077  -0.92692  -0.91979  -0.91663  -0.91384
 Alpha  occ. eigenvalues --   -0.91009  -0.89835  -0.89479  -0.89327  -0.88871
 Alpha  occ. eigenvalues --   -0.87806  -0.86848  -0.86233  -0.85426  -0.85018
 Alpha  occ. eigenvalues --   -0.84764  -0.84106  -0.83226  -0.82664  -0.82165
 Alpha  occ. eigenvalues --   -0.82047  -0.81132  -0.79126  -0.78398  -0.77736
 Alpha  occ. eigenvalues --   -0.77591  -0.77579  -0.76904  -0.76681  -0.75864
 Alpha  occ. eigenvalues --   -0.75666  -0.74041  -0.73656  -0.72662  -0.71159
 Alpha  occ. eigenvalues --   -0.70796  -0.70495  -0.68958  -0.68739  -0.67681
 Alpha  occ. eigenvalues --   -0.67218  -0.67020  -0.66317  -0.66119  -0.65845
 Alpha  occ. eigenvalues --   -0.65559  -0.65275  -0.64357  -0.63542  -0.62780
 Alpha  occ. eigenvalues --   -0.62272  -0.61419  -0.60763  -0.60032  -0.59785
 Alpha  occ. eigenvalues --   -0.59179  -0.59044  -0.58415  -0.57693  -0.57423
 Alpha  occ. eigenvalues --   -0.57152  -0.56878  -0.56337  -0.56119  -0.55614
 Alpha  occ. eigenvalues --   -0.55540  -0.55329  -0.55228  -0.55129  -0.54965
 Alpha  occ. eigenvalues --   -0.54687  -0.54481  -0.54180  -0.53968  -0.53724
 Alpha  occ. eigenvalues --   -0.53652  -0.53496  -0.52977  -0.52634  -0.52379
 Alpha  occ. eigenvalues --   -0.52182  -0.51929  -0.51660  -0.51496  -0.51410
 Alpha  occ. eigenvalues --   -0.51218  -0.51172  -0.50903  -0.50736  -0.50635
 Alpha  occ. eigenvalues --   -0.50370  -0.50161  -0.49974  -0.49732  -0.49501
 Alpha  occ. eigenvalues --   -0.49340  -0.49146  -0.49047  -0.48962  -0.48573
 Alpha  occ. eigenvalues --   -0.48177  -0.47814  -0.47534  -0.47510  -0.47282
 Alpha  occ. eigenvalues --   -0.47213  -0.47026  -0.46692  -0.46625  -0.46595
 Alpha  occ. eigenvalues --   -0.46474  -0.46122  -0.45983  -0.45773  -0.45672
 Alpha  occ. eigenvalues --   -0.45619  -0.45557  -0.45481  -0.44993  -0.44841
 Alpha  occ. eigenvalues --   -0.44544  -0.44327  -0.44176  -0.44130  -0.44033
 Alpha  occ. eigenvalues --   -0.43665  -0.43503  -0.43299  -0.43151  -0.43107
 Alpha  occ. eigenvalues --   -0.42483  -0.42443  -0.42310  -0.42230  -0.41954
 Alpha  occ. eigenvalues --   -0.41864  -0.41684  -0.41318  -0.41161  -0.40860
 Alpha  occ. eigenvalues --   -0.40416  -0.40317  -0.39854  -0.39510  -0.39066
 Alpha  occ. eigenvalues --   -0.38922  -0.38787  -0.38517  -0.37772  -0.37637
 Alpha  occ. eigenvalues --   -0.37631  -0.37577  -0.37034  -0.36583  -0.35731
 Alpha  occ. eigenvalues --   -0.35414  -0.34854  -0.34000  -0.33987  -0.33788
 Alpha  occ. eigenvalues --   -0.32703  -0.31850  -0.31664  -0.29976  -0.26152
 Alpha  occ. eigenvalues --   -0.22478
 Alpha virt. eigenvalues --   -0.06753   0.00951   0.02003   0.04091   0.04503
 Alpha virt. eigenvalues --    0.05575   0.07732   0.07972   0.09202   0.10038
 Alpha virt. eigenvalues --    0.10078   0.11156   0.11890   0.11909   0.12042

 Mulliken charges:
               1
     1  Mg   0.957395
     2  C   -0.060810
     3  C   -0.086421
     4  C   -0.097571
     5  C   -0.063191
     6  N   -0.350325
     7  C   -0.010608
     8  C   -0.073224
     9  C   -0.094917
    10  C    0.137353
    11  C   -0.015262
    12  C   -0.000683
    13  C   -0.006367
    14  C    0.275253
    15  O   -0.289314
    16  O   -0.351083
    17  N   -0.495066
    18  C    0.143210
    19  C   -0.150658
    20  C   -0.060547
    21  C    0.158563
    22  C    0.051928
    23  C    0.043841
    24  O   -0.264340
    25  C   -0.011041
    26  N   -0.346038
    27  C    0.075049
    28  C   -0.103274
    29  C   -0.052986
    30  C    0.041066
    31  C    0.030931
    32  C   -0.028916
    33  C   -0.039309
    34  N   -0.434983
    35  C    0.103527
    36  C   -0.206037
    37  C   -0.020641
    38  C    0.167427
    39  C    0.093561
    40  C    0.087048
    41  O   -0.216315
    42  C   -0.017694
    43  C    0.272772
    44  O   -0.226562
    45  O   -0.364769
    46  C    0.143209
    47  C    0.299663
    48  C   -0.195454
    49  C   -0.196357
    50  C   -0.003002
    51  C    0.057320
    52  C   -0.015396
    53  C    0.012607
    54  C   -0.184863
    55  C    0.006153
    56  C    0.038274
    57  C   -0.050217
    58  C    0.008823
    59  C   -0.212728
    60  C    0.041639
    61  C    0.007492
    62  C   -0.053783
    63  C    0.025331
    64  C   -0.208101
    65  C    0.014164
    66  C   -0.002407
    67  H   -0.015821
    68  H    0.034540
    69  H   -0.003968
    70  H    0.067208
    71  H    0.030177
    72  H    0.036281
    73  H    0.034394
    74  H    0.058237
    75  H    0.027061
    76  H    0.041742
    77  H    0.050908
    78  H    0.071272
    79  H    0.029902
    80  H    0.050189
    81  H    0.067544
    82  H    0.047051
    83  H    0.065770
    84  H    0.070802
    85  H    0.021881
    86  H    0.031570
    87  H    0.046407
    88  H    0.039803
    89  H    0.038288
    90  H    0.032670
    91  H    0.031195
    92  H    0.043957
    93  H    0.046688
    94  H    0.035467
    95  H    0.027525
    96  H    0.061060
    97  H    0.059739
    98  H    0.049279
    99  H    0.049089
   100  H    0.050590
   101  H    0.038213
   102  H    0.053074
   103  H    0.060327
   104  H    0.019735
   105  H    0.045062
   106  H    0.040470
   107  H    0.024905
   108  H    0.028766
   109  H    0.016429
   110  H    0.023874
   111  H    0.025357
   112  H    0.018459
   113  H    0.018118
   114  H    0.015332
   115  H    0.014444
   116  H    0.017102
   117  H    0.039329
   118  H   -0.002009
   119  H    0.012213
   120  H    0.011192
   121  H    0.032309
   122  H    0.009247
   123  H    0.026417
   124  H    0.016850
   125  H    0.034910
   126  H    0.035933
   127  H    0.019428
   128  H    0.021007
   129  H    0.011720
   130  H    0.013216
   131  H    0.010374
   132  H    0.005396
   133  H    0.009285
   134  H    0.022806
   135  H    0.045114
   136  H    0.020439
   137  H   -0.001151
   138  H    0.021368
   139  H    0.045935
   140  H    0.018165
 Sum of Mulliken charges =  -0.00000

 Dipole moment (field-independent basis, Debye):
    X=              4.2697    Y=              7.3763    Z=             -1.3153  Tot=              8.6238
 Quadrupole moment (field-independent basis, Debye-Ang):
   XX=           -382.8553   YY=           -410.2188   ZZ=           -402.0687
   XY=            -11.9343   XZ=             13.1988   YZ=             -1.5092

 Normal termination of Gaussian 16 at Thu Apr 28 05:14:48 2022.
