 Gaussian 16, Revision A.03,
 Gaussian 16:  ES64L-G16RevA.03 25-Dec-2016

 --------------------
 #p ZINDO=(nstates=5)
 --------------------

 ------------------------------
 step_1451_chromophore_19 ZINDO
 ------------------------------
 Symbolic Z-matrix:
 Charge =  0 Multiplicity = 1

                         Standard orientation:
 ---------------------------------------------------------------------
 Center     Atomic      Atomic             Coordinates (Angstroms)
 Number     Number       Type             X           Y           Z
 ---------------------------------------------------------------------
      1         12           0       -5.845382    0.373554   -0.148447
      2          6           0       -3.315936   -2.135967   -0.409438
      3          6           0       -3.402328    2.528402    0.746783
      4          6           0       -8.346809    2.531863    0.535304
      5          6           0       -8.295055   -2.151283   -0.714152
      6          7           0       -3.648087    0.188846    0.321577
      7          6           0       -2.855249   -0.917886   -0.099498
      8          6           0       -1.379404   -0.456445   -0.084540
      9          6           0       -1.435474    0.976079    0.495588
     10          6           0       -2.864071    1.269600    0.488151
     11          6           0       -0.723100    1.039307    1.935353
     12          6           0       -0.654651   -0.679630   -1.461355
     13          6           0        0.622083   -1.532544   -1.402229
     14          6           0        1.618924   -1.349739   -0.220054
     15          8           0        1.398676   -1.754264    0.950552
     16          8           0        2.855782   -0.913571   -0.643909
     17          7           0       -5.837851    2.272914    0.465087
     18          6           0       -4.710152    3.024852    0.769084
     19          6           0       -5.198080    4.439823    0.926858
     20          6           0       -6.594170    4.446656    1.028210
     21          6           0       -6.957457    3.009533    0.595011
     22          6           0       -4.287020    5.546039    1.127920
     23          6           0       -7.518204    5.581984    1.311079
     24          8           0       -8.754737    5.377490    1.423363
     25          6           0       -7.025071    6.994669    1.664397
     26          7           0       -7.974931    0.199631   -0.028904
     27          6           0       -8.754730    1.258418    0.171025
     28          6           0      -10.221785    0.853893    0.245668
     29          6           0      -10.305831   -0.557503   -0.441366
     30          6           0       -8.767223   -0.884542   -0.382170
     31          6           0      -10.809669    0.971531    1.681549
     32          6           0      -10.951839   -0.462191   -1.895605
     33          6           0      -10.160859    0.227570   -3.002687
     34          7           0       -5.861825   -1.759977   -0.441409
     35          6           0       -6.977065   -2.633520   -0.681602
     36          6           0       -6.382903   -3.957220   -1.007997
     37          6           0       -4.983507   -3.714510   -0.940335
     38          6           0       -4.734415   -2.446041   -0.572861
     39          6           0       -7.145978   -5.287386   -1.138237
     40          6           0       -3.740766   -4.449700   -0.981182
     41          8           0       -3.622546   -5.650752   -1.196990
     42          6           0       -2.581908   -3.445495   -0.688692
     43          6           0       -2.021369   -3.912045    0.584497
     44          8           0       -2.484364   -3.638080    1.661091
     45          8           0       -0.907876   -4.723832    0.393234
     46          6           0       -0.385778   -5.332279    1.598065
     47          6           0        3.829825   -0.552078    0.356794
     48          6           0        5.093591   -0.380524   -0.381285
     49          6           0        6.378240   -0.432775   -0.028549
     50          6           0        6.667162   -0.921322    1.406361
     51          6           0        7.557866    0.063141   -0.864563
     52          6           0        7.783254    1.573044   -0.923852
     53          6           0        8.171706    2.039961   -2.396048
     54          6           0        9.453544    2.840691   -2.408275
     55          6           0        9.121491    4.244961   -2.857842
     56          6           0       10.616984    2.164272   -3.259407
     57          6           0       11.958638    2.208954   -2.565023
     58          6           0       12.020530    1.017331   -1.616437
     59          6           0       13.019597    1.324803   -0.424554
     60          6           0       14.127221    2.400627   -0.530544
     61          6           0       13.648425   -0.015287    0.117718
     62          6           0       13.460890    0.002252    1.643881
     63          6           0       12.154523   -0.655011    2.077635
     64          6           0       12.343237   -1.956348    2.851042
     65          6           0       11.865466   -3.170388    2.023706
     66          6           0       11.657522   -1.822410    4.254559
     67          1           0       -2.753165    3.371218    0.991670
     68          1           0       -9.126508    3.252206    0.792757
     69          1           0       -9.032525   -2.879683   -1.059083
     70          1           0       -0.874806   -1.080434    0.652386
     71          1           0       -0.819492    1.695718   -0.043846
     72          1           0       -1.371678    0.632194    2.710450
     73          1           0       -0.553705    2.057762    2.283657
     74          1           0        0.146603    0.393807    2.059337
     75          1           0       -0.495383    0.321575   -1.862110
     76          1           0       -1.273102   -1.199178   -2.193373
     77          1           0        1.130864   -1.293470   -2.335729
     78          1           0        0.194912   -2.518259   -1.586088
     79          1           0       -4.736896    6.423843    0.663445
     80          1           0       -3.298757    5.409147    0.687799
     81          1           0       -4.193965    5.810379    2.180913
     82          1           0       -6.300680    6.864150    2.469018
     83          1           0       -7.855143    7.542291    2.109611
     84          1           0       -6.488412    7.452186    0.833518
     85          1           0      -10.662321    1.621011   -0.391342
     86          1           0      -10.902220   -1.143366    0.257617
     87          1           0      -10.296110    0.318080    2.386746
     88          1           0      -11.890245    0.830068    1.706576
     89          1           0      -10.683950    2.006775    1.997737
     90          1           0      -11.908630    0.060086   -1.867896
     91          1           0      -11.154440   -1.518552   -2.074811
     92          1           0       -9.787308   -0.498063   -3.723999
     93          1           0       -9.377451    0.795073   -2.499823
     94          1           0      -10.827614    0.878584   -3.568418
     95          1           0       -8.219313   -5.122016   -1.045637
     96          1           0       -6.809765   -5.888660   -0.293240
     97          1           0       -6.775766   -5.706929   -2.073991
     98          1           0       -1.810996   -3.231229   -1.429471
     99          1           0       -1.134843   -5.662657    2.317592
    100          1           0        0.330204   -4.688089    2.108540
    101          1           0        0.176544   -6.256081    1.464081
    102          1           0        3.938375   -1.306321    1.136384
    103          1           0        3.689691    0.430643    0.805739
    104          1           0        4.950922   -0.129537   -1.431761
    105          1           0        7.648824   -0.735441    1.842183
    106          1           0        6.485530   -1.996812    1.416590
    107          1           0        5.832834   -0.703056    2.072870
    108          1           0        7.457925   -0.330247   -1.876825
    109          1           0        8.455273   -0.454136   -0.526399
    110          1           0        8.562331    1.892908   -0.231974
    111          1           0        6.887023    2.124868   -0.641446
    112          1           0        7.307296    2.612181   -2.733488
    113          1           0        8.267316    1.222643   -3.110971
    114          1           0        9.746036    3.013117   -1.373056
    115          1           0       10.073483    4.725356   -3.083030
    116          1           0        8.777476    4.761241   -1.962692
    117          1           0        8.403695    4.404146   -3.663328
    118          1           0       10.793507    2.772823   -4.146635
    119          1           0       10.390896    1.203007   -3.720353
    120          1           0       11.968335    3.131113   -1.984181
    121          1           0       12.767557    2.265030   -3.293097
    122          1           0       12.464219    0.218370   -2.209981
    123          1           0       11.087816    0.566258   -1.279523
    124          1           0       12.304064    1.810015    0.238351
    125          1           0       14.408608    2.610925   -1.563067
    126          1           0       14.934203    2.129207    0.150034
    127          1           0       13.632307    3.292386   -0.144638
    128          1           0       14.695078   -0.220318   -0.111088
    129          1           0       13.123797   -0.888314   -0.270037
    130          1           0       13.428376    0.986963    2.108829
    131          1           0       14.368867   -0.430951    2.064990
    132          1           0       11.600535   -0.881476    1.166245
    133          1           0       11.594866    0.114046    2.609810
    134          1           0       13.399443   -2.157430    3.033799
    135          1           0       12.689155   -3.805290    1.697385
    136          1           0       11.013978   -2.974137    1.371583
    137          1           0       11.273485   -3.784672    2.703458
    138          1           0       11.916936   -0.823770    4.606028
    139          1           0       11.933526   -2.633993    4.927584
    140          1           0       10.589270   -1.658444    4.114116
 ---------------------------------------------------------------------

 SCF Done:  E(RZINDO/S) =  -474.282542904     A.U. after   18 cycles

 Excitation energies and oscillator strengths:

 Excited State   1:      Singlet-A      1.3190 eV  940.01 nm  f=0.4945  <S**2>=0.000
     176 ->177         0.67871
 This state for optimization and/or second-order correction.
 Total Energy, E(CIS/TDA) =  -474.234071694
 Copying the excited state density for this state as the 1-particle RhoCI density.

 Excited State   2:      Singlet-A      2.0169 eV  614.73 nm  f=0.0600  <S**2>=0.000
     175 ->177         0.55678
     176 ->178        -0.27931
     176 ->179        -0.26951

 Excited State   3:      Singlet-A      2.8269 eV  438.59 nm  f=0.0018  <S**2>=0.000
     167 ->177        -0.32487
     167 ->178         0.39335
     167 ->179        -0.27917
     167 ->181        -0.11815
     167 ->184        -0.12866
     167 ->186         0.15176
     168 ->177         0.13925
     168 ->178        -0.15573
     168 ->179         0.10930

 Excited State   4:      Singlet-A      2.9557 eV  419.48 nm  f=0.5811  <S**2>=0.000
     175 ->177         0.27995
     176 ->178         0.59553
     176 ->181         0.12131

 Excited State   5:      Singlet-A      3.0593 eV  405.28 nm  f=0.2852  <S**2>=0.000
     171 ->177         0.12267
     171 ->179        -0.10051
     171 ->181         0.24302
     175 ->177         0.20438
     176 ->179         0.45434
     176 ->181        -0.30683

 The electronic state is 1-A.
 Alpha  occ. eigenvalues --   -1.82816  -1.80864  -1.79680  -1.72649  -1.71971
 Alpha  occ. eigenvalues --   -1.69904  -1.66843  -1.62122  -1.58005  -1.57179
 Alpha  occ. eigenvalues --   -1.55148  -1.52276  -1.49499  -1.48638  -1.45363
 Alpha  occ. eigenvalues --   -1.42895  -1.42351  -1.40867  -1.40580  -1.37871
 Alpha  occ. eigenvalues --   -1.35260  -1.34378  -1.33412  -1.29874  -1.28709
 Alpha  occ. eigenvalues --   -1.27866  -1.23936  -1.22275  -1.20822  -1.17820
 Alpha  occ. eigenvalues --   -1.16680  -1.15918  -1.14787  -1.14294  -1.13227
 Alpha  occ. eigenvalues --   -1.11815  -1.11418  -1.10113  -1.04606  -1.03953
 Alpha  occ. eigenvalues --   -1.03567  -1.01338  -1.00402  -0.97915  -0.97400
 Alpha  occ. eigenvalues --   -0.95735  -0.94759  -0.93627  -0.93060  -0.91412
 Alpha  occ. eigenvalues --   -0.91393  -0.90146  -0.88956  -0.87975  -0.86628
 Alpha  occ. eigenvalues --   -0.86348  -0.85133  -0.83505  -0.81917  -0.80066
 Alpha  occ. eigenvalues --   -0.79400  -0.78570  -0.77147  -0.76441  -0.75768
 Alpha  occ. eigenvalues --   -0.75319  -0.74979  -0.74800  -0.74092  -0.73956
 Alpha  occ. eigenvalues --   -0.72906  -0.71918  -0.71447  -0.71085  -0.70221
 Alpha  occ. eigenvalues --   -0.69357  -0.69072  -0.68764  -0.68364  -0.67784
 Alpha  occ. eigenvalues --   -0.67646  -0.67080  -0.66618  -0.66391  -0.65934
 Alpha  occ. eigenvalues --   -0.65068  -0.64223  -0.64085  -0.63980  -0.63379
 Alpha  occ. eigenvalues --   -0.62945  -0.62523  -0.62309  -0.61953  -0.61522
 Alpha  occ. eigenvalues --   -0.61210  -0.61058  -0.60870  -0.60691  -0.60175
 Alpha  occ. eigenvalues --   -0.59669  -0.59556  -0.59447  -0.59031  -0.58270
 Alpha  occ. eigenvalues --   -0.58069  -0.57662  -0.57054  -0.56724  -0.55874
 Alpha  occ. eigenvalues --   -0.55529  -0.55280  -0.55093  -0.54892  -0.54548
 Alpha  occ. eigenvalues --   -0.54349  -0.53999  -0.53799  -0.52724  -0.52532
 Alpha  occ. eigenvalues --   -0.52147  -0.51790  -0.51537  -0.51231  -0.51093
 Alpha  occ. eigenvalues --   -0.50964  -0.50813  -0.50520  -0.50013  -0.49888
 Alpha  occ. eigenvalues --   -0.49746  -0.49663  -0.49096  -0.49018  -0.48427
 Alpha  occ. eigenvalues --   -0.48415  -0.48242  -0.47898  -0.47755  -0.47671
 Alpha  occ. eigenvalues --   -0.47531  -0.47262  -0.47189  -0.46871  -0.46824
 Alpha  occ. eigenvalues --   -0.46594  -0.46164  -0.45937  -0.45387  -0.45149
 Alpha  occ. eigenvalues --   -0.44303  -0.44247  -0.43772  -0.43637  -0.43320
 Alpha  occ. eigenvalues --   -0.43230  -0.43000  -0.42399  -0.42296  -0.42036
 Alpha  occ. eigenvalues --   -0.41333  -0.40636  -0.39452  -0.39191  -0.38392
 Alpha  occ. eigenvalues --   -0.37282  -0.36731  -0.36041  -0.34716  -0.34294
 Alpha  occ. eigenvalues --   -0.33143  -0.32104  -0.32031  -0.30391  -0.26855
 Alpha  occ. eigenvalues --   -0.21496
 Alpha virt. eigenvalues --   -0.08068  -0.01314  -0.00974   0.00157   0.01250
 Alpha virt. eigenvalues --    0.02354   0.03154   0.04348   0.04806   0.05258
 Alpha virt. eigenvalues --    0.05861   0.07099   0.07302   0.07742   0.08009

 Mulliken charges:
               1
     1  Mg   0.423318
     2  C   -0.014415
     3  C   -0.090936
     4  C   -0.096564
     5  C   -0.039731
     6  N   -0.292210
     7  C    0.072925
     8  C   -0.007707
     9  C    0.016438
    10  C    0.214053
    11  C   -0.057114
    12  C   -0.022154
    13  C    0.003718
    14  C    0.463872
    15  O   -0.516954
    16  O   -0.257461
    17  N   -0.312768
    18  C    0.136271
    19  C    0.050902
    20  C   -0.036817
    21  C    0.158804
    22  C   -0.038572
    23  C    0.326977
    24  O   -0.525039
    25  C   -0.027450
    26  N   -0.269565
    27  C    0.184766
    28  C   -0.002371
    29  C   -0.009296
    30  C    0.066102
    31  C   -0.046415
    32  C   -0.027354
    33  C   -0.052117
    34  N   -0.329242
    35  C    0.029735
    36  C   -0.008184
    37  C   -0.060917
    38  C    0.112154
    39  C   -0.040216
    40  C    0.332139
    41  O   -0.539559
    42  C    0.056247
    43  C    0.498740
    44  O   -0.514393
    45  O   -0.267930
    46  C    0.075117
    47  C    0.119410
    48  C   -0.079633
    49  C   -0.019157
    50  C   -0.060534
    51  C   -0.012126
    52  C   -0.030653
    53  C   -0.037765
    54  C   -0.007018
    55  C   -0.054643
    56  C   -0.038805
    57  C   -0.028507
    58  C   -0.036861
    59  C   -0.024421
    60  C   -0.055989
    61  C   -0.034629
    62  C   -0.038413
    63  C   -0.029859
    64  C   -0.009371
    65  C   -0.069748
    66  C   -0.061748
    67  H    0.014830
    68  H    0.055689
    69  H    0.022834
    70  H    0.045902
    71  H    0.025691
    72  H    0.019943
    73  H    0.016947
    74  H    0.040526
    75  H    0.016624
    76  H    0.024132
    77  H    0.022782
    78  H    0.056028
    79  H    0.023823
    80  H    0.028291
    81  H    0.040045
    82  H    0.029365
    83  H    0.047457
    84  H    0.044786
    85  H    0.021452
    86  H    0.034175
    87  H    0.030321
    88  H    0.020120
    89  H    0.019657
    90  H    0.017126
    91  H    0.016541
    92  H    0.023732
    93  H    0.030149
    94  H    0.016465
    95  H    0.025601
    96  H    0.036618
    97  H    0.038709
    98  H    0.057173
    99  H    0.044625
   100  H    0.037927
   101  H    0.026428
   102  H    0.059701
   103  H    0.052355
   104  H    0.016471
   105  H    0.029095
   106  H    0.023464
   107  H    0.024170
   108  H    0.021140
   109  H    0.016521
   110  H    0.023561
   111  H    0.019688
   112  H    0.014910
   113  H    0.021599
   114  H    0.024958
   115  H    0.007831
   116  H    0.009264
   117  H    0.027674
   118  H    0.000776
   119  H    0.024673
   120  H    0.017052
   121  H    0.024795
   122  H    0.006565
   123  H    0.032184
   124  H    0.017028
   125  H    0.027586
   126  H    0.027531
   127  H    0.012078
   128  H    0.021306
   129  H    0.014516
   130  H    0.013647
   131  H    0.010080
   132  H    0.016022
   133  H    0.016856
   134  H    0.019222
   135  H    0.031734
   136  H    0.029874
   137  H    0.001998
   138  H    0.013110
   139  H    0.028850
   140  H    0.019241
 Sum of Mulliken charges =  -0.00000

 Dipole moment (field-independent basis, Debye):
    X=              5.7493    Y=             13.0647    Z=             -2.3649  Tot=             14.4683
 N-N= 4.305731897330D+03 E-N= 0.000000000000D+00  KE=-9.286383300307D+03
 Leave Link  601 at Thu Apr 28 05:29:53 2022, MaxMem=  6710886400 cpu:               0.8 elap:               0.1
 (Enter /sw/apps/gaussian-16.0/g16/l9999.exe)
 1\1\GINC-BP1-COMPUTE132\SP\RZINDO CIS\STO-3G\C55H74Mg1N4O6\OF15641\28-
 Apr-2022\0\\#p ZINDO=(nstates=5)\\step_1451_chromophore_19 ZINDO\\0,1\
 Mg,0,25.6,50.283,26.385\C,0,23.566,51.56,29.03\C,0,27.83,49.36,28.749\
 C,0,27.65,49.552,23.807\C,0,23.31,51.697,24.05\N,0,25.791,50.6,28.609\
 C,0,24.689,50.957,29.439\C,0,25.058,50.559,30.887\C,0,26.516,50.054,30
 .782\C,0,26.719,49.957,29.341\C,0,27.521,51.04,31.558\C,0,23.987,49.62
 3,31.556\C,0,23.397,50.138,32.878\C,0,24.324,50.832,33.919\O,0,24.792,

 Normal termination of Gaussian 16 at Thu Apr 28 05:29:53 2022.
