 Gaussian 16, Revision A.03,
 Gaussian 16:  ES64L-G16RevA.03 25-Dec-2016

 ------------------------------
 #p blyp/Def2SVP td=(nstates=5)
 ------------------------------

 --------------------------------------------------
 step_1451_chromophore_1 TDDFT with blyp functional
 --------------------------------------------------
 Symbolic Z-matrix:
 Charge =  0 Multiplicity = 1

                         Standard orientation:
 ---------------------------------------------------------------------
 Center     Atomic      Atomic             Coordinates (Angstroms)
 Number     Number       Type             X           Y           Z
 ---------------------------------------------------------------------
      1         12           0        5.899713    0.435150    0.194327
      2          6           0        3.968810   -2.282653   -0.775711
      3          6           0        3.605748    2.517449   -1.149037
      4          6           0        8.204192    3.006380    0.069700
      5          6           0        8.527933   -1.808477    1.008054
      6          7           0        4.112901    0.094093   -1.045686
      7          6           0        3.386585   -1.049078   -1.122173
      8          6           0        1.987541   -0.793227   -1.663081
      9          6           0        2.064195    0.668389   -2.118760
     10          6           0        3.347964    1.164142   -1.461783
     11          6           0        2.228102    0.866864   -3.662426
     12          6           0        0.774563   -1.059859   -0.597992
     13          6           0       -0.537860   -1.696303   -1.176031
     14          6           0       -1.612121   -1.941977   -0.168920
     15          8           0       -1.403453   -2.336729    1.004018
     16          8           0       -2.874120   -1.666681   -0.606511
     17          7           0        5.756936    2.527771   -0.155298
     18          6           0        4.753310    3.220701   -0.687488
     19          6           0        4.999790    4.678184   -0.739996
     20          6           0        6.375183    4.749305   -0.383421
     21          6           0        6.846286    3.374544   -0.091073
     22          6           0        4.046941    5.657285   -1.304005
     23          6           0        7.336022    6.006276   -0.294856
     24          8           0        8.440024    6.049947    0.262352
     25          6           0        6.710936    7.312689   -0.639436
     26          7           0        8.038476    0.595285    0.593173
     27          6           0        8.765965    1.740684    0.330711
     28          6           0       10.231250    1.539618    0.696048
     29          6           0       10.260101    0.071732    1.315185
     30          6           0        8.860792   -0.424624    1.001357
     31          6           0       11.195093    1.948460   -0.440389
     32          6           0       10.488047   -0.004262    2.800753
     33          6           0        9.455007    0.704084    3.762266
     34          7           0        6.194750   -1.656178    0.222369
     35          6           0        7.282524   -2.367605    0.589238
     36          6           0        6.955094   -3.804375    0.487531
     37          6           0        5.657484   -3.852546    0.012011
     38          6           0        5.241021   -2.494023   -0.188073
     39          6           0        7.814085   -5.014061    0.800666
     40          6           0        4.507022   -4.702565   -0.176472
     41          8           0        4.328140   -5.882118    0.011151
     42          6           0        3.376398   -3.796771   -0.838705
     43          6           0        2.177829   -4.132124   -0.073756
     44          8           0        2.013685   -3.989261    1.134282
     45          8           0        1.302582   -4.701682   -1.009026
     46          6           0        0.243757   -5.440409   -0.253307
     47          6           0       -3.878090   -1.633553    0.413925
     48          6           0       -5.233458   -1.288587   -0.148794
     49          6           0       -6.316151   -2.072513   -0.341782
     50          6           0       -6.219892   -3.598060   -0.106754
     51          6           0       -7.623945   -1.427186   -0.879988
     52          6           0       -8.742633   -1.267416    0.128630
     53          6           0       -8.471504   -0.031911    1.035625
     54          6           0       -9.594577    0.992021    0.765273
     55          6           0       -9.144787    2.069099   -0.340220
     56          6           0       -9.932672    1.616330    2.112298
     57          6           0      -11.237910    2.560452    2.064358
     58          6           0      -12.325787    2.120160    3.041207
     59          6           0      -13.669044    1.911666    2.338978
     60          6           0      -14.840021    1.890030    3.407755
     61          6           0      -13.735057    0.648421    1.427115
     62          6           0      -14.426173    0.959505    0.141770
     63          6           0      -13.427504    1.386027   -1.048922
     64          6           0      -13.189597    0.320613   -2.139631
     65          6           0      -11.773002    0.301801   -2.589248
     66          6           0      -14.143667    0.631895   -3.361037
     67          1           0        2.751158    3.154756   -1.385682
     68          1           0        8.950176    3.788039   -0.091769
     69          1           0        9.329297   -2.513346    1.241971
     70          1           0        1.679180   -1.418755   -2.500286
     71          1           0        1.141005    1.145635   -1.790959
     72          1           0        1.393777    1.332944   -4.186795
     73          1           0        2.563500   -0.033915   -4.176365
     74          1           0        3.141584    1.447260   -3.787438
     75          1           0        0.352511   -0.160053   -0.148986
     76          1           0        1.251822   -1.654369    0.180702
     77          1           0       -0.409304   -2.643948   -1.700364
     78          1           0       -0.821779   -0.871767   -1.829965
     79          1           0        4.230807    5.722181   -2.375837
     80          1           0        4.080851    6.610506   -0.776419
     81          1           0        3.025182    5.324935   -1.119045
     82          1           0        5.873252    7.601923   -0.004387
     83          1           0        6.383012    7.316811   -1.678180
     84          1           0        7.509328    8.050613   -0.724546
     85          1           0       10.306091    2.218079    1.546403
     86          1           0       11.132988   -0.404823    0.869264
     87          1           0       10.638188    2.409198   -1.255664
     88          1           0       11.563485    1.004554   -0.843029
     89          1           0       11.906784    2.639330    0.012362
     90          1           0       11.413654    0.564990    2.882620
     91          1           0       10.719675   -1.007686    3.157578
     92          1           0        8.905562    0.042935    4.433235
     93          1           0        8.678899    1.279326    3.258105
     94          1           0        9.966716    1.369354    4.457500
     95          1           0        8.697314   -4.720730    1.366764
     96          1           0        8.144665   -5.301028   -0.197649
     97          1           0        7.310810   -5.767991    1.405681
     98          1           0        3.407471   -4.157985   -1.867231
     99          1           0        0.692499   -6.394851    0.024246
    100          1           0       -0.590247   -5.576656   -0.942150
    101          1           0       -0.217829   -4.872463    0.554229
    102          1           0       -3.637304   -0.863989    1.148232
    103          1           0       -4.012809   -2.566118    0.961508
    104          1           0       -5.322259   -0.219613   -0.344623
    105          1           0       -5.588854   -3.871301    0.738445
    106          1           0       -5.800285   -3.958076   -1.046864
    107          1           0       -7.183422   -4.056310    0.114406
    108          1           0       -7.936028   -2.098773   -1.679795
    109          1           0       -7.384548   -0.507234   -1.414180
    110          1           0       -8.952918   -2.074697    0.829623
    111          1           0       -9.643243   -1.193070   -0.481038
    112          1           0       -7.553430    0.447425    0.693791
    113          1           0       -8.398389   -0.329591    2.080842
    114          1           0      -10.535865    0.669990    0.319822
    115          1           0       -9.846973    2.122001   -1.172816
    116          1           0       -8.152733    1.909750   -0.762954
    117          1           0       -8.985198    3.076633    0.045261
    118          1           0       -9.134011    2.309109    2.377759
    119          1           0      -10.127868    0.780148    2.783423
    120          1           0      -11.657401    2.578816    1.059122
    121          1           0      -10.935336    3.535822    2.446759
    122          1           0      -12.388958    2.932286    3.765560
    123          1           0      -12.085161    1.158370    3.492666
    124          1           0      -13.788681    2.880015    1.852397
    125          1           0      -15.285813    2.868113    3.585250
    126          1           0      -14.530114    1.616363    4.416808
    127          1           0      -15.629825    1.278792    2.972413
    128          1           0      -14.276187   -0.155502    1.926386
    129          1           0      -12.711250    0.356530    1.194106
    130          1           0      -15.166117    1.737204    0.327935
    131          1           0      -14.981997    0.082948   -0.191042
    132          1           0      -12.510412    1.668333   -0.533596
    133          1           0      -13.778447    2.340674   -1.438712
    134          1           0      -13.349171   -0.741603   -1.952103
    135          1           0      -11.168107    1.151148   -2.270169
    136          1           0      -11.741172    0.348996   -3.677533
    137          1           0      -11.360917   -0.630235   -2.202369
    138          1           0      -14.374174   -0.290395   -3.892986
    139          1           0      -13.755067    1.395845   -4.033980
    140          1           0      -15.005194    0.947957   -2.772730
 ---------------------------------------------------------------------

 SCF Done:  E(RB-LYP) =  -3007.35934618     A.U. after   21 cycles

 Excitation energies and oscillator strengths:

 Excited State   1:      Singlet-A      1.8026 eV  687.82 nm  f=0.3084  <S**2>=0.000
     245 -> 248        0.18334
     246 -> 247        0.68700
     246 <- 247       -0.14584
 This state for optimization and/or second-order correction.
 Total Energy, E(TD-HF/TD-DFT) =  -3007.29310348
 Copying the excited state density for this state as the 1-particle RhoCI density.

 Excited State   2:      Singlet-A      1.9790 eV  626.50 nm  f=0.0514  <S**2>=0.000
     243 -> 247        0.13438
     244 -> 247       -0.20952
     245 -> 247        0.61183
     246 -> 248       -0.21263
     246 -> 249        0.11280

 Excited State   3:      Singlet-A      2.0733 eV  597.99 nm  f=0.0055  <S**2>=0.000
     244 -> 247        0.67288
     245 -> 247        0.16899

 Excited State   4:      Singlet-A      2.1915 eV  565.75 nm  f=0.0051  <S**2>=0.000
     243 -> 247        0.68594
     245 -> 247       -0.11890

 Excited State   5:      Singlet-A      2.4973 eV  496.48 nm  f=0.0004  <S**2>=0.000
     242 -> 247        0.70499

 The electronic state is 1-A.
 Alpha  occ. eigenvalues --  -46.28088 -18.82339 -18.81474 -18.76413 -18.76385
 Alpha  occ. eigenvalues --  -18.76323 -18.75623 -14.03293 -14.03065 -14.01283
 Alpha  occ. eigenvalues --  -14.00821 -10.04083 -10.03057 -10.00573  -9.99284
 Alpha  occ. eigenvalues --   -9.97228  -9.96811  -9.96707  -9.96335  -9.96179
 Alpha  occ. eigenvalues --   -9.96055  -9.95866  -9.95741  -9.95585  -9.94438
 Alpha  occ. eigenvalues --   -9.94237  -9.94208  -9.94025  -9.93915  -9.93827
 Alpha  occ. eigenvalues --   -9.93606  -9.93507  -9.93479  -9.93435  -9.93310
 Alpha  occ. eigenvalues --   -9.93300  -9.93291  -9.93171  -9.93028  -9.92778
 Alpha  occ. eigenvalues --   -9.92707  -9.92582  -9.92414  -9.92412  -9.92326
 Alpha  occ. eigenvalues --   -9.92321  -9.92265  -9.92026  -9.91991  -9.91874
 Alpha  occ. eigenvalues --   -9.91735  -9.91659  -9.91643  -9.91630  -9.91207
 Alpha  occ. eigenvalues --   -9.91176  -9.91140  -9.91112  -9.91052  -9.90966
 Alpha  occ. eigenvalues --   -9.90942  -9.90694  -9.90670  -9.90561  -9.90427
 Alpha  occ. eigenvalues --   -9.90368  -2.92540  -1.72958  -1.72408  -1.72268
 Alpha  occ. eigenvalues --   -0.98182  -0.95972  -0.91916  -0.91356  -0.88898
 Alpha  occ. eigenvalues --   -0.88507  -0.86795  -0.86148  -0.85686  -0.84784
 Alpha  occ. eigenvalues --   -0.74012  -0.73643  -0.73135  -0.72344  -0.72130
 Alpha  occ. eigenvalues --   -0.71911  -0.71381  -0.71202  -0.70790  -0.70562
 Alpha  occ. eigenvalues --   -0.69705  -0.69298  -0.68136  -0.67088  -0.67037
 Alpha  occ. eigenvalues --   -0.66539  -0.65819  -0.65012  -0.64462  -0.64062
 Alpha  occ. eigenvalues --   -0.63596  -0.62559  -0.62323  -0.61549  -0.60574
 Alpha  occ. eigenvalues --   -0.60313  -0.60083  -0.59689  -0.59400  -0.59111
 Alpha  occ. eigenvalues --   -0.58194  -0.57329  -0.56619  -0.55585  -0.55246
 Alpha  occ. eigenvalues --   -0.53900  -0.53680  -0.52357  -0.52039  -0.51140
 Alpha  occ. eigenvalues --   -0.50810  -0.50613  -0.50296  -0.49897  -0.49675
 Alpha  occ. eigenvalues --   -0.49508  -0.49161  -0.48510  -0.47274  -0.46734
 Alpha  occ. eigenvalues --   -0.46235  -0.46009  -0.45438  -0.44951  -0.44021
 Alpha  occ. eigenvalues --   -0.44004  -0.43706  -0.43201  -0.42878  -0.42440
 Alpha  occ. eigenvalues --   -0.42263  -0.42083  -0.42052  -0.41381  -0.41104
 Alpha  occ. eigenvalues --   -0.41012  -0.40714  -0.40469  -0.40236  -0.40010
 Alpha  occ. eigenvalues --   -0.39857  -0.39586  -0.39333  -0.39118  -0.39020
 Alpha  occ. eigenvalues --   -0.38885  -0.38843  -0.38689  -0.38541  -0.38409
 Alpha  occ. eigenvalues --   -0.37928  -0.37780  -0.37654  -0.37236  -0.37108
 Alpha  occ. eigenvalues --   -0.36973  -0.36736  -0.36502  -0.36388  -0.36312
 Alpha  occ. eigenvalues --   -0.36157  -0.36095  -0.36039  -0.35669  -0.35371
 Alpha  occ. eigenvalues --   -0.35250  -0.35236  -0.35103  -0.34708  -0.34673
 Alpha  occ. eigenvalues --   -0.34438  -0.34180  -0.34011  -0.33872  -0.33671
 Alpha  occ. eigenvalues --   -0.33538  -0.33423  -0.33250  -0.33110  -0.33076
 Alpha  occ. eigenvalues --   -0.32809  -0.32406  -0.32277  -0.32191  -0.32128
 Alpha  occ. eigenvalues --   -0.31959  -0.31595  -0.31313  -0.31166  -0.31099
 Alpha  occ. eigenvalues --   -0.30933  -0.30851  -0.30751  -0.30632  -0.30365
 Alpha  occ. eigenvalues --   -0.30180  -0.30104  -0.30014  -0.29914  -0.29842
 Alpha  occ. eigenvalues --   -0.29381  -0.29314  -0.29167  -0.28997  -0.28926
 Alpha  occ. eigenvalues --   -0.28823  -0.28742  -0.28219  -0.27534  -0.27486
 Alpha  occ. eigenvalues --   -0.27433  -0.27396  -0.26924  -0.26402  -0.26344
 Alpha  occ. eigenvalues --   -0.26237  -0.25956  -0.25772  -0.25692  -0.24926
 Alpha  occ. eigenvalues --   -0.24828  -0.24810  -0.24367  -0.23578  -0.23289
 Alpha  occ. eigenvalues --   -0.23224  -0.22077  -0.21774  -0.21500  -0.20999
 Alpha  occ. eigenvalues --   -0.20583  -0.20380  -0.19117  -0.18699  -0.16964
 Alpha  occ. eigenvalues --   -0.15509
 Alpha virt. eigenvalues --   -0.11205  -0.06955  -0.06240  -0.04663  -0.03542
 Alpha virt. eigenvalues --   -0.03011  -0.02681  -0.02142  -0.01605  -0.00172
 Alpha virt. eigenvalues --    0.01637   0.01827   0.02472   0.02656   0.03101

 Mulliken charges:
               1
     1  Mg   0.707644
     2  C    0.046797
     3  C   -0.061240
     4  C   -0.037453
     5  C   -0.072138
     6  N   -0.220839
     7  C   -0.076212
     8  C    0.050471
     9  C   -0.017956
    10  C    0.034543
    11  C    0.143619
    12  C    0.052121
    13  C    0.132331
    14  C    0.076935
    15  O   -0.226576
    16  O   -0.241070
    17  N   -0.248611
    18  C    0.091759
    19  C   -0.128582
    20  C   -0.021545
    21  C    0.112293
    22  C    0.180575
    23  C   -0.033518
    24  O   -0.173753
    25  C    0.129001
    26  N   -0.232289
    27  C   -0.012448
    28  C   -0.008407
    29  C    0.036748
    30  C    0.050072
    31  C    0.169500
    32  C    0.080578
    33  C    0.048830
    34  N   -0.213359
    35  C    0.103286
    36  C   -0.202078
    37  C    0.103612
    38  C    0.025325
    39  C    0.178498
    40  C   -0.061905
    41  O   -0.120749
    42  C    0.053549
    43  C    0.150815
    44  O   -0.177698
    45  O   -0.301077
    46  C    0.197958
    47  C    0.338247
    48  C   -0.118840
    49  C   -0.147888
    50  C    0.128789
    51  C    0.137211
    52  C    0.089752
    53  C    0.138084
    54  C   -0.128775
    55  C    0.077798
    56  C    0.106128
    57  C    0.078871
    58  C    0.091441
    59  C   -0.106824
    60  C    0.103522
    61  C    0.141277
    62  C    0.064598
    63  C    0.114083
    64  C   -0.101473
    65  C    0.130297
    66  C    0.091329
    67  H   -0.074648
    68  H   -0.041083
    69  H   -0.060418
    70  H   -0.030346
    71  H   -0.029394
    72  H    0.003674
    73  H   -0.018556
    74  H   -0.019195
    75  H   -0.019860
    76  H    0.020536
    77  H    0.021077
    78  H   -0.012940
    79  H    0.022777
    80  H   -0.012593
    81  H   -0.010296
    82  H    0.034447
    83  H   -0.013524
    84  H   -0.014492
    85  H   -0.018867
    86  H   -0.041891
    87  H   -0.003134
    88  H   -0.013459
    89  H    0.008674
    90  H   -0.029410
    91  H   -0.014351
    92  H   -0.011496
    93  H    0.007822
    94  H   -0.011670
    95  H   -0.026630
    96  H    0.013456
    97  H    0.024499
    98  H   -0.000465
    99  H    0.028960
   100  H   -0.003870
   101  H    0.038994
   102  H   -0.015412
   103  H   -0.024325
   104  H   -0.040241
   105  H    0.002329
   106  H    0.017535
   107  H   -0.011182
   108  H   -0.043582
   109  H   -0.027043
   110  H   -0.029785
   111  H   -0.027001
   112  H   -0.026513
   113  H   -0.028867
   114  H   -0.005222
   115  H   -0.015330
   116  H   -0.024414
   117  H   -0.027791
   118  H   -0.030384
   119  H   -0.022599
   120  H   -0.025200
   121  H   -0.039919
   122  H   -0.038434
   123  H   -0.033647
   124  H   -0.036829
   125  H   -0.030269
   126  H   -0.015271
   127  H   -0.020419
   128  H   -0.030169
   129  H   -0.042129
   130  H   -0.031990
   131  H   -0.037802
   132  H   -0.046942
   133  H   -0.035919
   134  H   -0.036448
   135  H   -0.031230
   136  H   -0.036121
   137  H   -0.004159
   138  H   -0.017115
   139  H   -0.004725
   140  H   -0.012745
 Sum of Mulliken charges =  -0.00000

 Dipole moment (field-independent basis, Debye):
    X=             -2.2762    Y=              3.3659    Z=             -2.9271  Tot=              5.0078
 Quadrupole moment (field-independent basis, Debye-Ang):
   XX=           -371.9394   YY=           -422.5048   ZZ=           -405.7585
   XY=              0.7306   XZ=              1.5625   YZ=             -0.1960

 Normal termination of Gaussian 16 at Thu Apr 28 04:23:45 2022.
