 Gaussian 16, Revision A.03,
 Gaussian 16:  ES64L-G16RevA.03 25-Dec-2016

 -----------------------------------
 #p cam-b3lyp/Def2SVP td=(nstates=5)
 -----------------------------------

 -------------------------------------------------------
 step_1451_chromophore_1 TDDFT with cam-b3lyp functional
 -------------------------------------------------------
 Symbolic Z-matrix:
 Charge =  0 Multiplicity = 1

                         Standard orientation:
 ---------------------------------------------------------------------
 Center     Atomic      Atomic             Coordinates (Angstroms)
 Number     Number       Type             X           Y           Z
 ---------------------------------------------------------------------
      1         12           0        5.899713    0.435150    0.194327
      2          6           0        3.968810   -2.282653   -0.775711
      3          6           0        3.605748    2.517449   -1.149037
      4          6           0        8.204192    3.006380    0.069700
      5          6           0        8.527933   -1.808477    1.008054
      6          7           0        4.112901    0.094093   -1.045686
      7          6           0        3.386585   -1.049078   -1.122173
      8          6           0        1.987541   -0.793227   -1.663081
      9          6           0        2.064195    0.668389   -2.118760
     10          6           0        3.347964    1.164142   -1.461783
     11          6           0        2.228102    0.866864   -3.662426
     12          6           0        0.774563   -1.059859   -0.597992
     13          6           0       -0.537860   -1.696303   -1.176031
     14          6           0       -1.612121   -1.941977   -0.168920
     15          8           0       -1.403453   -2.336729    1.004018
     16          8           0       -2.874120   -1.666681   -0.606511
     17          7           0        5.756936    2.527771   -0.155298
     18          6           0        4.753310    3.220701   -0.687488
     19          6           0        4.999790    4.678184   -0.739996
     20          6           0        6.375183    4.749305   -0.383421
     21          6           0        6.846286    3.374544   -0.091073
     22          6           0        4.046941    5.657285   -1.304005
     23          6           0        7.336022    6.006276   -0.294856
     24          8           0        8.440024    6.049947    0.262352
     25          6           0        6.710936    7.312689   -0.639436
     26          7           0        8.038476    0.595285    0.593173
     27          6           0        8.765965    1.740684    0.330711
     28          6           0       10.231250    1.539618    0.696048
     29          6           0       10.260101    0.071732    1.315185
     30          6           0        8.860792   -0.424624    1.001357
     31          6           0       11.195093    1.948460   -0.440389
     32          6           0       10.488047   -0.004262    2.800753
     33          6           0        9.455007    0.704084    3.762266
     34          7           0        6.194750   -1.656178    0.222369
     35          6           0        7.282524   -2.367605    0.589238
     36          6           0        6.955094   -3.804375    0.487531
     37          6           0        5.657484   -3.852546    0.012011
     38          6           0        5.241021   -2.494023   -0.188073
     39          6           0        7.814085   -5.014061    0.800666
     40          6           0        4.507022   -4.702565   -0.176472
     41          8           0        4.328140   -5.882118    0.011151
     42          6           0        3.376398   -3.796771   -0.838705
     43          6           0        2.177829   -4.132124   -0.073756
     44          8           0        2.013685   -3.989261    1.134282
     45          8           0        1.302582   -4.701682   -1.009026
     46          6           0        0.243757   -5.440409   -0.253307
     47          6           0       -3.878090   -1.633553    0.413925
     48          6           0       -5.233458   -1.288587   -0.148794
     49          6           0       -6.316151   -2.072513   -0.341782
     50          6           0       -6.219892   -3.598060   -0.106754
     51          6           0       -7.623945   -1.427186   -0.879988
     52          6           0       -8.742633   -1.267416    0.128630
     53          6           0       -8.471504   -0.031911    1.035625
     54          6           0       -9.594577    0.992021    0.765273
     55          6           0       -9.144787    2.069099   -0.340220
     56          6           0       -9.932672    1.616330    2.112298
     57          6           0      -11.237910    2.560452    2.064358
     58          6           0      -12.325787    2.120160    3.041207
     59          6           0      -13.669044    1.911666    2.338978
     60          6           0      -14.840021    1.890030    3.407755
     61          6           0      -13.735057    0.648421    1.427115
     62          6           0      -14.426173    0.959505    0.141770
     63          6           0      -13.427504    1.386027   -1.048922
     64          6           0      -13.189597    0.320613   -2.139631
     65          6           0      -11.773002    0.301801   -2.589248
     66          6           0      -14.143667    0.631895   -3.361037
     67          1           0        2.751158    3.154756   -1.385682
     68          1           0        8.950176    3.788039   -0.091769
     69          1           0        9.329297   -2.513346    1.241971
     70          1           0        1.679180   -1.418755   -2.500286
     71          1           0        1.141005    1.145635   -1.790959
     72          1           0        1.393777    1.332944   -4.186795
     73          1           0        2.563500   -0.033915   -4.176365
     74          1           0        3.141584    1.447260   -3.787438
     75          1           0        0.352511   -0.160053   -0.148986
     76          1           0        1.251822   -1.654369    0.180702
     77          1           0       -0.409304   -2.643948   -1.700364
     78          1           0       -0.821779   -0.871767   -1.829965
     79          1           0        4.230807    5.722181   -2.375837
     80          1           0        4.080851    6.610506   -0.776419
     81          1           0        3.025182    5.324935   -1.119045
     82          1           0        5.873252    7.601923   -0.004387
     83          1           0        6.383012    7.316811   -1.678180
     84          1           0        7.509328    8.050613   -0.724546
     85          1           0       10.306091    2.218079    1.546403
     86          1           0       11.132988   -0.404823    0.869264
     87          1           0       10.638188    2.409198   -1.255664
     88          1           0       11.563485    1.004554   -0.843029
     89          1           0       11.906784    2.639330    0.012362
     90          1           0       11.413654    0.564990    2.882620
     91          1           0       10.719675   -1.007686    3.157578
     92          1           0        8.905562    0.042935    4.433235
     93          1           0        8.678899    1.279326    3.258105
     94          1           0        9.966716    1.369354    4.457500
     95          1           0        8.697314   -4.720730    1.366764
     96          1           0        8.144665   -5.301028   -0.197649
     97          1           0        7.310810   -5.767991    1.405681
     98          1           0        3.407471   -4.157985   -1.867231
     99          1           0        0.692499   -6.394851    0.024246
    100          1           0       -0.590247   -5.576656   -0.942150
    101          1           0       -0.217829   -4.872463    0.554229
    102          1           0       -3.637304   -0.863989    1.148232
    103          1           0       -4.012809   -2.566118    0.961508
    104          1           0       -5.322259   -0.219613   -0.344623
    105          1           0       -5.588854   -3.871301    0.738445
    106          1           0       -5.800285   -3.958076   -1.046864
    107          1           0       -7.183422   -4.056310    0.114406
    108          1           0       -7.936028   -2.098773   -1.679795
    109          1           0       -7.384548   -0.507234   -1.414180
    110          1           0       -8.952918   -2.074697    0.829623
    111          1           0       -9.643243   -1.193070   -0.481038
    112          1           0       -7.553430    0.447425    0.693791
    113          1           0       -8.398389   -0.329591    2.080842
    114          1           0      -10.535865    0.669990    0.319822
    115          1           0       -9.846973    2.122001   -1.172816
    116          1           0       -8.152733    1.909750   -0.762954
    117          1           0       -8.985198    3.076633    0.045261
    118          1           0       -9.134011    2.309109    2.377759
    119          1           0      -10.127868    0.780148    2.783423
    120          1           0      -11.657401    2.578816    1.059122
    121          1           0      -10.935336    3.535822    2.446759
    122          1           0      -12.388958    2.932286    3.765560
    123          1           0      -12.085161    1.158370    3.492666
    124          1           0      -13.788681    2.880015    1.852397
    125          1           0      -15.285813    2.868113    3.585250
    126          1           0      -14.530114    1.616363    4.416808
    127          1           0      -15.629825    1.278792    2.972413
    128          1           0      -14.276187   -0.155502    1.926386
    129          1           0      -12.711250    0.356530    1.194106
    130          1           0      -15.166117    1.737204    0.327935
    131          1           0      -14.981997    0.082948   -0.191042
    132          1           0      -12.510412    1.668333   -0.533596
    133          1           0      -13.778447    2.340674   -1.438712
    134          1           0      -13.349171   -0.741603   -1.952103
    135          1           0      -11.168107    1.151148   -2.270169
    136          1           0      -11.741172    0.348996   -3.677533
    137          1           0      -11.360917   -0.630235   -2.202369
    138          1           0      -14.374174   -0.290395   -3.892986
    139          1           0      -13.755067    1.395845   -4.033980
    140          1           0      -15.005194    0.947957   -2.772730
 ---------------------------------------------------------------------

 SCF Done:  E(RCAM-B3LYP) =  -3007.14906183     A.U. after   19 cycles

 Excitation energies and oscillator strengths:

 Excited State   1:      Singlet-A      1.6945 eV  731.67 nm  f=0.3784  <S**2>=0.000
     245 -> 248       -0.18919
     246 -> 247        0.68353
     245 <- 248       -0.11048
 This state for optimization and/or second-order correction.
 Total Energy, E(TD-HF/TD-DFT) =  -3007.08678914
 Copying the excited state density for this state as the 1-particle RhoCI density.

 Excited State   2:      Singlet-A      2.2182 eV  558.95 nm  f=0.0794  <S**2>=0.000
     245 -> 247        0.62648
     246 -> 248        0.31941

 Excited State   3:      Singlet-A      3.4554 eV  358.81 nm  f=0.6663  <S**2>=0.000
     241 -> 247        0.13662
     243 -> 247       -0.12283
     245 -> 247       -0.29728
     246 -> 248        0.60563
     245 <- 247        0.11151

 Excited State   4:      Singlet-A      3.5989 eV  344.51 nm  f=0.0049  <S**2>=0.000
     241 -> 247        0.10444
     244 -> 247        0.65865

 Excited State   5:      Singlet-A      3.6523 eV  339.47 nm  f=0.0083  <S**2>=0.000
     239 -> 247        0.10210
     241 -> 247        0.34760
     241 -> 249        0.21003
     241 -> 251       -0.20958
     242 -> 247       -0.14272
     243 -> 247        0.43223
     243 -> 251       -0.12218

 The electronic state is 1-A.
 Alpha  occ. eigenvalues --  -46.89685 -19.25244 -19.24454 -19.19748 -19.19533
 Alpha  occ. eigenvalues --  -19.19288 -19.18785 -14.42104 -14.41971 -14.39806
 Alpha  occ. eigenvalues --  -14.39209 -10.39424 -10.38594 -10.35933 -10.34572
 Alpha  occ. eigenvalues --  -10.31304 -10.31269 -10.31219 -10.30680 -10.30498
 Alpha  occ. eigenvalues --  -10.30295 -10.30230 -10.30116 -10.29763 -10.28889
 Alpha  occ. eigenvalues --  -10.28712 -10.28291 -10.28206 -10.27999 -10.27915
 Alpha  occ. eigenvalues --  -10.27903 -10.27822 -10.27717 -10.27688 -10.27462
 Alpha  occ. eigenvalues --  -10.27417 -10.27200 -10.27197 -10.27164 -10.26761
 Alpha  occ. eigenvalues --  -10.26411 -10.26410 -10.26247 -10.26138 -10.26046
 Alpha  occ. eigenvalues --  -10.26043 -10.26015 -10.25974 -10.25754 -10.25703
 Alpha  occ. eigenvalues --  -10.25383 -10.25373 -10.25367 -10.25216 -10.25137
 Alpha  occ. eigenvalues --  -10.24820 -10.24809 -10.24774 -10.24732 -10.24650
 Alpha  occ. eigenvalues --  -10.24596 -10.24567 -10.24409 -10.24292 -10.24006
 Alpha  occ. eigenvalues --  -10.23997  -3.18030  -1.92929  -1.92464  -1.92343
 Alpha  occ. eigenvalues --   -1.16622  -1.14542  -1.10327  -1.09836  -1.06847
 Alpha  occ. eigenvalues --   -1.06351  -1.04489  -1.03774  -1.03307  -1.02333
 Alpha  occ. eigenvalues --   -0.91054  -0.90523  -0.89957  -0.89089  -0.88754
 Alpha  occ. eigenvalues --   -0.88595  -0.88063  -0.87811  -0.87529  -0.87125
 Alpha  occ. eigenvalues --   -0.86212  -0.85684  -0.84409  -0.83270  -0.83189
 Alpha  occ. eigenvalues --   -0.82644  -0.82105  -0.80886  -0.80308  -0.79852
 Alpha  occ. eigenvalues --   -0.79356  -0.78317  -0.77941  -0.76983  -0.75956
 Alpha  occ. eigenvalues --   -0.75666  -0.75418  -0.75000  -0.74667  -0.74345
 Alpha  occ. eigenvalues --   -0.73258  -0.72292  -0.71516  -0.70403  -0.69878
 Alpha  occ. eigenvalues --   -0.68513  -0.68300  -0.66848  -0.66404  -0.65292
 Alpha  occ. eigenvalues --   -0.64966  -0.64693  -0.64144  -0.63841  -0.63670
 Alpha  occ. eigenvalues --   -0.63325  -0.63120  -0.62382  -0.61073  -0.60401
 Alpha  occ. eigenvalues --   -0.59897  -0.59539  -0.58846  -0.58372  -0.57496
 Alpha  occ. eigenvalues --   -0.57396  -0.57252  -0.56479  -0.55943  -0.55537
 Alpha  occ. eigenvalues --   -0.55357  -0.55090  -0.54901  -0.54275  -0.54072
 Alpha  occ. eigenvalues --   -0.53964  -0.53490  -0.53252  -0.53184  -0.52583
 Alpha  occ. eigenvalues --   -0.52482  -0.52432  -0.52067  -0.51764  -0.51674
 Alpha  occ. eigenvalues --   -0.51503  -0.51399  -0.51265  -0.51143  -0.50926
 Alpha  occ. eigenvalues --   -0.50297  -0.50141  -0.49832  -0.49648  -0.49474
 Alpha  occ. eigenvalues --   -0.49338  -0.49180  -0.49053  -0.48791  -0.48470
 Alpha  occ. eigenvalues --   -0.48409  -0.48331  -0.48205  -0.48082  -0.47655
 Alpha  occ. eigenvalues --   -0.47350  -0.47179  -0.47086  -0.46817  -0.46496
 Alpha  occ. eigenvalues --   -0.46397  -0.46088  -0.45812  -0.45691  -0.45411
 Alpha  occ. eigenvalues --   -0.45226  -0.45151  -0.44949  -0.44865  -0.44815
 Alpha  occ. eigenvalues --   -0.44551  -0.44274  -0.44118  -0.43808  -0.43693
 Alpha  occ. eigenvalues --   -0.43484  -0.43066  -0.42941  -0.42840  -0.42816
 Alpha  occ. eigenvalues --   -0.42524  -0.42204  -0.42131  -0.41988  -0.41860
 Alpha  occ. eigenvalues --   -0.41845  -0.41638  -0.41418  -0.41158  -0.41039
 Alpha  occ. eigenvalues --   -0.40911  -0.40514  -0.40253  -0.40191  -0.40131
 Alpha  occ. eigenvalues --   -0.39916  -0.39716  -0.39116  -0.38551  -0.38405
 Alpha  occ. eigenvalues --   -0.38253  -0.38209  -0.37777  -0.37668  -0.37128
 Alpha  occ. eigenvalues --   -0.36965  -0.36925  -0.36421  -0.36314  -0.36197
 Alpha  occ. eigenvalues --   -0.35796  -0.35472  -0.35292  -0.34355  -0.34089
 Alpha  occ. eigenvalues --   -0.33835  -0.33515  -0.32610  -0.31519  -0.31131
 Alpha  occ. eigenvalues --   -0.30616  -0.30437  -0.30347  -0.29931  -0.23738
 Alpha  occ. eigenvalues --   -0.20716
 Alpha virt. eigenvalues --   -0.08209  -0.01734   0.00242   0.01992   0.02350
 Alpha virt. eigenvalues --    0.04281   0.04956   0.05295   0.05749   0.06925
 Alpha virt. eigenvalues --    0.07379   0.08817   0.08853   0.09331   0.09436

 Mulliken charges:
               1
     1  Mg   0.836645
     2  C    0.021801
     3  C   -0.077122
     4  C   -0.053653
     5  C   -0.072221
     6  N   -0.290362
     7  C   -0.040294
     8  C    0.006891
     9  C   -0.073366
    10  C    0.049146
    11  C    0.083681
    12  C    0.005055
    13  C    0.061926
    14  C    0.159215
    15  O   -0.267085
    16  O   -0.304583
    17  N   -0.333991
    18  C    0.102101
    19  C   -0.135184
    20  C   -0.081625
    21  C    0.130921
    22  C    0.122357
    23  C    0.045606
    24  O   -0.210913
    25  C    0.041955
    26  N   -0.299458
    27  C    0.009156
    28  C   -0.064601
    29  C   -0.017648
    30  C    0.057075
    31  C    0.107009
    32  C    0.029585
    33  C   -0.015540
    34  N   -0.303870
    35  C    0.105848
    36  C   -0.199664
    37  C    0.027476
    38  C    0.060611
    39  C    0.129895
    40  C    0.036994
    41  O   -0.160054
    42  C   -0.018399
    43  C    0.232591
    44  O   -0.213441
    45  O   -0.363390
    46  C    0.156724
    47  C    0.301021
    48  C   -0.136190
    49  C   -0.169288
    50  C    0.068441
    51  C    0.079106
    52  C    0.036085
    53  C    0.081270
    54  C   -0.169938
    55  C    0.025154
    56  C    0.054268
    57  C    0.023797
    58  C    0.042919
    59  C   -0.163205
    60  C    0.048290
    61  C    0.082143
    62  C    0.013636
    63  C    0.061234
    64  C   -0.160227
    65  C    0.072670
    66  C    0.037314
    67  H   -0.040903
    68  H   -0.001852
    69  H   -0.024641
    70  H    0.006445
    71  H    0.005635
    72  H    0.028058
    73  H    0.007804
    74  H    0.009335
    75  H    0.009169
    76  H    0.048541
    77  H    0.050300
    78  H    0.020072
    79  H    0.049290
    80  H    0.014087
    81  H    0.017069
    82  H    0.060337
    83  H    0.015951
    84  H    0.021422
    85  H    0.016581
    86  H   -0.005355
    87  H    0.022452
    88  H    0.011075
    89  H    0.032443
    90  H   -0.000526
    91  H    0.014065
    92  H    0.013863
    93  H    0.028068
    94  H    0.013158
    95  H   -0.001890
    96  H    0.039506
    97  H    0.050710
    98  H    0.043785
    99  H    0.052844
   100  H    0.019004
   101  H    0.063627
   102  H    0.013947
   103  H    0.004872
   104  H   -0.009280
   105  H    0.025819
   106  H    0.041904
   107  H    0.013374
   108  H   -0.012005
   109  H    0.002878
   110  H   -0.000795
   111  H   -0.001093
   112  H   -0.000776
   113  H    0.002270
   114  H    0.013444
   115  H    0.003758
   116  H   -0.001903
   117  H   -0.001946
   118  H   -0.002091
   119  H    0.004318
   120  H   -0.001567
   121  H   -0.008668
   122  H   -0.007967
   123  H   -0.006753
   124  H   -0.005170
   125  H   -0.004876
   126  H    0.008976
   127  H    0.002418
   128  H    0.001285
   129  H   -0.016019
   130  H   -0.003911
   131  H   -0.008846
   132  H   -0.029607
   133  H   -0.004300
   134  H   -0.003522
   135  H   -0.011721
   136  H   -0.008071
   137  H    0.015603
   138  H    0.007603
   139  H    0.017807
   140  H    0.008781
 Sum of Mulliken charges =  -0.00000

 Dipole moment (field-independent basis, Debye):
    X=             -2.3180    Y=              3.9117    Z=             -3.1723  Tot=              5.5442
 Quadrupole moment (field-independent basis, Debye-Ang):
   XX=           -370.9463   YY=           -417.7685   ZZ=           -405.7612
   XY=              3.0339   XZ=              0.5525   YZ=             -1.1184

 Normal termination of Gaussian 16 at Thu Apr 28 03:18:13 2022.
