 Gaussian 16, Revision A.03,
 Gaussian 16:  ES64L-G16RevA.03 25-Dec-2016

 ---------------------------------
 #p PBE1PBE/Def2SVP td=(nstates=5)
 ---------------------------------

 -----------------------------------------------------
 step_1451_chromophore_1 TDDFT with PBE1PBE functional
 -----------------------------------------------------
 Symbolic Z-matrix:
 Charge =  0 Multiplicity = 1

                         Standard orientation:
 ---------------------------------------------------------------------
 Center     Atomic      Atomic             Coordinates (Angstroms)
 Number     Number       Type             X           Y           Z
 ---------------------------------------------------------------------
      1         12           0        5.899713    0.435150    0.194327
      2          6           0        3.968810   -2.282653   -0.775711
      3          6           0        3.605748    2.517449   -1.149037
      4          6           0        8.204192    3.006380    0.069700
      5          6           0        8.527933   -1.808477    1.008054
      6          7           0        4.112901    0.094093   -1.045686
      7          6           0        3.386585   -1.049078   -1.122173
      8          6           0        1.987541   -0.793227   -1.663081
      9          6           0        2.064195    0.668389   -2.118760
     10          6           0        3.347964    1.164142   -1.461783
     11          6           0        2.228102    0.866864   -3.662426
     12          6           0        0.774563   -1.059859   -0.597992
     13          6           0       -0.537860   -1.696303   -1.176031
     14          6           0       -1.612121   -1.941977   -0.168920
     15          8           0       -1.403453   -2.336729    1.004018
     16          8           0       -2.874120   -1.666681   -0.606511
     17          7           0        5.756936    2.527771   -0.155298
     18          6           0        4.753310    3.220701   -0.687488
     19          6           0        4.999790    4.678184   -0.739996
     20          6           0        6.375183    4.749305   -0.383421
     21          6           0        6.846286    3.374544   -0.091073
     22          6           0        4.046941    5.657285   -1.304005
     23          6           0        7.336022    6.006276   -0.294856
     24          8           0        8.440024    6.049947    0.262352
     25          6           0        6.710936    7.312689   -0.639436
     26          7           0        8.038476    0.595285    0.593173
     27          6           0        8.765965    1.740684    0.330711
     28          6           0       10.231250    1.539618    0.696048
     29          6           0       10.260101    0.071732    1.315185
     30          6           0        8.860792   -0.424624    1.001357
     31          6           0       11.195093    1.948460   -0.440389
     32          6           0       10.488047   -0.004262    2.800753
     33          6           0        9.455007    0.704084    3.762266
     34          7           0        6.194750   -1.656178    0.222369
     35          6           0        7.282524   -2.367605    0.589238
     36          6           0        6.955094   -3.804375    0.487531
     37          6           0        5.657484   -3.852546    0.012011
     38          6           0        5.241021   -2.494023   -0.188073
     39          6           0        7.814085   -5.014061    0.800666
     40          6           0        4.507022   -4.702565   -0.176472
     41          8           0        4.328140   -5.882118    0.011151
     42          6           0        3.376398   -3.796771   -0.838705
     43          6           0        2.177829   -4.132124   -0.073756
     44          8           0        2.013685   -3.989261    1.134282
     45          8           0        1.302582   -4.701682   -1.009026
     46          6           0        0.243757   -5.440409   -0.253307
     47          6           0       -3.878090   -1.633553    0.413925
     48          6           0       -5.233458   -1.288587   -0.148794
     49          6           0       -6.316151   -2.072513   -0.341782
     50          6           0       -6.219892   -3.598060   -0.106754
     51          6           0       -7.623945   -1.427186   -0.879988
     52          6           0       -8.742633   -1.267416    0.128630
     53          6           0       -8.471504   -0.031911    1.035625
     54          6           0       -9.594577    0.992021    0.765273
     55          6           0       -9.144787    2.069099   -0.340220
     56          6           0       -9.932672    1.616330    2.112298
     57          6           0      -11.237910    2.560452    2.064358
     58          6           0      -12.325787    2.120160    3.041207
     59          6           0      -13.669044    1.911666    2.338978
     60          6           0      -14.840021    1.890030    3.407755
     61          6           0      -13.735057    0.648421    1.427115
     62          6           0      -14.426173    0.959505    0.141770
     63          6           0      -13.427504    1.386027   -1.048922
     64          6           0      -13.189597    0.320613   -2.139631
     65          6           0      -11.773002    0.301801   -2.589248
     66          6           0      -14.143667    0.631895   -3.361037
     67          1           0        2.751158    3.154756   -1.385682
     68          1           0        8.950176    3.788039   -0.091769
     69          1           0        9.329297   -2.513346    1.241971
     70          1           0        1.679180   -1.418755   -2.500286
     71          1           0        1.141005    1.145635   -1.790959
     72          1           0        1.393777    1.332944   -4.186795
     73          1           0        2.563500   -0.033915   -4.176365
     74          1           0        3.141584    1.447260   -3.787438
     75          1           0        0.352511   -0.160053   -0.148986
     76          1           0        1.251822   -1.654369    0.180702
     77          1           0       -0.409304   -2.643948   -1.700364
     78          1           0       -0.821779   -0.871767   -1.829965
     79          1           0        4.230807    5.722181   -2.375837
     80          1           0        4.080851    6.610506   -0.776419
     81          1           0        3.025182    5.324935   -1.119045
     82          1           0        5.873252    7.601923   -0.004387
     83          1           0        6.383012    7.316811   -1.678180
     84          1           0        7.509328    8.050613   -0.724546
     85          1           0       10.306091    2.218079    1.546403
     86          1           0       11.132988   -0.404823    0.869264
     87          1           0       10.638188    2.409198   -1.255664
     88          1           0       11.563485    1.004554   -0.843029
     89          1           0       11.906784    2.639330    0.012362
     90          1           0       11.413654    0.564990    2.882620
     91          1           0       10.719675   -1.007686    3.157578
     92          1           0        8.905562    0.042935    4.433235
     93          1           0        8.678899    1.279326    3.258105
     94          1           0        9.966716    1.369354    4.457500
     95          1           0        8.697314   -4.720730    1.366764
     96          1           0        8.144665   -5.301028   -0.197649
     97          1           0        7.310810   -5.767991    1.405681
     98          1           0        3.407471   -4.157985   -1.867231
     99          1           0        0.692499   -6.394851    0.024246
    100          1           0       -0.590247   -5.576656   -0.942150
    101          1           0       -0.217829   -4.872463    0.554229
    102          1           0       -3.637304   -0.863989    1.148232
    103          1           0       -4.012809   -2.566118    0.961508
    104          1           0       -5.322259   -0.219613   -0.344623
    105          1           0       -5.588854   -3.871301    0.738445
    106          1           0       -5.800285   -3.958076   -1.046864
    107          1           0       -7.183422   -4.056310    0.114406
    108          1           0       -7.936028   -2.098773   -1.679795
    109          1           0       -7.384548   -0.507234   -1.414180
    110          1           0       -8.952918   -2.074697    0.829623
    111          1           0       -9.643243   -1.193070   -0.481038
    112          1           0       -7.553430    0.447425    0.693791
    113          1           0       -8.398389   -0.329591    2.080842
    114          1           0      -10.535865    0.669990    0.319822
    115          1           0       -9.846973    2.122001   -1.172816
    116          1           0       -8.152733    1.909750   -0.762954
    117          1           0       -8.985198    3.076633    0.045261
    118          1           0       -9.134011    2.309109    2.377759
    119          1           0      -10.127868    0.780148    2.783423
    120          1           0      -11.657401    2.578816    1.059122
    121          1           0      -10.935336    3.535822    2.446759
    122          1           0      -12.388958    2.932286    3.765560
    123          1           0      -12.085161    1.158370    3.492666
    124          1           0      -13.788681    2.880015    1.852397
    125          1           0      -15.285813    2.868113    3.585250
    126          1           0      -14.530114    1.616363    4.416808
    127          1           0      -15.629825    1.278792    2.972413
    128          1           0      -14.276187   -0.155502    1.926386
    129          1           0      -12.711250    0.356530    1.194106
    130          1           0      -15.166117    1.737204    0.327935
    131          1           0      -14.981997    0.082948   -0.191042
    132          1           0      -12.510412    1.668333   -0.533596
    133          1           0      -13.778447    2.340674   -1.438712
    134          1           0      -13.349171   -0.741603   -1.952103
    135          1           0      -11.168107    1.151148   -2.270169
    136          1           0      -11.741172    0.348996   -3.677533
    137          1           0      -11.360917   -0.630235   -2.202369
    138          1           0      -14.374174   -0.290395   -3.892986
    139          1           0      -13.755067    1.395845   -4.033980
    140          1           0      -15.005194    0.947957   -2.772730
 ---------------------------------------------------------------------

 SCF Done:  E(RPBE1PBE) =  -3005.33840674     A.U. after   15 cycles

 Excitation energies and oscillator strengths:

 Excited State   1:      Singlet-A      1.8542 eV  668.67 nm  f=0.3707  <S**2>=0.000
     245 -> 248        0.17991
     246 -> 247        0.69058
     246 <- 247       -0.10389
 This state for optimization and/or second-order correction.
 Total Energy, E(TD-HF/TD-DFT) =  -3005.27026693
 Copying the excited state density for this state as the 1-particle RhoCI density.

 Excited State   2:      Singlet-A      2.2273 eV  556.65 nm  f=0.0817  <S**2>=0.000
     245 -> 247        0.64082
     246 -> 248       -0.28817

 Excited State   3:      Singlet-A      3.1191 eV  397.50 nm  f=0.0071  <S**2>=0.000
     243 -> 247       -0.14898
     244 -> 247        0.65023
     244 -> 249       -0.12621
     244 -> 250        0.11152

 Excited State   4:      Singlet-A      3.2155 eV  385.58 nm  f=0.0655  <S**2>=0.000
     240 -> 247       -0.16690
     240 -> 249       -0.10296
     241 -> 247       -0.27904
     243 -> 247        0.47972
     245 -> 247       -0.10484
     246 -> 248       -0.29382
     246 -> 249       -0.11120

 Excited State   5:      Singlet-A      3.2540 eV  381.03 nm  f=0.1619  <S**2>=0.000
     241 -> 247        0.16989
     243 -> 247        0.41959
     244 -> 247        0.18686
     245 -> 247        0.15845
     246 -> 248        0.42885
     246 -> 249        0.16962

 The electronic state is 1-A.
 Alpha  occ. eigenvalues --  -46.93076 -19.25893 -19.25113 -19.19922 -19.19745
 Alpha  occ. eigenvalues --  -19.19572 -19.19023 -14.41658 -14.41465 -14.39395
 Alpha  occ. eigenvalues --  -14.38840 -10.36441 -10.35589 -10.33047 -10.31744
 Alpha  occ. eigenvalues --  -10.29021 -10.28937 -10.28639 -10.28480 -10.28242
 Alpha  occ. eigenvalues --  -10.27979 -10.27751 -10.27527 -10.27443 -10.26521
 Alpha  occ. eigenvalues --  -10.26421 -10.26099 -10.26087 -10.25786 -10.25599
 Alpha  occ. eigenvalues --  -10.25575 -10.25413 -10.25349 -10.25303 -10.25296
 Alpha  occ. eigenvalues --  -10.25035 -10.24849 -10.24797 -10.24782 -10.24444
 Alpha  occ. eigenvalues --  -10.24080 -10.24025 -10.23696 -10.23639 -10.23539
 Alpha  occ. eigenvalues --  -10.23498 -10.23495 -10.23467 -10.23377 -10.23220
 Alpha  occ. eigenvalues --  -10.23098 -10.22984 -10.22940 -10.22698 -10.22663
 Alpha  occ. eigenvalues --  -10.22376 -10.22361 -10.22344 -10.22343 -10.22238
 Alpha  occ. eigenvalues --  -10.22189 -10.21992 -10.21982 -10.21705 -10.21559
 Alpha  occ. eigenvalues --  -10.21392  -3.15005  -1.87842  -1.87358  -1.87238
 Alpha  occ. eigenvalues --   -1.11434  -1.09258  -1.05101  -1.04516  -1.01655
 Alpha  occ. eigenvalues --   -1.01173  -0.99146  -0.98449  -0.97935  -0.96946
 Alpha  occ. eigenvalues --   -0.85401  -0.84617  -0.84056  -0.83299  -0.83048
 Alpha  occ. eigenvalues --   -0.82740  -0.82347  -0.81959  -0.81782  -0.81427
 Alpha  occ. eigenvalues --   -0.80539  -0.79936  -0.78581  -0.77557  -0.77460
 Alpha  occ. eigenvalues --   -0.76843  -0.76230  -0.75117  -0.74568  -0.74215
 Alpha  occ. eigenvalues --   -0.73513  -0.72604  -0.72191  -0.71263  -0.70072
 Alpha  occ. eigenvalues --   -0.69804  -0.69725  -0.69314  -0.68842  -0.68497
 Alpha  occ. eigenvalues --   -0.67553  -0.66733  -0.65942  -0.64703  -0.64262
 Alpha  occ. eigenvalues --   -0.62866  -0.62669  -0.61252  -0.60647  -0.59711
 Alpha  occ. eigenvalues --   -0.59274  -0.59211  -0.58749  -0.58301  -0.57874
 Alpha  occ. eigenvalues --   -0.57730  -0.57309  -0.56537  -0.55629  -0.54875
 Alpha  occ. eigenvalues --   -0.54427  -0.53914  -0.53473  -0.52997  -0.52056
 Alpha  occ. eigenvalues --   -0.51789  -0.51590  -0.50986  -0.50535  -0.49995
 Alpha  occ. eigenvalues --   -0.49860  -0.49611  -0.49278  -0.48783  -0.48645
 Alpha  occ. eigenvalues --   -0.48383  -0.48026  -0.47814  -0.47562  -0.47086
 Alpha  occ. eigenvalues --   -0.47030  -0.46957  -0.46705  -0.46284  -0.46167
 Alpha  occ. eigenvalues --   -0.46087  -0.45885  -0.45819  -0.45632  -0.45449
 Alpha  occ. eigenvalues --   -0.44926  -0.44678  -0.44376  -0.44238  -0.44087
 Alpha  occ. eigenvalues --   -0.43906  -0.43796  -0.43663  -0.43434  -0.43122
 Alpha  occ. eigenvalues --   -0.42999  -0.42959  -0.42838  -0.42666  -0.42354
 Alpha  occ. eigenvalues --   -0.41958  -0.41835  -0.41651  -0.41480  -0.41153
 Alpha  occ. eigenvalues --   -0.41066  -0.40797  -0.40538  -0.40350  -0.40164
 Alpha  occ. eigenvalues --   -0.39976  -0.39863  -0.39611  -0.39564  -0.39500
 Alpha  occ. eigenvalues --   -0.39295  -0.38979  -0.38910  -0.38637  -0.38350
 Alpha  occ. eigenvalues --   -0.38285  -0.37865  -0.37722  -0.37578  -0.37559
 Alpha  occ. eigenvalues --   -0.37278  -0.36940  -0.36866  -0.36762  -0.36735
 Alpha  occ. eigenvalues --   -0.36587  -0.36447  -0.36200  -0.35965  -0.35887
 Alpha  occ. eigenvalues --   -0.35755  -0.35362  -0.35166  -0.35031  -0.34938
 Alpha  occ. eigenvalues --   -0.34666  -0.34641  -0.33903  -0.33499  -0.33374
 Alpha  occ. eigenvalues --   -0.33096  -0.33055  -0.32691  -0.32666  -0.31994
 Alpha  occ. eigenvalues --   -0.31901  -0.31770  -0.31384  -0.31296  -0.31118
 Alpha  occ. eigenvalues --   -0.30782  -0.30370  -0.30207  -0.29547  -0.28889
 Alpha  occ. eigenvalues --   -0.28719  -0.28412  -0.28172  -0.26852  -0.26276
 Alpha  occ. eigenvalues --   -0.25953  -0.25708  -0.25528  -0.25423  -0.20650
 Alpha  occ. eigenvalues --   -0.18381
 Alpha virt. eigenvalues --   -0.10716  -0.05219  -0.03976  -0.02084  -0.00851
 Alpha virt. eigenvalues --   -0.00230   0.00317   0.00874   0.01265   0.02869
 Alpha virt. eigenvalues --    0.04195   0.04856   0.05469   0.05592   0.06038

 Mulliken charges:
               1
     1  Mg   0.976446
     2  C    0.019232
     3  C   -0.070715
     4  C   -0.044840
     5  C   -0.054365
     6  N   -0.388411
     7  C    0.015393
     8  C   -0.048366
     9  C   -0.153834
    10  C    0.077999
    11  C    0.031266
    12  C   -0.043798
    13  C   -0.017869
    14  C    0.224891
    15  O   -0.297476
    16  O   -0.337051
    17  N   -0.446498
    18  C    0.121270
    19  C   -0.157864
    20  C   -0.119427
    21  C    0.156652
    22  C    0.059323
    23  C    0.091313
    24  O   -0.245839
    25  C   -0.031530
    26  N   -0.399539
    27  C    0.042370
    28  C   -0.133804
    29  C   -0.098349
    30  C    0.089479
    31  C    0.044701
    32  C   -0.027539
    33  C   -0.088973
    34  N   -0.434044
    35  C    0.128084
    36  C   -0.221235
    37  C   -0.013950
    38  C    0.110570
    39  C    0.075557
    40  C    0.127171
    41  O   -0.204638
    42  C   -0.118794
    43  C    0.315226
    44  O   -0.248022
    45  O   -0.391744
    46  C    0.098595
    47  C    0.253797
    48  C   -0.143219
    49  C   -0.205334
    50  C    0.005242
    51  C    0.006437
    52  C   -0.029946
    53  C    0.024623
    54  C   -0.264552
    55  C   -0.033347
    56  C    0.000547
    57  C   -0.049869
    58  C   -0.007544
    59  C   -0.248330
    60  C   -0.009283
    61  C    0.010441
    62  C   -0.041598
    63  C   -0.011072
    64  C   -0.248055
    65  C    0.002621
    66  C   -0.026664
    67  H   -0.007382
    68  H    0.028680
    69  H    0.006447
    70  H    0.043700
    71  H    0.040921
    72  H    0.054732
    73  H    0.035413
    74  H    0.038918
    75  H    0.041459
    76  H    0.083671
    77  H    0.082355
    78  H    0.053524
    79  H    0.076566
    80  H    0.042048
    81  H    0.044340
    82  H    0.085504
    83  H    0.043615
    84  H    0.048966
    85  H    0.055438
    86  H    0.030778
    87  H    0.050645
    88  H    0.039316
    89  H    0.059114
    90  H    0.034171
    91  H    0.046237
    92  H    0.042287
    93  H    0.058137
    94  H    0.041151
    95  H    0.026007
    96  H    0.068012
    97  H    0.076409
    98  H    0.080803
    99  H    0.075465
   100  H    0.040870
   101  H    0.086529
   102  H    0.041785
   103  H    0.032432
   104  H    0.019817
   105  H    0.051763
   106  H    0.070221
   107  H    0.040581
   108  H    0.022368
   109  H    0.036078
   110  H    0.031476
   111  H    0.036489
   112  H    0.034580
   113  H    0.033739
   114  H    0.058850
   115  H    0.034300
   116  H    0.024021
   117  H    0.025504
   118  H    0.031144
   119  H    0.036373
   120  H    0.039470
   121  H    0.025471
   122  H    0.025146
   123  H    0.026042
   124  H    0.033219
   125  H    0.023296
   126  H    0.035814
   127  H    0.029902
   128  H    0.033728
   129  H    0.026078
   130  H    0.028630
   131  H    0.023758
   132  H    0.010764
   133  H    0.028449
   134  H    0.032711
   135  H    0.024083
   136  H    0.020905
   137  H    0.044439
   138  H    0.036030
   139  H    0.044819
   140  H    0.038960
 Sum of Mulliken charges =  -0.00000

 Dipole moment (field-independent basis, Debye):
    X=             -2.3130    Y=              3.8589    Z=             -3.1310  Tot=              5.4812
 Quadrupole moment (field-independent basis, Debye-Ang):
   XX=           -364.5802   YY=           -415.2950   ZZ=           -402.8662
   XY=              2.1058   XZ=              1.5276   YZ=             -1.3080

 Normal termination of Gaussian 16 at Thu Apr 28 03:39:25 2022.
