 Gaussian 16, Revision A.03,
 Gaussian 16:  ES64L-G16RevA.03 25-Dec-2016

 --------------------------------
 #p wB97XD/Def2SVP td=(nstates=5)
 --------------------------------

 ----------------------------------------------------
 step_1451_chromophore_1 TDDFT with wB97XD functional
 ----------------------------------------------------
 Symbolic Z-matrix:
 Charge =  0 Multiplicity = 1

                         Standard orientation:
 ---------------------------------------------------------------------
 Center     Atomic      Atomic             Coordinates (Angstroms)
 Number     Number       Type             X           Y           Z
 ---------------------------------------------------------------------
      1         12           0        5.899713    0.435150    0.194327
      2          6           0        3.968810   -2.282653   -0.775711
      3          6           0        3.605748    2.517449   -1.149037
      4          6           0        8.204192    3.006380    0.069700
      5          6           0        8.527933   -1.808477    1.008054
      6          7           0        4.112901    0.094093   -1.045686
      7          6           0        3.386585   -1.049078   -1.122173
      8          6           0        1.987541   -0.793227   -1.663081
      9          6           0        2.064195    0.668389   -2.118760
     10          6           0        3.347964    1.164142   -1.461783
     11          6           0        2.228102    0.866864   -3.662426
     12          6           0        0.774563   -1.059859   -0.597992
     13          6           0       -0.537860   -1.696303   -1.176031
     14          6           0       -1.612121   -1.941977   -0.168920
     15          8           0       -1.403453   -2.336729    1.004018
     16          8           0       -2.874120   -1.666681   -0.606511
     17          7           0        5.756936    2.527771   -0.155298
     18          6           0        4.753310    3.220701   -0.687488
     19          6           0        4.999790    4.678184   -0.739996
     20          6           0        6.375183    4.749305   -0.383421
     21          6           0        6.846286    3.374544   -0.091073
     22          6           0        4.046941    5.657285   -1.304005
     23          6           0        7.336022    6.006276   -0.294856
     24          8           0        8.440024    6.049947    0.262352
     25          6           0        6.710936    7.312689   -0.639436
     26          7           0        8.038476    0.595285    0.593173
     27          6           0        8.765965    1.740684    0.330711
     28          6           0       10.231250    1.539618    0.696048
     29          6           0       10.260101    0.071732    1.315185
     30          6           0        8.860792   -0.424624    1.001357
     31          6           0       11.195093    1.948460   -0.440389
     32          6           0       10.488047   -0.004262    2.800753
     33          6           0        9.455007    0.704084    3.762266
     34          7           0        6.194750   -1.656178    0.222369
     35          6           0        7.282524   -2.367605    0.589238
     36          6           0        6.955094   -3.804375    0.487531
     37          6           0        5.657484   -3.852546    0.012011
     38          6           0        5.241021   -2.494023   -0.188073
     39          6           0        7.814085   -5.014061    0.800666
     40          6           0        4.507022   -4.702565   -0.176472
     41          8           0        4.328140   -5.882118    0.011151
     42          6           0        3.376398   -3.796771   -0.838705
     43          6           0        2.177829   -4.132124   -0.073756
     44          8           0        2.013685   -3.989261    1.134282
     45          8           0        1.302582   -4.701682   -1.009026
     46          6           0        0.243757   -5.440409   -0.253307
     47          6           0       -3.878090   -1.633553    0.413925
     48          6           0       -5.233458   -1.288587   -0.148794
     49          6           0       -6.316151   -2.072513   -0.341782
     50          6           0       -6.219892   -3.598060   -0.106754
     51          6           0       -7.623945   -1.427186   -0.879988
     52          6           0       -8.742633   -1.267416    0.128630
     53          6           0       -8.471504   -0.031911    1.035625
     54          6           0       -9.594577    0.992021    0.765273
     55          6           0       -9.144787    2.069099   -0.340220
     56          6           0       -9.932672    1.616330    2.112298
     57          6           0      -11.237910    2.560452    2.064358
     58          6           0      -12.325787    2.120160    3.041207
     59          6           0      -13.669044    1.911666    2.338978
     60          6           0      -14.840021    1.890030    3.407755
     61          6           0      -13.735057    0.648421    1.427115
     62          6           0      -14.426173    0.959505    0.141770
     63          6           0      -13.427504    1.386027   -1.048922
     64          6           0      -13.189597    0.320613   -2.139631
     65          6           0      -11.773002    0.301801   -2.589248
     66          6           0      -14.143667    0.631895   -3.361037
     67          1           0        2.751158    3.154756   -1.385682
     68          1           0        8.950176    3.788039   -0.091769
     69          1           0        9.329297   -2.513346    1.241971
     70          1           0        1.679180   -1.418755   -2.500286
     71          1           0        1.141005    1.145635   -1.790959
     72          1           0        1.393777    1.332944   -4.186795
     73          1           0        2.563500   -0.033915   -4.176365
     74          1           0        3.141584    1.447260   -3.787438
     75          1           0        0.352511   -0.160053   -0.148986
     76          1           0        1.251822   -1.654369    0.180702
     77          1           0       -0.409304   -2.643948   -1.700364
     78          1           0       -0.821779   -0.871767   -1.829965
     79          1           0        4.230807    5.722181   -2.375837
     80          1           0        4.080851    6.610506   -0.776419
     81          1           0        3.025182    5.324935   -1.119045
     82          1           0        5.873252    7.601923   -0.004387
     83          1           0        6.383012    7.316811   -1.678180
     84          1           0        7.509328    8.050613   -0.724546
     85          1           0       10.306091    2.218079    1.546403
     86          1           0       11.132988   -0.404823    0.869264
     87          1           0       10.638188    2.409198   -1.255664
     88          1           0       11.563485    1.004554   -0.843029
     89          1           0       11.906784    2.639330    0.012362
     90          1           0       11.413654    0.564990    2.882620
     91          1           0       10.719675   -1.007686    3.157578
     92          1           0        8.905562    0.042935    4.433235
     93          1           0        8.678899    1.279326    3.258105
     94          1           0        9.966716    1.369354    4.457500
     95          1           0        8.697314   -4.720730    1.366764
     96          1           0        8.144665   -5.301028   -0.197649
     97          1           0        7.310810   -5.767991    1.405681
     98          1           0        3.407471   -4.157985   -1.867231
     99          1           0        0.692499   -6.394851    0.024246
    100          1           0       -0.590247   -5.576656   -0.942150
    101          1           0       -0.217829   -4.872463    0.554229
    102          1           0       -3.637304   -0.863989    1.148232
    103          1           0       -4.012809   -2.566118    0.961508
    104          1           0       -5.322259   -0.219613   -0.344623
    105          1           0       -5.588854   -3.871301    0.738445
    106          1           0       -5.800285   -3.958076   -1.046864
    107          1           0       -7.183422   -4.056310    0.114406
    108          1           0       -7.936028   -2.098773   -1.679795
    109          1           0       -7.384548   -0.507234   -1.414180
    110          1           0       -8.952918   -2.074697    0.829623
    111          1           0       -9.643243   -1.193070   -0.481038
    112          1           0       -7.553430    0.447425    0.693791
    113          1           0       -8.398389   -0.329591    2.080842
    114          1           0      -10.535865    0.669990    0.319822
    115          1           0       -9.846973    2.122001   -1.172816
    116          1           0       -8.152733    1.909750   -0.762954
    117          1           0       -8.985198    3.076633    0.045261
    118          1           0       -9.134011    2.309109    2.377759
    119          1           0      -10.127868    0.780148    2.783423
    120          1           0      -11.657401    2.578816    1.059122
    121          1           0      -10.935336    3.535822    2.446759
    122          1           0      -12.388958    2.932286    3.765560
    123          1           0      -12.085161    1.158370    3.492666
    124          1           0      -13.788681    2.880015    1.852397
    125          1           0      -15.285813    2.868113    3.585250
    126          1           0      -14.530114    1.616363    4.416808
    127          1           0      -15.629825    1.278792    2.972413
    128          1           0      -14.276187   -0.155502    1.926386
    129          1           0      -12.711250    0.356530    1.194106
    130          1           0      -15.166117    1.737204    0.327935
    131          1           0      -14.981997    0.082948   -0.191042
    132          1           0      -12.510412    1.668333   -0.533596
    133          1           0      -13.778447    2.340674   -1.438712
    134          1           0      -13.349171   -0.741603   -1.952103
    135          1           0      -11.168107    1.151148   -2.270169
    136          1           0      -11.741172    0.348996   -3.677533
    137          1           0      -11.360917   -0.630235   -2.202369
    138          1           0      -14.374174   -0.290395   -3.892986
    139          1           0      -13.755067    1.395845   -4.033980
    140          1           0      -15.005194    0.947957   -2.772730
 ---------------------------------------------------------------------

 SCF Done:  E(RwB97XD) =  -3007.85401580     A.U. after   20 cycles

 Excitation energies and oscillator strengths:

 Excited State   1:      Singlet-A      1.6350 eV  758.33 nm  f=0.3758  <S**2>=0.000
     245 -> 248       -0.19540
     246 -> 247        0.68130
     245 <- 248       -0.12032
 This state for optimization and/or second-order correction.
 Total Energy, E(TD-HF/TD-DFT) =  -3007.79393165
 Copying the excited state density for this state as the 1-particle RhoCI density.

 Excited State   2:      Singlet-A      2.1630 eV  573.21 nm  f=0.0774  <S**2>=0.000
     245 -> 247        0.62496
     246 -> 248        0.32184

 Excited State   3:      Singlet-A      3.4686 eV  357.45 nm  f=0.6833  <S**2>=0.000
     241 -> 247        0.17834
     245 -> 247       -0.29760
     246 -> 248        0.60399
     245 <- 247        0.11754

 Excited State   4:      Singlet-A      3.6231 eV  342.21 nm  f=0.0045  <S**2>=0.000
     241 -> 247        0.10791
     244 -> 247        0.64659

 Excited State   5:      Singlet-A      3.6868 eV  336.30 nm  f=0.0159  <S**2>=0.000
     239 -> 247        0.12845
     240 -> 249       -0.11714
     241 -> 247        0.13734
     241 -> 249        0.18160
     241 -> 250       -0.14097
     242 -> 247        0.36101
     242 -> 249        0.11305
     242 -> 250       -0.14955
     243 -> 247        0.37601
     243 -> 249        0.11644
     243 -> 250       -0.14908

 The electronic state is 1-A.
 Alpha  occ. eigenvalues --  -46.96006 -19.30475 -19.29679 -19.24783 -19.24471
 Alpha  occ. eigenvalues --  -19.24216 -19.23819 -14.46684 -14.46568 -14.44388
 Alpha  occ. eigenvalues --  -14.43767 -10.43219 -10.42450 -10.39923 -10.38574
 Alpha  occ. eigenvalues --  -10.35323 -10.35258 -10.35154 -10.34690 -10.34515
 Alpha  occ. eigenvalues --  -10.34338 -10.34138 -10.33983 -10.33773 -10.33030
 Alpha  occ. eigenvalues --  -10.32709 -10.32355 -10.32349 -10.32037 -10.32035
 Alpha  occ. eigenvalues --  -10.32020 -10.31744 -10.31733 -10.31729 -10.31491
 Alpha  occ. eigenvalues --  -10.31346 -10.31225 -10.31214 -10.31204 -10.30808
 Alpha  occ. eigenvalues --  -10.30473 -10.30343 -10.30090 -10.30079 -10.29913
 Alpha  occ. eigenvalues --  -10.29895 -10.29869 -10.29842 -10.29769 -10.29646
 Alpha  occ. eigenvalues --  -10.29362 -10.29336 -10.29299 -10.29079 -10.29052
 Alpha  occ. eigenvalues --  -10.28728 -10.28728 -10.28715 -10.28635 -10.28613
 Alpha  occ. eigenvalues --  -10.28601 -10.28399 -10.28349 -10.28128 -10.27921
 Alpha  occ. eigenvalues --  -10.27817  -3.21823  -1.95404  -1.94917  -1.94800
 Alpha  occ. eigenvalues --   -1.18810  -1.16688  -1.12558  -1.12058  -1.09044
 Alpha  occ. eigenvalues --   -1.08524  -1.06489  -1.05804  -1.05315  -1.04332
 Alpha  occ. eigenvalues --   -0.93013  -0.92296  -0.91727  -0.90931  -0.90617
 Alpha  occ. eigenvalues --   -0.90389  -0.89977  -0.89613  -0.89468  -0.89030
 Alpha  occ. eigenvalues --   -0.88148  -0.87573  -0.86241  -0.85192  -0.85077
 Alpha  occ. eigenvalues --   -0.84498  -0.84015  -0.82770  -0.82214  -0.81814
 Alpha  occ. eigenvalues --   -0.81184  -0.80279  -0.79834  -0.78865  -0.77768
 Alpha  occ. eigenvalues --   -0.77476  -0.77346  -0.76927  -0.76512  -0.76166
 Alpha  occ. eigenvalues --   -0.75169  -0.74264  -0.73476  -0.72318  -0.71797
 Alpha  occ. eigenvalues --   -0.70434  -0.70261  -0.68844  -0.68282  -0.67232
 Alpha  occ. eigenvalues --   -0.66834  -0.66699  -0.66140  -0.65771  -0.65489
 Alpha  occ. eigenvalues --   -0.65274  -0.64960  -0.64192  -0.63074  -0.62336
 Alpha  occ. eigenvalues --   -0.61898  -0.61441  -0.60821  -0.60375  -0.59457
 Alpha  occ. eigenvalues --   -0.59330  -0.59139  -0.58422  -0.57907  -0.57430
 Alpha  occ. eigenvalues --   -0.57324  -0.57006  -0.56759  -0.56187  -0.56026
 Alpha  occ. eigenvalues --   -0.55824  -0.55403  -0.55181  -0.55108  -0.54477
 Alpha  occ. eigenvalues --   -0.54381  -0.54342  -0.54042  -0.53642  -0.53560
 Alpha  occ. eigenvalues --   -0.53415  -0.53269  -0.53193  -0.53062  -0.52872
 Alpha  occ. eigenvalues --   -0.52200  -0.52023  -0.51708  -0.51599  -0.51414
 Alpha  occ. eigenvalues --   -0.51245  -0.51070  -0.50966  -0.50689  -0.50401
 Alpha  occ. eigenvalues --   -0.50367  -0.50216  -0.50107  -0.49956  -0.49586
 Alpha  occ. eigenvalues --   -0.49280  -0.49091  -0.48932  -0.48760  -0.48345
 Alpha  occ. eigenvalues --   -0.48316  -0.47999  -0.47724  -0.47570  -0.47314
 Alpha  occ. eigenvalues --   -0.47128  -0.47050  -0.46830  -0.46767  -0.46701
 Alpha  occ. eigenvalues --   -0.46461  -0.46231  -0.46029  -0.45727  -0.45550
 Alpha  occ. eigenvalues --   -0.45412  -0.44995  -0.44856  -0.44768  -0.44715
 Alpha  occ. eigenvalues --   -0.44417  -0.44071  -0.44040  -0.43921  -0.43786
 Alpha  occ. eigenvalues --   -0.43747  -0.43554  -0.43301  -0.43010  -0.42979
 Alpha  occ. eigenvalues --   -0.42790  -0.42395  -0.42155  -0.42106  -0.42005
 Alpha  occ. eigenvalues --   -0.41757  -0.41591  -0.40948  -0.40471  -0.40338
 Alpha  occ. eigenvalues --   -0.40106  -0.40064  -0.39651  -0.39587  -0.38953
 Alpha  occ. eigenvalues --   -0.38906  -0.38763  -0.38398  -0.38271  -0.38174
 Alpha  occ. eigenvalues --   -0.37831  -0.37317  -0.37128  -0.36342  -0.36015
 Alpha  occ. eigenvalues --   -0.35736  -0.35377  -0.34855  -0.33548  -0.33263
 Alpha  occ. eigenvalues --   -0.32676  -0.32476  -0.32423  -0.32103  -0.25652
 Alpha  occ. eigenvalues --   -0.22512
 Alpha virt. eigenvalues --   -0.06542   0.00185   0.02315   0.04433   0.05270
 Alpha virt. eigenvalues --    0.06531   0.07088   0.07575   0.08056   0.09592
 Alpha virt. eigenvalues --    0.10293   0.11711   0.12137   0.12377   0.12735

 Mulliken charges:
               1
     1  Mg   0.968857
     2  C    0.006970
     3  C   -0.087841
     4  C   -0.061268
     5  C   -0.075192
     6  N   -0.357813
     7  C   -0.006228
     8  C   -0.032056
     9  C   -0.127690
    10  C    0.070671
    11  C    0.038786
    12  C   -0.028558
    13  C   -0.000115
    14  C    0.214543
    15  O   -0.294346
    16  O   -0.335941
    17  N   -0.415282
    18  C    0.115965
    19  C   -0.150559
    20  C   -0.117837
    21  C    0.149407
    22  C    0.072935
    23  C    0.089499
    24  O   -0.239958
    25  C   -0.021458
    26  N   -0.366455
    27  C    0.031902
    28  C   -0.111871
    29  C   -0.069395
    30  C    0.075456
    31  C    0.056448
    32  C   -0.016146
    33  C   -0.071137
    34  N   -0.393754
    35  C    0.119866
    36  C   -0.216005
    37  C   -0.013595
    38  C    0.095827
    39  C    0.087772
    40  C    0.111785
    41  O   -0.196733
    42  C   -0.079087
    43  C    0.288651
    44  O   -0.241174
    45  O   -0.390430
    46  C    0.114669
    47  C    0.271878
    48  C   -0.153819
    49  C   -0.197225
    50  C    0.018662
    51  C    0.033539
    52  C   -0.011977
    53  C    0.042582
    54  C   -0.213515
    55  C   -0.020624
    56  C    0.016189
    57  C   -0.025776
    58  C    0.006216
    59  C   -0.218373
    60  C    0.001434
    61  C    0.038048
    62  C   -0.030895
    63  C    0.025346
    64  C   -0.223750
    65  C    0.023570
    66  C   -0.012211
    67  H   -0.015410
    68  H    0.023547
    69  H    0.001771
    70  H    0.032269
    71  H    0.031769
    72  H    0.050887
    73  H    0.029838
    74  H    0.030904
    75  H    0.033455
    76  H    0.070961
    77  H    0.075143
    78  H    0.046297
    79  H    0.072661
    80  H    0.036320
    81  H    0.039762
    82  H    0.081292
    83  H    0.038065
    84  H    0.047591
    85  H    0.042165
    86  H    0.022298
    87  H    0.043961
    88  H    0.033011
    89  H    0.054742
    90  H    0.024602
    91  H    0.039843
    92  H    0.036906
    93  H    0.046367
    94  H    0.036191
    95  H    0.019715
    96  H    0.062684
    97  H    0.073589
    98  H    0.074569
    99  H    0.072533
   100  H    0.037367
   101  H    0.081073
   102  H    0.037245
   103  H    0.024546
   104  H    0.015866
   105  H    0.046342
   106  H    0.064496
   107  H    0.035399
   108  H    0.014920
   109  H    0.025773
   110  H    0.025044
   111  H    0.022761
   112  H    0.017214
   113  H    0.027167
   114  H    0.023830
   115  H    0.026031
   116  H    0.017328
   117  H    0.019865
   118  H    0.022392
   119  H    0.025014
   120  H    0.021605
   121  H    0.018755
   122  H    0.018063
   123  H    0.014515
   124  H    0.019168
   125  H    0.017903
   126  H    0.030361
   127  H    0.022801
   128  H    0.026798
   129  H    0.007277
   130  H    0.019484
   131  H    0.015755
   132  H   -0.018966
   133  H    0.021109
   134  H    0.023399
   135  H    0.008526
   136  H    0.015784
   137  H    0.036791
   138  H    0.031039
   139  H    0.039136
   140  H    0.029341
 Sum of Mulliken charges =  -0.00000

 Dipole moment (field-independent basis, Debye):
    X=             -2.3627    Y=              3.9963    Z=             -3.1727  Tot=              5.6230
 Quadrupole moment (field-independent basis, Debye-Ang):
   XX=           -365.6378   YY=           -413.1876   ZZ=           -402.5902
   XY=              3.2782   XZ=              1.0249   YZ=             -1.4195

 Normal termination of Gaussian 16 at Thu Apr 28 04:11:35 2022.
