 Gaussian 16, Revision A.03,
 Gaussian 16:  ES64L-G16RevA.03 25-Dec-2016

 --------------------
 #p ZINDO=(nstates=5)
 --------------------

 -----------------------------
 step_1451_chromophore_1 ZINDO
 -----------------------------
 Symbolic Z-matrix:
 Charge =  0 Multiplicity = 1

                         Standard orientation:
 ---------------------------------------------------------------------
 Center     Atomic      Atomic             Coordinates (Angstroms)
 Number     Number       Type             X           Y           Z
 ---------------------------------------------------------------------
      1         12           0        5.899713    0.435150    0.194327
      2          6           0        3.968810   -2.282653   -0.775711
      3          6           0        3.605748    2.517449   -1.149037
      4          6           0        8.204192    3.006380    0.069700
      5          6           0        8.527933   -1.808477    1.008054
      6          7           0        4.112901    0.094093   -1.045686
      7          6           0        3.386585   -1.049078   -1.122173
      8          6           0        1.987541   -0.793227   -1.663081
      9          6           0        2.064195    0.668389   -2.118760
     10          6           0        3.347964    1.164142   -1.461783
     11          6           0        2.228102    0.866864   -3.662426
     12          6           0        0.774563   -1.059859   -0.597992
     13          6           0       -0.537860   -1.696303   -1.176031
     14          6           0       -1.612121   -1.941977   -0.168920
     15          8           0       -1.403453   -2.336729    1.004018
     16          8           0       -2.874120   -1.666681   -0.606511
     17          7           0        5.756936    2.527771   -0.155298
     18          6           0        4.753310    3.220701   -0.687488
     19          6           0        4.999790    4.678184   -0.739996
     20          6           0        6.375183    4.749305   -0.383421
     21          6           0        6.846286    3.374544   -0.091073
     22          6           0        4.046941    5.657285   -1.304005
     23          6           0        7.336022    6.006276   -0.294856
     24          8           0        8.440024    6.049947    0.262352
     25          6           0        6.710936    7.312689   -0.639436
     26          7           0        8.038476    0.595285    0.593173
     27          6           0        8.765965    1.740684    0.330711
     28          6           0       10.231250    1.539618    0.696048
     29          6           0       10.260101    0.071732    1.315185
     30          6           0        8.860792   -0.424624    1.001357
     31          6           0       11.195093    1.948460   -0.440389
     32          6           0       10.488047   -0.004262    2.800753
     33          6           0        9.455007    0.704084    3.762266
     34          7           0        6.194750   -1.656178    0.222369
     35          6           0        7.282524   -2.367605    0.589238
     36          6           0        6.955094   -3.804375    0.487531
     37          6           0        5.657484   -3.852546    0.012011
     38          6           0        5.241021   -2.494023   -0.188073
     39          6           0        7.814085   -5.014061    0.800666
     40          6           0        4.507022   -4.702565   -0.176472
     41          8           0        4.328140   -5.882118    0.011151
     42          6           0        3.376398   -3.796771   -0.838705
     43          6           0        2.177829   -4.132124   -0.073756
     44          8           0        2.013685   -3.989261    1.134282
     45          8           0        1.302582   -4.701682   -1.009026
     46          6           0        0.243757   -5.440409   -0.253307
     47          6           0       -3.878090   -1.633553    0.413925
     48          6           0       -5.233458   -1.288587   -0.148794
     49          6           0       -6.316151   -2.072513   -0.341782
     50          6           0       -6.219892   -3.598060   -0.106754
     51          6           0       -7.623945   -1.427186   -0.879988
     52          6           0       -8.742633   -1.267416    0.128630
     53          6           0       -8.471504   -0.031911    1.035625
     54          6           0       -9.594577    0.992021    0.765273
     55          6           0       -9.144787    2.069099   -0.340220
     56          6           0       -9.932672    1.616330    2.112298
     57          6           0      -11.237910    2.560452    2.064358
     58          6           0      -12.325787    2.120160    3.041207
     59          6           0      -13.669044    1.911666    2.338978
     60          6           0      -14.840021    1.890030    3.407755
     61          6           0      -13.735057    0.648421    1.427115
     62          6           0      -14.426173    0.959505    0.141770
     63          6           0      -13.427504    1.386027   -1.048922
     64          6           0      -13.189597    0.320613   -2.139631
     65          6           0      -11.773002    0.301801   -2.589248
     66          6           0      -14.143667    0.631895   -3.361037
     67          1           0        2.751158    3.154756   -1.385682
     68          1           0        8.950176    3.788039   -0.091769
     69          1           0        9.329297   -2.513346    1.241971
     70          1           0        1.679180   -1.418755   -2.500286
     71          1           0        1.141005    1.145635   -1.790959
     72          1           0        1.393777    1.332944   -4.186795
     73          1           0        2.563500   -0.033915   -4.176365
     74          1           0        3.141584    1.447260   -3.787438
     75          1           0        0.352511   -0.160053   -0.148986
     76          1           0        1.251822   -1.654369    0.180702
     77          1           0       -0.409304   -2.643948   -1.700364
     78          1           0       -0.821779   -0.871767   -1.829965
     79          1           0        4.230807    5.722181   -2.375837
     80          1           0        4.080851    6.610506   -0.776419
     81          1           0        3.025182    5.324935   -1.119045
     82          1           0        5.873252    7.601923   -0.004387
     83          1           0        6.383012    7.316811   -1.678180
     84          1           0        7.509328    8.050613   -0.724546
     85          1           0       10.306091    2.218079    1.546403
     86          1           0       11.132988   -0.404823    0.869264
     87          1           0       10.638188    2.409198   -1.255664
     88          1           0       11.563485    1.004554   -0.843029
     89          1           0       11.906784    2.639330    0.012362
     90          1           0       11.413654    0.564990    2.882620
     91          1           0       10.719675   -1.007686    3.157578
     92          1           0        8.905562    0.042935    4.433235
     93          1           0        8.678899    1.279326    3.258105
     94          1           0        9.966716    1.369354    4.457500
     95          1           0        8.697314   -4.720730    1.366764
     96          1           0        8.144665   -5.301028   -0.197649
     97          1           0        7.310810   -5.767991    1.405681
     98          1           0        3.407471   -4.157985   -1.867231
     99          1           0        0.692499   -6.394851    0.024246
    100          1           0       -0.590247   -5.576656   -0.942150
    101          1           0       -0.217829   -4.872463    0.554229
    102          1           0       -3.637304   -0.863989    1.148232
    103          1           0       -4.012809   -2.566118    0.961508
    104          1           0       -5.322259   -0.219613   -0.344623
    105          1           0       -5.588854   -3.871301    0.738445
    106          1           0       -5.800285   -3.958076   -1.046864
    107          1           0       -7.183422   -4.056310    0.114406
    108          1           0       -7.936028   -2.098773   -1.679795
    109          1           0       -7.384548   -0.507234   -1.414180
    110          1           0       -8.952918   -2.074697    0.829623
    111          1           0       -9.643243   -1.193070   -0.481038
    112          1           0       -7.553430    0.447425    0.693791
    113          1           0       -8.398389   -0.329591    2.080842
    114          1           0      -10.535865    0.669990    0.319822
    115          1           0       -9.846973    2.122001   -1.172816
    116          1           0       -8.152733    1.909750   -0.762954
    117          1           0       -8.985198    3.076633    0.045261
    118          1           0       -9.134011    2.309109    2.377759
    119          1           0      -10.127868    0.780148    2.783423
    120          1           0      -11.657401    2.578816    1.059122
    121          1           0      -10.935336    3.535822    2.446759
    122          1           0      -12.388958    2.932286    3.765560
    123          1           0      -12.085161    1.158370    3.492666
    124          1           0      -13.788681    2.880015    1.852397
    125          1           0      -15.285813    2.868113    3.585250
    126          1           0      -14.530114    1.616363    4.416808
    127          1           0      -15.629825    1.278792    2.972413
    128          1           0      -14.276187   -0.155502    1.926386
    129          1           0      -12.711250    0.356530    1.194106
    130          1           0      -15.166117    1.737204    0.327935
    131          1           0      -14.981997    0.082948   -0.191042
    132          1           0      -12.510412    1.668333   -0.533596
    133          1           0      -13.778447    2.340674   -1.438712
    134          1           0      -13.349171   -0.741603   -1.952103
    135          1           0      -11.168107    1.151148   -2.270169
    136          1           0      -11.741172    0.348996   -3.677533
    137          1           0      -11.360917   -0.630235   -2.202369
    138          1           0      -14.374174   -0.290395   -3.892986
    139          1           0      -13.755067    1.395845   -4.033980
    140          1           0      -15.005194    0.947957   -2.772730
 ---------------------------------------------------------------------

 SCF Done:  E(RZINDO/S) =  -474.125400056     A.U. after   20 cycles

 Excitation energies and oscillator strengths:

 Excited State   1:      Singlet-A      1.2269 eV 1010.59 nm  f=0.6002  <S**2>=0.000
     175 ->178        -0.20125
     176 ->177         0.66065
 This state for optimization and/or second-order correction.
 Total Energy, E(CIS/TDA) =  -474.080314031
 Copying the excited state density for this state as the 1-particle RhoCI density.

 Excited State   2:      Singlet-A      1.8734 eV  661.80 nm  f=0.0090  <S**2>=0.000
     175 ->177         0.51219
     176 ->178         0.46693

 Excited State   3:      Singlet-A      2.8798 eV  430.53 nm  f=0.1052  <S**2>=0.000
     168 ->177        -0.13518
     168 ->179         0.25790
     168 ->180        -0.10635
     168 ->181         0.10856
     168 ->185        -0.11898
     175 ->177        -0.14459
     176 ->178         0.18266
     176 ->179         0.50062

 Excited State   4:      Singlet-A      2.9457 eV  420.91 nm  f=0.0949  <S**2>=0.000
     168 ->179        -0.16564
     175 ->177         0.12663
     176 ->178        -0.14221
     176 ->179         0.17581
     176 ->180         0.52246
     176 ->181         0.29090

 Excited State   5:      Singlet-A      2.9827 eV  415.68 nm  f=0.1075  <S**2>=0.000
     168 ->177        -0.18603
     168 ->178         0.10105
     168 ->179         0.33515
     168 ->180        -0.14060
     168 ->181         0.15419
     168 ->185        -0.15424
     175 ->177         0.13740
     176 ->178        -0.16594
     176 ->179        -0.32192
     176 ->180         0.19028
     176 ->181         0.16063

 The electronic state is 1-A.
 Alpha  occ. eigenvalues --   -1.83857  -1.80716  -1.79790  -1.73880  -1.72062
 Alpha  occ. eigenvalues --   -1.70989  -1.67461  -1.60509  -1.58021  -1.57799
 Alpha  occ. eigenvalues --   -1.55941  -1.50995  -1.47563  -1.46332  -1.44824
 Alpha  occ. eigenvalues --   -1.43383  -1.41221  -1.39794  -1.38565  -1.38284
 Alpha  occ. eigenvalues --   -1.35696  -1.33311  -1.33211  -1.31920  -1.28113
 Alpha  occ. eigenvalues --   -1.26542  -1.24013  -1.22293  -1.20359  -1.17711
 Alpha  occ. eigenvalues --   -1.17384  -1.17019  -1.15007  -1.14653  -1.13575
 Alpha  occ. eigenvalues --   -1.11589  -1.11023  -1.10102  -1.04559  -1.03836
 Alpha  occ. eigenvalues --   -1.02899  -1.00247  -0.98875  -0.97869  -0.97370
 Alpha  occ. eigenvalues --   -0.96292  -0.93689  -0.92518  -0.92075  -0.91182
 Alpha  occ. eigenvalues --   -0.89985  -0.89693  -0.88474  -0.87842  -0.86630
 Alpha  occ. eigenvalues --   -0.85250  -0.83730  -0.82696  -0.81946  -0.80253
 Alpha  occ. eigenvalues --   -0.79589  -0.78987  -0.78338  -0.76484  -0.76228
 Alpha  occ. eigenvalues --   -0.75540  -0.74920  -0.74683  -0.74554  -0.74045
 Alpha  occ. eigenvalues --   -0.73497  -0.73035  -0.72166  -0.71783  -0.71076
 Alpha  occ. eigenvalues --   -0.70241  -0.69981  -0.69668  -0.69585  -0.67764
 Alpha  occ. eigenvalues --   -0.67607  -0.67144  -0.66609  -0.66558  -0.65512
 Alpha  occ. eigenvalues --   -0.65001  -0.64705  -0.64491  -0.63938  -0.63165
 Alpha  occ. eigenvalues --   -0.62875  -0.62797  -0.62406  -0.62282  -0.61780
 Alpha  occ. eigenvalues --   -0.61442  -0.60969  -0.60639  -0.60568  -0.59869
 Alpha  occ. eigenvalues --   -0.59709  -0.59346  -0.58937  -0.58404  -0.58201
 Alpha  occ. eigenvalues --   -0.57913  -0.57429  -0.56950  -0.56864  -0.56293
 Alpha  occ. eigenvalues --   -0.56062  -0.55131  -0.54493  -0.54286  -0.54178
 Alpha  occ. eigenvalues --   -0.53971  -0.53908  -0.52882  -0.52671  -0.52503
 Alpha  occ. eigenvalues --   -0.52259  -0.52180  -0.52119  -0.51585  -0.51084
 Alpha  occ. eigenvalues --   -0.50802  -0.50599  -0.50533  -0.50405  -0.49946
 Alpha  occ. eigenvalues --   -0.49830  -0.49405  -0.49073  -0.49004  -0.48846
 Alpha  occ. eigenvalues --   -0.48718  -0.47967  -0.47860  -0.47370  -0.47037
 Alpha  occ. eigenvalues --   -0.46840  -0.46748  -0.46635  -0.46568  -0.46037
 Alpha  occ. eigenvalues --   -0.45618  -0.45481  -0.45194  -0.45091  -0.45083
 Alpha  occ. eigenvalues --   -0.44850  -0.44784  -0.44477  -0.44443  -0.44117
 Alpha  occ. eigenvalues --   -0.43805  -0.43132  -0.42967  -0.42777  -0.42345
 Alpha  occ. eigenvalues --   -0.41335  -0.40885  -0.40803  -0.38496  -0.38353
 Alpha  occ. eigenvalues --   -0.37665  -0.37251  -0.35828  -0.34481  -0.34250
 Alpha  occ. eigenvalues --   -0.33240  -0.32612  -0.32586  -0.32255  -0.26438
 Alpha  occ. eigenvalues --   -0.21170
 Alpha virt. eigenvalues --   -0.08015  -0.02107  -0.00462   0.01228   0.01317
 Alpha virt. eigenvalues --    0.01873   0.02768   0.03015   0.04563   0.04993
 Alpha virt. eigenvalues --    0.06183   0.06995   0.07219   0.08095   0.08369

 Mulliken charges:
               1
     1  Mg   0.433375
     2  C   -0.065541
     3  C   -0.096270
     4  C   -0.061360
     5  C   -0.074558
     6  N   -0.290882
     7  C    0.136860
     8  C    0.000256
     9  C    0.008128
    10  C    0.140162
    11  C   -0.057524
    12  C   -0.035006
    13  C    0.008064
    14  C    0.468291
    15  O   -0.528783
    16  O   -0.257625
    17  N   -0.309850
    18  C    0.129119
    19  C    0.003386
    20  C   -0.049661
    21  C    0.122672
    22  C   -0.033026
    23  C    0.325129
    24  O   -0.508915
    25  C   -0.032212
    26  N   -0.279530
    27  C    0.125435
    28  C   -0.006931
    29  C    0.011651
    30  C    0.124424
    31  C   -0.049274
    32  C   -0.020403
    33  C   -0.058908
    34  N   -0.303005
    35  C    0.094344
    36  C    0.034261
    37  C   -0.060157
    38  C    0.118067
    39  C   -0.039006
    40  C    0.340520
    41  O   -0.516499
    42  C    0.038995
    43  C    0.502626
    44  O   -0.509351
    45  O   -0.282659
    46  C    0.069159
    47  C    0.109535
    48  C   -0.099223
    49  C   -0.008414
    50  C   -0.042351
    51  C   -0.010962
    52  C   -0.029325
    53  C   -0.033429
    54  C   -0.016538
    55  C   -0.073150
    56  C   -0.044871
    57  C   -0.057380
    58  C   -0.037348
    59  C   -0.018769
    60  C   -0.070052
    61  C   -0.022020
    62  C   -0.039410
    63  C   -0.034545
    64  C   -0.012540
    65  C   -0.059958
    66  C   -0.068050
    67  H    0.009266
    68  H    0.045774
    69  H    0.031218
    70  H    0.027429
    71  H    0.030079
    72  H    0.028622
    73  H    0.021372
    74  H    0.019508
    75  H    0.028704
    76  H    0.043896
    77  H    0.055197
    78  H    0.030432
    79  H    0.040378
    80  H    0.028963
    81  H    0.022468
    82  H    0.051298
    83  H    0.021592
    84  H    0.032921
    85  H    0.032344
    86  H    0.027167
    87  H    0.026906
    88  H    0.024630
    89  H    0.033461
    90  H    0.007253
    91  H    0.025459
    92  H    0.018557
    93  H    0.027976
    94  H    0.016001
    95  H    0.015007
    96  H    0.038606
    97  H    0.046843
    98  H    0.053125
    99  H    0.052565
   100  H    0.017627
   101  H    0.061386
   102  H    0.040869
   103  H    0.048692
   104  H    0.018019
   105  H    0.031063
   106  H    0.034707
   107  H    0.020436
   108  H    0.008422
   109  H    0.027820
   110  H    0.022733
   111  H    0.017030
   112  H    0.026734
   113  H    0.026702
   114  H    0.029416
   115  H    0.021101
   116  H    0.014531
   117  H    0.015794
   118  H    0.024924
   119  H    0.026673
   120  H    0.030102
   121  H    0.017170
   122  H    0.017583
   123  H    0.019028
   124  H    0.021449
   125  H    0.010470
   126  H    0.023815
   127  H    0.018150
   128  H    0.022542
   129  H    0.019962
   130  H    0.018423
   131  H    0.010754
   132  H    0.016760
   133  H    0.020571
   134  H    0.029795
   135  H    0.020114
   136  H    0.013880
   137  H    0.015262
   138  H    0.018134
   139  H    0.029377
   140  H    0.017772
 Sum of Mulliken charges =  -0.00000

 Dipole moment (field-independent basis, Debye):
    X=             -2.5994    Y=              5.8265    Z=             -6.9475  Tot=              9.4326
 N-N= 4.269957724267D+03 E-N= 0.000000000000D+00  KE=-9.214619694699D+03
 Leave Link  601 at Thu Apr 28 04:23:52 2022, MaxMem=  6710886400 cpu:               0.8 elap:               0.0
 (Enter /sw/apps/gaussian-16.0/g16/l9999.exe)
 1\1\GINC-BP1-COMPUTE070\SP\RZINDO CIS\STO-3G\C55H74Mg1N4O6\OF15641\28-
 Apr-2022\0\\#p ZINDO=(nstates=5)\\step_1451_chromophore_1 ZINDO\\0,1\M
 g,0,-1.007,16.765,26.715\C,0,-1.885,14.616,29.297\C,0,-1.949,19.395,28
 .612\C,0,-1.267,18.778,23.919\C,0,-0.639,13.948,24.586\N,0,-2.04,16.91
 9,28.653\C,0,-2.091,15.97,29.621\C,0,-2.445,16.565,30.976\C,0,-2.826,1
 8.007,30.622\C,0,-2.302,18.159,29.198\C,0,-4.365,18.288,30.581\C,0,-1.
 258,16.483,32.099\C,0,-1.708,16.194,33.574\C,0,-0.594,16.107,34.564\O,

 Normal termination of Gaussian 16 at Thu Apr 28 04:23:52 2022.
