 Gaussian 16, Revision A.03,
 Gaussian 16:  ES64L-G16RevA.03 25-Dec-2016

 ------------------------------
 #p blyp/Def2SVP td=(nstates=5)
 ------------------------------

 --------------------------------------------------
 step_351_chromophore_16 TDDFT with blyp functional
 --------------------------------------------------
 Symbolic Z-matrix:
 Charge =  0 Multiplicity = 1

                         Standard orientation:
 ---------------------------------------------------------------------
 Center     Atomic      Atomic             Coordinates (Angstroms)
 Number     Number       Type             X           Y           Z
 ---------------------------------------------------------------------
      1         12           0        6.110597    0.562282    0.194835
      2          6           0        3.949129   -2.220056   -0.006991
      3          6           0        3.489593    2.619450   -0.879509
      4          6           0        8.286704    3.166329   -0.092183
      5          6           0        8.761913   -1.536303    0.980169
      6          7           0        3.944266    0.212285   -0.453461
      7          6           0        3.249431   -1.005080   -0.411381
      8          6           0        1.723934   -0.854797   -0.606243
      9          6           0        1.614577    0.670275   -0.965834
     10          6           0        3.098981    1.226021   -0.770211
     11          6           0        0.800405    1.017647   -2.255244
     12          6           0        0.798923   -1.296215    0.636863
     13          6           0       -0.096931   -2.582077    0.505595
     14          6           0       -1.578570   -2.575452    0.903906
     15          8           0       -1.895124   -2.140043    2.033197
     16          8           0       -2.465891   -3.118700   -0.039645
     17          7           0        5.878072    2.566857   -0.398114
     18          6           0        4.768325    3.203236   -0.731862
     19          6           0        4.970367    4.661694   -0.853396
     20          6           0        6.383493    4.801240   -0.821607
     21          6           0        6.896267    3.472960   -0.430433
     22          6           0        3.870288    5.720738   -1.179809
     23          6           0        7.225439    6.023130   -0.977822
     24          8           0        8.491740    6.040465   -0.939505
     25          6           0        6.595967    7.383845   -1.026305
     26          7           0        8.249951    0.768806    0.276025
     27          6           0        8.941057    1.968139    0.215052
     28          6           0       10.387141    1.822410    0.562252
     29          6           0       10.443241    0.350323    1.118173
     30          6           0        9.090553   -0.232816    0.743892
     31          6           0       11.475392    2.175562   -0.511019
     32          6           0       10.611579    0.241220    2.691849
     33          6           0        9.484508    1.059170    3.461190
     34          7           0        6.356395   -1.449455    0.380629
     35          6           0        7.486820   -2.143046    0.751771
     36          6           0        7.160356   -3.532674    0.785283
     37          6           0        5.788542   -3.644757    0.481473
     38          6           0        5.346438   -2.317674    0.286031
     39          6           0        8.077595   -4.677091    1.064348
     40          6           0        4.690468   -4.555418    0.256878
     41          8           0        4.580138   -5.775009    0.146194
     42          6           0        3.448499   -3.590893   -0.082471
     43          6           0        2.904441   -4.028350   -1.385206
     44          8           0        3.159317   -3.570933   -2.502381
     45          8           0        1.912473   -4.975634   -1.115828
     46          6           0        1.240905   -5.588733   -2.238031
     47          6           0       -3.794280   -3.425013    0.454636
     48          6           0       -4.842281   -2.483581   -0.199705
     49          6           0       -6.195477   -2.645330   -0.241613
     50          6           0       -7.020973   -3.768429    0.393789
     51          6           0       -7.043720   -1.648958   -0.988464
     52          6           0       -6.985360   -0.197974   -0.579074
     53          6           0       -8.119253    0.127807    0.480327
     54          6           0       -9.373666    0.730405   -0.172759
     55          6           0       -9.271359    2.197276   -0.649224
     56          6           0      -10.617011    0.416439    0.663278
     57          6           0      -11.756277   -0.359510   -0.147432
     58          6           0      -12.629676    0.547309   -1.079292
     59          6           0      -14.068558    0.053403   -1.434281
     60          6           0      -14.218883   -0.042426   -2.974607
     61          6           0      -15.092161    1.157345   -0.903065
     62          6           0      -15.120365    1.380991    0.640606
     63          6           0      -14.526971    2.752604    1.082888
     64          6           0      -13.671852    2.563434    2.351793
     65          6           0      -12.675887    3.807751    2.493736
     66          6           0      -14.663645    2.540318    3.526852
     67          1           0        2.722386    3.363698   -1.103522
     68          1           0        9.007894    3.986506   -0.073199
     69          1           0        9.578568   -2.203420    1.265832
     70          1           0        1.473481   -1.482989   -1.461293
     71          1           0        0.970218    1.181183   -0.249641
     72          1           0        1.450991    1.413138   -3.034484
     73          1           0        0.022524    1.738297   -2.001866
     74          1           0        0.399050    0.091546   -2.668927
     75          1           0        0.120010   -0.467138    0.838143
     76          1           0        1.448665   -1.304311    1.512235
     77          1           0        0.337334   -3.317676    1.183320
     78          1           0       -0.186611   -3.061717   -0.469517
     79          1           0        3.886201    6.608702   -0.547345
     80          1           0        2.867700    5.294770   -1.139967
     81          1           0        4.037584    6.006516   -2.217821
     82          1           0        5.819553    7.453568   -1.787917
     83          1           0        7.369220    8.111851   -1.271981
     84          1           0        6.154803    7.482293   -0.034907
     85          1           0       10.646025    2.472445    1.399448
     86          1           0       11.113893   -0.257450    0.510515
     87          1           0       12.228900    1.415039   -0.715920
     88          1           0       11.972802    3.099225   -0.214752
     89          1           0       10.988922    2.480482   -1.437907
     90          1           0       11.521237    0.811796    2.875324
     91          1           0       10.695603   -0.781684    3.058298
     92          1           0        8.594913    1.184604    2.843951
     93          1           0        9.858165    2.060029    3.675397
     94          1           0        9.206659    0.462505    4.329838
     95          1           0        8.821004   -4.464808    1.833055
     96          1           0        8.633801   -4.892823    0.152541
     97          1           0        7.455027   -5.459376    1.497642
     98          1           0        2.635435   -3.756079    0.625064
     99          1           0        1.844405   -5.875974   -3.098547
    100          1           0        0.323276   -5.069703   -2.513165
    101          1           0        0.953920   -6.537967   -1.785544
    102          1           0       -4.047632   -3.370050    1.513337
    103          1           0       -3.942298   -4.458245    0.142936
    104          1           0       -4.289757   -1.726311   -0.756943
    105          1           0       -7.974210   -3.404970    0.777738
    106          1           0       -6.484865   -4.310725    1.173062
    107          1           0       -7.273328   -4.450476   -0.417318
    108          1           0       -8.093545   -1.942231   -1.003273
    109          1           0       -6.739592   -1.578640   -2.032790
    110          1           0       -7.168754    0.248203   -1.556436
    111          1           0       -5.936822   -0.073161   -0.306157
    112          1           0       -7.700245    0.792469    1.236061
    113          1           0       -8.265604   -0.842465    0.953602
    114          1           0       -9.357615    0.179413   -1.112928
    115          1           0       -9.302665    2.191229   -1.738423
    116          1           0       -8.296526    2.551148   -0.314135
    117          1           0       -9.937965    2.917164   -0.174246
    118          1           0      -10.913856    1.406217    1.011444
    119          1           0      -10.401784   -0.240434    1.506222
    120          1           0      -12.410816   -0.977765    0.466010
    121          1           0      -11.259766   -1.069753   -0.808269
    122          1           0      -12.041667    0.587208   -1.995020
    123          1           0      -12.658227    1.537498   -0.624429
    124          1           0      -14.269040   -0.945337   -1.048168
    125          1           0      -13.326149   -0.171558   -3.586770
    126          1           0      -14.748007    0.859210   -3.281723
    127          1           0      -14.816911   -0.904564   -3.272467
    128          1           0      -16.093916    0.865596   -1.218663
    129          1           0      -14.854586    2.116909   -1.362325
    130          1           0      -14.625913    0.539422    1.126319
    131          1           0      -16.151025    1.290478    0.982882
    132          1           0      -15.378300    3.402603    1.285662
    133          1           0      -13.961391    3.273474    0.310649
    134          1           0      -13.006721    1.701703    2.289835
    135          1           0      -11.915842    3.627647    3.253941
    136          1           0      -13.299254    4.701233    2.462309
    137          1           0      -12.118493    3.877516    1.559147
    138          1           0      -14.214698    1.950359    4.325952
    139          1           0      -15.568890    1.990808    3.270530
    140          1           0      -14.904741    3.521179    3.935298
 ---------------------------------------------------------------------

 SCF Done:  E(RB-LYP) =  -3007.39849173     A.U. after   22 cycles

 Excitation energies and oscillator strengths:

 Excited State   1:      Singlet-A      1.7783 eV  697.20 nm  f=0.1930  <S**2>=0.000
     244 -> 247        0.33862
     245 -> 247       -0.15613
     245 -> 248        0.16872
     246 -> 247        0.58491
     246 <- 247       -0.12272
 This state for optimization and/or second-order correction.
 Total Energy, E(TD-HF/TD-DFT) =  -3007.33313951
 Copying the excited state density for this state as the 1-particle RhoCI density.

 Excited State   2:      Singlet-A      1.8168 eV  682.44 nm  f=0.1106  <S**2>=0.000
     244 -> 247        0.56271
     245 -> 247       -0.20424
     245 -> 248       -0.10790
     246 -> 247       -0.36142

 Excited State   3:      Singlet-A      1.9925 eV  622.27 nm  f=0.0892  <S**2>=0.000
     244 -> 247        0.25540
     245 -> 247        0.60581
     246 -> 248       -0.22923

 Excited State   4:      Singlet-A      2.0210 eV  613.48 nm  f=0.0006  <S**2>=0.000
     243 -> 247        0.70584

 Excited State   5:      Singlet-A      2.1820 eV  568.21 nm  f=0.0000  <S**2>=0.000
     242 -> 247        0.70710

 The electronic state is 1-A.
 Alpha  occ. eigenvalues --  -46.27666 -18.83441 -18.81616 -18.76874 -18.76693
 Alpha  occ. eigenvalues --  -18.76034 -18.75271 -14.03924 -14.02755 -14.01821
 Alpha  occ. eigenvalues --  -14.01098 -10.04761 -10.03644 -10.00088  -9.99832
 Alpha  occ. eigenvalues --   -9.98272  -9.97523  -9.97271  -9.97108  -9.96715
 Alpha  occ. eigenvalues --   -9.96320  -9.95991  -9.95722  -9.95418  -9.94903
 Alpha  occ. eigenvalues --   -9.94865  -9.94658  -9.94546  -9.94422  -9.94259
 Alpha  occ. eigenvalues --   -9.94210  -9.93976  -9.93849  -9.93639  -9.93506
 Alpha  occ. eigenvalues --   -9.93467  -9.93279  -9.93253  -9.93181  -9.93138
 Alpha  occ. eigenvalues --   -9.92812  -9.92661  -9.92530  -9.92311  -9.92245
 Alpha  occ. eigenvalues --   -9.92200  -9.92161  -9.92102  -9.92071  -9.92070
 Alpha  occ. eigenvalues --   -9.91923  -9.91883  -9.91481  -9.91436  -9.91426
 Alpha  occ. eigenvalues --   -9.91357  -9.91268  -9.91203  -9.91178  -9.91149
 Alpha  occ. eigenvalues --   -9.91126  -9.90988  -9.90971  -9.90741  -9.90656
 Alpha  occ. eigenvalues --   -9.90570  -2.92250  -1.72670  -1.72118  -1.71977
 Alpha  occ. eigenvalues --   -0.97255  -0.96625  -0.91081  -0.89363  -0.89356
 Alpha  occ. eigenvalues --   -0.89246  -0.87044  -0.86608  -0.84905  -0.84613
 Alpha  occ. eigenvalues --   -0.75617  -0.73827  -0.72530  -0.72096  -0.71838
 Alpha  occ. eigenvalues --   -0.71768  -0.71248  -0.70776  -0.70497  -0.70306
 Alpha  occ. eigenvalues --   -0.69903  -0.69126  -0.67755  -0.67436  -0.66673
 Alpha  occ. eigenvalues --   -0.66035  -0.65692  -0.65314  -0.64915  -0.64345
 Alpha  occ. eigenvalues --   -0.64122  -0.62882  -0.62487  -0.61629  -0.60607
 Alpha  occ. eigenvalues --   -0.60419  -0.60032  -0.59942  -0.59432  -0.58598
 Alpha  occ. eigenvalues --   -0.58382  -0.57638  -0.56566  -0.56141  -0.54918
 Alpha  occ. eigenvalues --   -0.54224  -0.53727  -0.53404  -0.52330  -0.51345
 Alpha  occ. eigenvalues --   -0.51145  -0.51022  -0.50501  -0.50271  -0.49890
 Alpha  occ. eigenvalues --   -0.49595  -0.49328  -0.48797  -0.47975  -0.46735
 Alpha  occ. eigenvalues --   -0.46506  -0.45854  -0.45394  -0.45100  -0.44235
 Alpha  occ. eigenvalues --   -0.43697  -0.43281  -0.42837  -0.42306  -0.42027
 Alpha  occ. eigenvalues --   -0.41814  -0.41630  -0.41520  -0.41292  -0.41157
 Alpha  occ. eigenvalues --   -0.40832  -0.40488  -0.40147  -0.40057  -0.39994
 Alpha  occ. eigenvalues --   -0.39785  -0.39700  -0.39577  -0.39412  -0.38866
 Alpha  occ. eigenvalues --   -0.38736  -0.38689  -0.38528  -0.38145  -0.38008
 Alpha  occ. eigenvalues --   -0.37891  -0.37789  -0.37588  -0.37269  -0.37175
 Alpha  occ. eigenvalues --   -0.37046  -0.36885  -0.36637  -0.36354  -0.36203
 Alpha  occ. eigenvalues --   -0.36161  -0.36106  -0.35967  -0.35919  -0.35794
 Alpha  occ. eigenvalues --   -0.35553  -0.35416  -0.35371  -0.34831  -0.34489
 Alpha  occ. eigenvalues --   -0.34302  -0.34241  -0.34118  -0.34020  -0.33877
 Alpha  occ. eigenvalues --   -0.33614  -0.33372  -0.33201  -0.33122  -0.33074
 Alpha  occ. eigenvalues --   -0.32928  -0.32701  -0.32562  -0.32460  -0.32119
 Alpha  occ. eigenvalues --   -0.31996  -0.31896  -0.31617  -0.31565  -0.31464
 Alpha  occ. eigenvalues --   -0.31412  -0.31303  -0.30715  -0.30687  -0.30431
 Alpha  occ. eigenvalues --   -0.30372  -0.30312  -0.30092  -0.29995  -0.29642
 Alpha  occ. eigenvalues --   -0.29542  -0.29515  -0.29499  -0.29311  -0.29231
 Alpha  occ. eigenvalues --   -0.28943  -0.28654  -0.28615  -0.28483  -0.28371
 Alpha  occ. eigenvalues --   -0.28122  -0.27531  -0.27123  -0.26749  -0.26738
 Alpha  occ. eigenvalues --   -0.26207  -0.26157  -0.26055  -0.25463  -0.25105
 Alpha  occ. eigenvalues --   -0.25012  -0.24759  -0.24690  -0.23835  -0.23822
 Alpha  occ. eigenvalues --   -0.23501  -0.22072  -0.21620  -0.21421  -0.21352
 Alpha  occ. eigenvalues --   -0.20864  -0.19706  -0.19014  -0.18299  -0.17151
 Alpha  occ. eigenvalues --   -0.15956
 Alpha virt. eigenvalues --   -0.11687  -0.07003  -0.06764  -0.04932  -0.04066
 Alpha virt. eigenvalues --   -0.03292  -0.02587  -0.02224  -0.01431   0.00040
 Alpha virt. eigenvalues --    0.01010   0.01929   0.02193   0.02557   0.02573

 Mulliken charges:
               1
     1  Mg   0.703316
     2  C    0.038472
     3  C   -0.069338
     4  C   -0.028065
     5  C   -0.088129
     6  N   -0.201978
     7  C   -0.071203
     8  C    0.042583
     9  C   -0.029465
    10  C    0.057875
    11  C    0.116710
    12  C    0.138470
    13  C    0.113370
    14  C    0.068010
    15  O   -0.218481
    16  O   -0.268609
    17  N   -0.218109
    18  C    0.104295
    19  C   -0.158219
    20  C    0.066565
    21  C    0.093482
    22  C    0.152362
    23  C   -0.084760
    24  O   -0.205319
    25  C    0.136153
    26  N   -0.247034
    27  C   -0.002772
    28  C    0.037559
    29  C    0.030738
    30  C    0.020994
    31  C    0.131268
    32  C    0.086782
    33  C    0.038825
    34  N   -0.262650
    35  C    0.138516
    36  C   -0.203794
    37  C    0.102280
    38  C    0.044705
    39  C    0.181564
    40  C   -0.041867
    41  O   -0.129869
    42  C    0.020165
    43  C    0.129686
    44  O   -0.189107
    45  O   -0.284119
    46  C    0.215328
    47  C    0.288412
    48  C   -0.127503
    49  C   -0.098296
    50  C    0.141526
    51  C    0.088659
    52  C    0.076263
    53  C    0.101669
    54  C   -0.088353
    55  C    0.129584
    56  C    0.129921
    57  C    0.031645
    58  C    0.102138
    59  C   -0.052713
    60  C    0.097262
    61  C    0.072060
    62  C    0.088148
    63  C    0.079522
    64  C   -0.109902
    65  C    0.093880
    66  C    0.120666
    67  H   -0.076218
    68  H   -0.051110
    69  H   -0.063693
    70  H   -0.009500
    71  H   -0.018349
    72  H   -0.005638
    73  H   -0.003726
    74  H   -0.005239
    75  H   -0.011464
    76  H   -0.012722
    77  H    0.027118
    78  H   -0.005221
    79  H    0.010623
    80  H   -0.011382
    81  H    0.019703
    82  H   -0.007877
    83  H   -0.000522
    84  H    0.017297
    85  H   -0.023030
    86  H   -0.033884
    87  H    0.000112
    88  H   -0.010068
    89  H   -0.005153
    90  H   -0.019405
    91  H   -0.005057
    92  H    0.009659
    93  H    0.002586
    94  H   -0.000501
    95  H   -0.020386
    96  H    0.012119
    97  H    0.010936
    98  H   -0.002149
    99  H    0.020699
   100  H    0.013850
   101  H    0.004803
   102  H    0.020710
   103  H   -0.001640
   104  H   -0.025870
   105  H   -0.001833
   106  H   -0.011770
   107  H    0.003658
   108  H   -0.047204
   109  H   -0.029676
   110  H   -0.040752
   111  H   -0.034989
   112  H   -0.035377
   113  H   -0.031776
   114  H   -0.042729
   115  H   -0.005124
   116  H   -0.030118
   117  H   -0.009539
   118  H   -0.020886
   119  H   -0.033646
   120  H   -0.031403
   121  H   -0.035230
   122  H   -0.035860
   123  H   -0.026971
   124  H   -0.034234
   125  H   -0.019714
   126  H   -0.018719
   127  H   -0.024983
   128  H   -0.038545
   129  H   -0.023534
   130  H   -0.029835
   131  H   -0.030659
   132  H   -0.035594
   133  H   -0.030347
   134  H   -0.014253
   135  H   -0.006276
   136  H   -0.017392
   137  H   -0.025529
   138  H   -0.030782
   139  H   -0.019609
   140  H   -0.010952
 Sum of Mulliken charges =  -0.00000

 Dipole moment (field-independent basis, Debye):
    X=             -2.7841    Y=              1.9897    Z=              0.9241  Tot=              3.5446
 Quadrupole moment (field-independent basis, Debye-Ang):
   XX=           -383.5668   YY=           -417.0711   ZZ=           -412.8135
   XY=              6.4182   XZ=             27.9777   YZ=              0.4363

 Normal termination of Gaussian 16 at Wed May  4 20:19:15 2022.
