 Gaussian 16, Revision A.03,
 Gaussian 16:  ES64L-G16RevA.03 25-Dec-2016

 -----------------------------------
 #p cam-b3lyp/Def2SVP td=(nstates=5)
 -----------------------------------

 -------------------------------------------------------
 step_351_chromophore_16 TDDFT with cam-b3lyp functional
 -------------------------------------------------------
 Symbolic Z-matrix:
 Charge =  0 Multiplicity = 1

                         Standard orientation:
 ---------------------------------------------------------------------
 Center     Atomic      Atomic             Coordinates (Angstroms)
 Number     Number       Type             X           Y           Z
 ---------------------------------------------------------------------
      1         12           0        6.110597    0.562282    0.194835
      2          6           0        3.949129   -2.220056   -0.006991
      3          6           0        3.489593    2.619450   -0.879509
      4          6           0        8.286704    3.166329   -0.092183
      5          6           0        8.761913   -1.536303    0.980169
      6          7           0        3.944266    0.212285   -0.453461
      7          6           0        3.249431   -1.005080   -0.411381
      8          6           0        1.723934   -0.854797   -0.606243
      9          6           0        1.614577    0.670275   -0.965834
     10          6           0        3.098981    1.226021   -0.770211
     11          6           0        0.800405    1.017647   -2.255244
     12          6           0        0.798923   -1.296215    0.636863
     13          6           0       -0.096931   -2.582077    0.505595
     14          6           0       -1.578570   -2.575452    0.903906
     15          8           0       -1.895124   -2.140043    2.033197
     16          8           0       -2.465891   -3.118700   -0.039645
     17          7           0        5.878072    2.566857   -0.398114
     18          6           0        4.768325    3.203236   -0.731862
     19          6           0        4.970367    4.661694   -0.853396
     20          6           0        6.383493    4.801240   -0.821607
     21          6           0        6.896267    3.472960   -0.430433
     22          6           0        3.870288    5.720738   -1.179809
     23          6           0        7.225439    6.023130   -0.977822
     24          8           0        8.491740    6.040465   -0.939505
     25          6           0        6.595967    7.383845   -1.026305
     26          7           0        8.249951    0.768806    0.276025
     27          6           0        8.941057    1.968139    0.215052
     28          6           0       10.387141    1.822410    0.562252
     29          6           0       10.443241    0.350323    1.118173
     30          6           0        9.090553   -0.232816    0.743892
     31          6           0       11.475392    2.175562   -0.511019
     32          6           0       10.611579    0.241220    2.691849
     33          6           0        9.484508    1.059170    3.461190
     34          7           0        6.356395   -1.449455    0.380629
     35          6           0        7.486820   -2.143046    0.751771
     36          6           0        7.160356   -3.532674    0.785283
     37          6           0        5.788542   -3.644757    0.481473
     38          6           0        5.346438   -2.317674    0.286031
     39          6           0        8.077595   -4.677091    1.064348
     40          6           0        4.690468   -4.555418    0.256878
     41          8           0        4.580138   -5.775009    0.146194
     42          6           0        3.448499   -3.590893   -0.082471
     43          6           0        2.904441   -4.028350   -1.385206
     44          8           0        3.159317   -3.570933   -2.502381
     45          8           0        1.912473   -4.975634   -1.115828
     46          6           0        1.240905   -5.588733   -2.238031
     47          6           0       -3.794280   -3.425013    0.454636
     48          6           0       -4.842281   -2.483581   -0.199705
     49          6           0       -6.195477   -2.645330   -0.241613
     50          6           0       -7.020973   -3.768429    0.393789
     51          6           0       -7.043720   -1.648958   -0.988464
     52          6           0       -6.985360   -0.197974   -0.579074
     53          6           0       -8.119253    0.127807    0.480327
     54          6           0       -9.373666    0.730405   -0.172759
     55          6           0       -9.271359    2.197276   -0.649224
     56          6           0      -10.617011    0.416439    0.663278
     57          6           0      -11.756277   -0.359510   -0.147432
     58          6           0      -12.629676    0.547309   -1.079292
     59          6           0      -14.068558    0.053403   -1.434281
     60          6           0      -14.218883   -0.042426   -2.974607
     61          6           0      -15.092161    1.157345   -0.903065
     62          6           0      -15.120365    1.380991    0.640606
     63          6           0      -14.526971    2.752604    1.082888
     64          6           0      -13.671852    2.563434    2.351793
     65          6           0      -12.675887    3.807751    2.493736
     66          6           0      -14.663645    2.540318    3.526852
     67          1           0        2.722386    3.363698   -1.103522
     68          1           0        9.007894    3.986506   -0.073199
     69          1           0        9.578568   -2.203420    1.265832
     70          1           0        1.473481   -1.482989   -1.461293
     71          1           0        0.970218    1.181183   -0.249641
     72          1           0        1.450991    1.413138   -3.034484
     73          1           0        0.022524    1.738297   -2.001866
     74          1           0        0.399050    0.091546   -2.668927
     75          1           0        0.120010   -0.467138    0.838143
     76          1           0        1.448665   -1.304311    1.512235
     77          1           0        0.337334   -3.317676    1.183320
     78          1           0       -0.186611   -3.061717   -0.469517
     79          1           0        3.886201    6.608702   -0.547345
     80          1           0        2.867700    5.294770   -1.139967
     81          1           0        4.037584    6.006516   -2.217821
     82          1           0        5.819553    7.453568   -1.787917
     83          1           0        7.369220    8.111851   -1.271981
     84          1           0        6.154803    7.482293   -0.034907
     85          1           0       10.646025    2.472445    1.399448
     86          1           0       11.113893   -0.257450    0.510515
     87          1           0       12.228900    1.415039   -0.715920
     88          1           0       11.972802    3.099225   -0.214752
     89          1           0       10.988922    2.480482   -1.437907
     90          1           0       11.521237    0.811796    2.875324
     91          1           0       10.695603   -0.781684    3.058298
     92          1           0        8.594913    1.184604    2.843951
     93          1           0        9.858165    2.060029    3.675397
     94          1           0        9.206659    0.462505    4.329838
     95          1           0        8.821004   -4.464808    1.833055
     96          1           0        8.633801   -4.892823    0.152541
     97          1           0        7.455027   -5.459376    1.497642
     98          1           0        2.635435   -3.756079    0.625064
     99          1           0        1.844405   -5.875974   -3.098547
    100          1           0        0.323276   -5.069703   -2.513165
    101          1           0        0.953920   -6.537967   -1.785544
    102          1           0       -4.047632   -3.370050    1.513337
    103          1           0       -3.942298   -4.458245    0.142936
    104          1           0       -4.289757   -1.726311   -0.756943
    105          1           0       -7.974210   -3.404970    0.777738
    106          1           0       -6.484865   -4.310725    1.173062
    107          1           0       -7.273328   -4.450476   -0.417318
    108          1           0       -8.093545   -1.942231   -1.003273
    109          1           0       -6.739592   -1.578640   -2.032790
    110          1           0       -7.168754    0.248203   -1.556436
    111          1           0       -5.936822   -0.073161   -0.306157
    112          1           0       -7.700245    0.792469    1.236061
    113          1           0       -8.265604   -0.842465    0.953602
    114          1           0       -9.357615    0.179413   -1.112928
    115          1           0       -9.302665    2.191229   -1.738423
    116          1           0       -8.296526    2.551148   -0.314135
    117          1           0       -9.937965    2.917164   -0.174246
    118          1           0      -10.913856    1.406217    1.011444
    119          1           0      -10.401784   -0.240434    1.506222
    120          1           0      -12.410816   -0.977765    0.466010
    121          1           0      -11.259766   -1.069753   -0.808269
    122          1           0      -12.041667    0.587208   -1.995020
    123          1           0      -12.658227    1.537498   -0.624429
    124          1           0      -14.269040   -0.945337   -1.048168
    125          1           0      -13.326149   -0.171558   -3.586770
    126          1           0      -14.748007    0.859210   -3.281723
    127          1           0      -14.816911   -0.904564   -3.272467
    128          1           0      -16.093916    0.865596   -1.218663
    129          1           0      -14.854586    2.116909   -1.362325
    130          1           0      -14.625913    0.539422    1.126319
    131          1           0      -16.151025    1.290478    0.982882
    132          1           0      -15.378300    3.402603    1.285662
    133          1           0      -13.961391    3.273474    0.310649
    134          1           0      -13.006721    1.701703    2.289835
    135          1           0      -11.915842    3.627647    3.253941
    136          1           0      -13.299254    4.701233    2.462309
    137          1           0      -12.118493    3.877516    1.559147
    138          1           0      -14.214698    1.950359    4.325952
    139          1           0      -15.568890    1.990808    3.270530
    140          1           0      -14.904741    3.521179    3.935298
 ---------------------------------------------------------------------

 SCF Done:  E(RCAM-B3LYP) =  -3007.17704042     A.U. after   17 cycles

 Excitation energies and oscillator strengths:

 Excited State   1:      Singlet-A      1.7052 eV  727.07 nm  f=0.3726  <S**2>=0.000
     245 -> 248       -0.18309
     246 -> 247        0.68444
     245 <- 248       -0.10767
 This state for optimization and/or second-order correction.
 Total Energy, E(TD-HF/TD-DFT) =  -3007.11437371
 Copying the excited state density for this state as the 1-particle RhoCI density.

 Excited State   2:      Singlet-A      2.1946 eV  564.94 nm  f=0.1363  <S**2>=0.000
     245 -> 247        0.64860
     246 -> 248        0.27157

 Excited State   3:      Singlet-A      3.4304 eV  361.43 nm  f=0.0116  <S**2>=0.000
     239 -> 247       -0.12547
     239 -> 249        0.12493
     240 -> 247        0.47737
     240 -> 249       -0.35820
     240 -> 251       -0.12761
     242 -> 247        0.13794
     242 -> 249       -0.10868

 Excited State   4:      Singlet-A      3.5380 eV  350.43 nm  f=0.3925  <S**2>=0.000
     243 -> 247       -0.41074
     245 -> 247       -0.20268
     246 -> 248        0.51845

 Excited State   5:      Singlet-A      3.5572 eV  348.54 nm  f=0.2539  <S**2>=0.000
     239 -> 247       -0.14771
     240 -> 247       -0.14364
     242 -> 247        0.19922
     243 -> 247        0.50457
     245 -> 247       -0.15296
     246 -> 248        0.34666

 The electronic state is 1-A.
 Alpha  occ. eigenvalues --  -46.89217 -19.26375 -19.24538 -19.19914 -19.19818
 Alpha  occ. eigenvalues --  -19.19042 -19.18755 -14.43038 -14.41423 -14.40473
 Alpha  occ. eigenvalues --  -14.39343 -10.40227 -10.39185 -10.35368 -10.35365
 Alpha  occ. eigenvalues --  -10.32349 -10.32280 -10.31721 -10.31593 -10.30998
 Alpha  occ. eigenvalues --  -10.30966 -10.30678 -10.30110 -10.29831 -10.29268
 Alpha  occ. eigenvalues --  -10.28983 -10.28725 -10.28685 -10.28527 -10.28416
 Alpha  occ. eigenvalues --  -10.28290 -10.28227 -10.28032 -10.27974 -10.27870
 Alpha  occ. eigenvalues --  -10.27555 -10.27421 -10.27322 -10.27146 -10.27104
 Alpha  occ. eigenvalues --  -10.26491 -10.26487 -10.26267 -10.26228 -10.26199
 Alpha  occ. eigenvalues --  -10.26145 -10.26078 -10.25920 -10.25818 -10.25722
 Alpha  occ. eigenvalues --  -10.25600 -10.25497 -10.25208 -10.25146 -10.25132
 Alpha  occ. eigenvalues --  -10.25071 -10.24943 -10.24924 -10.24898 -10.24806
 Alpha  occ. eigenvalues --  -10.24786 -10.24668 -10.24629 -10.24446 -10.24244
 Alpha  occ. eigenvalues --  -10.24180  -3.17703  -1.92600  -1.92133  -1.92027
 Alpha  occ. eigenvalues --   -1.15653  -1.15123  -1.09303  -1.07940  -1.07282
 Alpha  occ. eigenvalues --   -1.07182  -1.04978  -1.04030  -1.02554  -1.02131
 Alpha  occ. eigenvalues --   -0.92708  -0.90732  -0.89328  -0.88849  -0.88502
 Alpha  occ. eigenvalues --   -0.88463  -0.87820  -0.87720  -0.87070  -0.86816
 Alpha  occ. eigenvalues --   -0.86364  -0.85505  -0.83999  -0.83514  -0.82823
 Alpha  occ. eigenvalues --   -0.82016  -0.81933  -0.81349  -0.80711  -0.80226
 Alpha  occ. eigenvalues --   -0.79930  -0.78871  -0.78078  -0.76995  -0.75968
 Alpha  occ. eigenvalues --   -0.75780  -0.75390  -0.75177  -0.74701  -0.73802
 Alpha  occ. eigenvalues --   -0.73471  -0.72586  -0.71499  -0.71000  -0.69508
 Alpha  occ. eigenvalues --   -0.68862  -0.68306  -0.68064  -0.66706  -0.65545
 Alpha  occ. eigenvalues --   -0.65363  -0.65007  -0.64399  -0.64226  -0.63799
 Alpha  occ. eigenvalues --   -0.63514  -0.63231  -0.62728  -0.61606  -0.60555
 Alpha  occ. eigenvalues --   -0.60024  -0.59340  -0.58905  -0.58436  -0.57785
 Alpha  occ. eigenvalues --   -0.57099  -0.56745  -0.55967  -0.55366  -0.55213
 Alpha  occ. eigenvalues --   -0.54836  -0.54749  -0.54450  -0.54219  -0.53928
 Alpha  occ. eigenvalues --   -0.53917  -0.53295  -0.53091  -0.52840  -0.52679
 Alpha  occ. eigenvalues --   -0.52533  -0.52353  -0.52223  -0.52094  -0.51620
 Alpha  occ. eigenvalues --   -0.51282  -0.51090  -0.50980  -0.50554  -0.50499
 Alpha  occ. eigenvalues --   -0.50288  -0.50016  -0.49823  -0.49747  -0.49605
 Alpha  occ. eigenvalues --   -0.49345  -0.49199  -0.49048  -0.48775  -0.48576
 Alpha  occ. eigenvalues --   -0.48425  -0.48259  -0.48232  -0.48110  -0.47960
 Alpha  occ. eigenvalues --   -0.47787  -0.47614  -0.47285  -0.46801  -0.46422
 Alpha  occ. eigenvalues --   -0.46231  -0.46028  -0.45929  -0.45851  -0.45714
 Alpha  occ. eigenvalues --   -0.45257  -0.45039  -0.44931  -0.44852  -0.44809
 Alpha  occ. eigenvalues --   -0.44774  -0.44442  -0.44336  -0.44146  -0.43897
 Alpha  occ. eigenvalues --   -0.43707  -0.43598  -0.43389  -0.43077  -0.43054
 Alpha  occ. eigenvalues --   -0.42942  -0.42915  -0.42127  -0.41995  -0.41866
 Alpha  occ. eigenvalues --   -0.41728  -0.41682  -0.41571  -0.41406  -0.41168
 Alpha  occ. eigenvalues --   -0.41134  -0.40683  -0.40609  -0.40527  -0.40302
 Alpha  occ. eigenvalues --   -0.40019  -0.39755  -0.39462  -0.39420  -0.39328
 Alpha  occ. eigenvalues --   -0.39139  -0.38380  -0.38077  -0.38025  -0.37481
 Alpha  occ. eigenvalues --   -0.36919  -0.36906  -0.36776  -0.36364  -0.36232
 Alpha  occ. eigenvalues --   -0.36033  -0.35584  -0.35261  -0.34637  -0.34186
 Alpha  occ. eigenvalues --   -0.34075  -0.33634  -0.32860  -0.31602  -0.30940
 Alpha  occ. eigenvalues --   -0.30760  -0.30640  -0.29957  -0.29316  -0.23833
 Alpha  occ. eigenvalues --   -0.21315
 Alpha virt. eigenvalues --   -0.08838  -0.01808  -0.00358   0.01759   0.02023
 Alpha virt. eigenvalues --    0.03656   0.05054   0.05165   0.05785   0.06929
 Alpha virt. eigenvalues --    0.07795   0.08285   0.08419   0.08675   0.08884

 Mulliken charges:
               1
     1  Mg   0.834120
     2  C    0.023525
     3  C   -0.079325
     4  C   -0.052876
     5  C   -0.093794
     6  N   -0.268222
     7  C   -0.028826
     8  C   -0.005831
     9  C   -0.075257
    10  C    0.074212
    11  C    0.058081
    12  C    0.083599
    13  C    0.041922
    14  C    0.156406
    15  O   -0.258475
    16  O   -0.335323
    17  N   -0.308701
    18  C    0.114078
    19  C   -0.154841
    20  C   -0.009525
    21  C    0.124313
    22  C    0.097075
    23  C   -0.004998
    24  O   -0.244804
    25  C    0.056309
    26  N   -0.319324
    27  C    0.021230
    28  C   -0.020702
    29  C   -0.024880
    30  C    0.037312
    31  C    0.074237
    32  C    0.033761
    33  C   -0.019882
    34  N   -0.353655
    35  C    0.139402
    36  C   -0.200686
    37  C    0.016926
    38  C    0.077155
    39  C    0.129294
    40  C    0.059353
    41  O   -0.170104
    42  C   -0.060699
    43  C    0.214514
    44  O   -0.224384
    45  O   -0.346868
    46  C    0.176779
    47  C    0.253864
    48  C   -0.146485
    49  C   -0.127355
    50  C    0.081798
    51  C    0.034612
    52  C    0.019558
    53  C    0.052237
    54  C   -0.139920
    55  C    0.071368
    56  C    0.076995
    57  C   -0.015358
    58  C    0.056042
    59  C   -0.110167
    60  C    0.039882
    61  C    0.021861
    62  C    0.034520
    63  C    0.018780
    64  C   -0.165671
    65  C    0.039280
    66  C    0.060427
    67  H   -0.040437
    68  H   -0.010195
    69  H   -0.028545
    70  H    0.023813
    71  H    0.015744
    72  H    0.020105
    73  H    0.019683
    74  H    0.020030
    75  H    0.019438
    76  H    0.019891
    77  H    0.056097
    78  H    0.025526
    79  H    0.037812
    80  H    0.017472
    81  H    0.046276
    82  H    0.019973
    83  H    0.035899
    84  H    0.043417
    85  H    0.013116
    86  H    0.002354
    87  H    0.024875
    88  H    0.014051
    89  H    0.020961
    90  H    0.008181
    91  H    0.022111
    92  H    0.027855
    93  H    0.023934
    94  H    0.024197
    95  H    0.003716
    96  H    0.037241
    97  H    0.035567
    98  H    0.039309
    99  H    0.044992
   100  H    0.032789
   101  H    0.028564
   102  H    0.051216
   103  H    0.026031
   104  H    0.007078
   105  H    0.020980
   106  H    0.012292
   107  H    0.028639
   108  H   -0.018225
   109  H    0.002173
   110  H   -0.011590
   111  H   -0.004552
   112  H   -0.005817
   113  H   -0.006561
   114  H   -0.014158
   115  H    0.017964
   116  H   -0.004424
   117  H    0.012412
   118  H   -0.000755
   119  H   -0.002436
   120  H   -0.005066
   121  H   -0.009047
   122  H   -0.008985
   123  H   -0.005807
   124  H   -0.002767
   125  H    0.005217
   126  H    0.005196
   127  H    0.000086
   128  H   -0.008012
   129  H    0.003385
   130  H   -0.002980
   131  H   -0.001406
   132  H   -0.004761
   133  H   -0.003314
   134  H    0.012136
   135  H    0.018840
   136  H    0.006403
   137  H   -0.005706
   138  H   -0.004694
   139  H    0.003804
   140  H    0.013509
 Sum of Mulliken charges =  -0.00000

 Dipole moment (field-independent basis, Debye):
    X=             -3.0908    Y=              3.1079    Z=              0.6872  Tot=              4.4367
 Quadrupole moment (field-independent basis, Debye-Ang):
   XX=           -386.1739   YY=           -411.3981   ZZ=           -413.2138
   XY=             12.8888   XZ=             28.0058   YZ=             -0.7990

 Normal termination of Gaussian 16 at Wed May  4 18:55:19 2022.
