 Gaussian 16, Revision A.03,
 Gaussian 16:  ES64L-G16RevA.03 25-Dec-2016

 ---------------------------------
 #p PBE1PBE/Def2SVP td=(nstates=5)
 ---------------------------------

 -----------------------------------------------------
 step_351_chromophore_16 TDDFT with PBE1PBE functional
 -----------------------------------------------------
 Symbolic Z-matrix:
 Charge =  0 Multiplicity = 1

                         Standard orientation:
 ---------------------------------------------------------------------
 Center     Atomic      Atomic             Coordinates (Angstroms)
 Number     Number       Type             X           Y           Z
 ---------------------------------------------------------------------
      1         12           0        6.110597    0.562282    0.194835
      2          6           0        3.949129   -2.220056   -0.006991
      3          6           0        3.489593    2.619450   -0.879509
      4          6           0        8.286704    3.166329   -0.092183
      5          6           0        8.761913   -1.536303    0.980169
      6          7           0        3.944266    0.212285   -0.453461
      7          6           0        3.249431   -1.005080   -0.411381
      8          6           0        1.723934   -0.854797   -0.606243
      9          6           0        1.614577    0.670275   -0.965834
     10          6           0        3.098981    1.226021   -0.770211
     11          6           0        0.800405    1.017647   -2.255244
     12          6           0        0.798923   -1.296215    0.636863
     13          6           0       -0.096931   -2.582077    0.505595
     14          6           0       -1.578570   -2.575452    0.903906
     15          8           0       -1.895124   -2.140043    2.033197
     16          8           0       -2.465891   -3.118700   -0.039645
     17          7           0        5.878072    2.566857   -0.398114
     18          6           0        4.768325    3.203236   -0.731862
     19          6           0        4.970367    4.661694   -0.853396
     20          6           0        6.383493    4.801240   -0.821607
     21          6           0        6.896267    3.472960   -0.430433
     22          6           0        3.870288    5.720738   -1.179809
     23          6           0        7.225439    6.023130   -0.977822
     24          8           0        8.491740    6.040465   -0.939505
     25          6           0        6.595967    7.383845   -1.026305
     26          7           0        8.249951    0.768806    0.276025
     27          6           0        8.941057    1.968139    0.215052
     28          6           0       10.387141    1.822410    0.562252
     29          6           0       10.443241    0.350323    1.118173
     30          6           0        9.090553   -0.232816    0.743892
     31          6           0       11.475392    2.175562   -0.511019
     32          6           0       10.611579    0.241220    2.691849
     33          6           0        9.484508    1.059170    3.461190
     34          7           0        6.356395   -1.449455    0.380629
     35          6           0        7.486820   -2.143046    0.751771
     36          6           0        7.160356   -3.532674    0.785283
     37          6           0        5.788542   -3.644757    0.481473
     38          6           0        5.346438   -2.317674    0.286031
     39          6           0        8.077595   -4.677091    1.064348
     40          6           0        4.690468   -4.555418    0.256878
     41          8           0        4.580138   -5.775009    0.146194
     42          6           0        3.448499   -3.590893   -0.082471
     43          6           0        2.904441   -4.028350   -1.385206
     44          8           0        3.159317   -3.570933   -2.502381
     45          8           0        1.912473   -4.975634   -1.115828
     46          6           0        1.240905   -5.588733   -2.238031
     47          6           0       -3.794280   -3.425013    0.454636
     48          6           0       -4.842281   -2.483581   -0.199705
     49          6           0       -6.195477   -2.645330   -0.241613
     50          6           0       -7.020973   -3.768429    0.393789
     51          6           0       -7.043720   -1.648958   -0.988464
     52          6           0       -6.985360   -0.197974   -0.579074
     53          6           0       -8.119253    0.127807    0.480327
     54          6           0       -9.373666    0.730405   -0.172759
     55          6           0       -9.271359    2.197276   -0.649224
     56          6           0      -10.617011    0.416439    0.663278
     57          6           0      -11.756277   -0.359510   -0.147432
     58          6           0      -12.629676    0.547309   -1.079292
     59          6           0      -14.068558    0.053403   -1.434281
     60          6           0      -14.218883   -0.042426   -2.974607
     61          6           0      -15.092161    1.157345   -0.903065
     62          6           0      -15.120365    1.380991    0.640606
     63          6           0      -14.526971    2.752604    1.082888
     64          6           0      -13.671852    2.563434    2.351793
     65          6           0      -12.675887    3.807751    2.493736
     66          6           0      -14.663645    2.540318    3.526852
     67          1           0        2.722386    3.363698   -1.103522
     68          1           0        9.007894    3.986506   -0.073199
     69          1           0        9.578568   -2.203420    1.265832
     70          1           0        1.473481   -1.482989   -1.461293
     71          1           0        0.970218    1.181183   -0.249641
     72          1           0        1.450991    1.413138   -3.034484
     73          1           0        0.022524    1.738297   -2.001866
     74          1           0        0.399050    0.091546   -2.668927
     75          1           0        0.120010   -0.467138    0.838143
     76          1           0        1.448665   -1.304311    1.512235
     77          1           0        0.337334   -3.317676    1.183320
     78          1           0       -0.186611   -3.061717   -0.469517
     79          1           0        3.886201    6.608702   -0.547345
     80          1           0        2.867700    5.294770   -1.139967
     81          1           0        4.037584    6.006516   -2.217821
     82          1           0        5.819553    7.453568   -1.787917
     83          1           0        7.369220    8.111851   -1.271981
     84          1           0        6.154803    7.482293   -0.034907
     85          1           0       10.646025    2.472445    1.399448
     86          1           0       11.113893   -0.257450    0.510515
     87          1           0       12.228900    1.415039   -0.715920
     88          1           0       11.972802    3.099225   -0.214752
     89          1           0       10.988922    2.480482   -1.437907
     90          1           0       11.521237    0.811796    2.875324
     91          1           0       10.695603   -0.781684    3.058298
     92          1           0        8.594913    1.184604    2.843951
     93          1           0        9.858165    2.060029    3.675397
     94          1           0        9.206659    0.462505    4.329838
     95          1           0        8.821004   -4.464808    1.833055
     96          1           0        8.633801   -4.892823    0.152541
     97          1           0        7.455027   -5.459376    1.497642
     98          1           0        2.635435   -3.756079    0.625064
     99          1           0        1.844405   -5.875974   -3.098547
    100          1           0        0.323276   -5.069703   -2.513165
    101          1           0        0.953920   -6.537967   -1.785544
    102          1           0       -4.047632   -3.370050    1.513337
    103          1           0       -3.942298   -4.458245    0.142936
    104          1           0       -4.289757   -1.726311   -0.756943
    105          1           0       -7.974210   -3.404970    0.777738
    106          1           0       -6.484865   -4.310725    1.173062
    107          1           0       -7.273328   -4.450476   -0.417318
    108          1           0       -8.093545   -1.942231   -1.003273
    109          1           0       -6.739592   -1.578640   -2.032790
    110          1           0       -7.168754    0.248203   -1.556436
    111          1           0       -5.936822   -0.073161   -0.306157
    112          1           0       -7.700245    0.792469    1.236061
    113          1           0       -8.265604   -0.842465    0.953602
    114          1           0       -9.357615    0.179413   -1.112928
    115          1           0       -9.302665    2.191229   -1.738423
    116          1           0       -8.296526    2.551148   -0.314135
    117          1           0       -9.937965    2.917164   -0.174246
    118          1           0      -10.913856    1.406217    1.011444
    119          1           0      -10.401784   -0.240434    1.506222
    120          1           0      -12.410816   -0.977765    0.466010
    121          1           0      -11.259766   -1.069753   -0.808269
    122          1           0      -12.041667    0.587208   -1.995020
    123          1           0      -12.658227    1.537498   -0.624429
    124          1           0      -14.269040   -0.945337   -1.048168
    125          1           0      -13.326149   -0.171558   -3.586770
    126          1           0      -14.748007    0.859210   -3.281723
    127          1           0      -14.816911   -0.904564   -3.272467
    128          1           0      -16.093916    0.865596   -1.218663
    129          1           0      -14.854586    2.116909   -1.362325
    130          1           0      -14.625913    0.539422    1.126319
    131          1           0      -16.151025    1.290478    0.982882
    132          1           0      -15.378300    3.402603    1.285662
    133          1           0      -13.961391    3.273474    0.310649
    134          1           0      -13.006721    1.701703    2.289835
    135          1           0      -11.915842    3.627647    3.253941
    136          1           0      -13.299254    4.701233    2.462309
    137          1           0      -12.118493    3.877516    1.559147
    138          1           0      -14.214698    1.950359    4.325952
    139          1           0      -15.568890    1.990808    3.270530
    140          1           0      -14.904741    3.521179    3.935298
 ---------------------------------------------------------------------

 SCF Done:  E(RPBE1PBE) =  -3005.36605360     A.U. after   15 cycles

 Excitation energies and oscillator strengths:

 Excited State   1:      Singlet-A      1.8454 eV  671.86 nm  f=0.3581  <S**2>=0.000
     245 -> 248       -0.17945
     246 -> 247        0.69138
     246 <- 247       -0.10420
 This state for optimization and/or second-order correction.
 Total Energy, E(TD-HF/TD-DFT) =  -3005.29823637
 Copying the excited state density for this state as the 1-particle RhoCI density.

 Excited State   2:      Singlet-A      2.1953 eV  564.78 nm  f=0.1322  <S**2>=0.000
     245 -> 247        0.65907
     246 -> 248        0.24921

 Excited State   3:      Singlet-A      2.9518 eV  420.03 nm  f=0.0004  <S**2>=0.000
     243 -> 247        0.65804
     243 -> 249       -0.21327

 Excited State   4:      Singlet-A      3.0590 eV  405.30 nm  f=0.0001  <S**2>=0.000
     241 -> 247        0.51115
     241 -> 249        0.11957
     242 -> 247        0.43807

 Excited State   5:      Singlet-A      3.1901 eV  388.65 nm  f=0.0002  <S**2>=0.000
     241 -> 247       -0.44931
     242 -> 247        0.52435

 The electronic state is 1-A.
 Alpha  occ. eigenvalues --  -46.92640 -19.27120 -19.25232 -19.20232 -19.20059
 Alpha  occ. eigenvalues --  -19.19432 -19.18849 -14.42464 -14.41098 -14.39981
 Alpha  occ. eigenvalues --  -14.39110 -10.37323 -10.36211 -10.32644 -10.32336
 Alpha  occ. eigenvalues --  -10.29939 -10.29735 -10.29654 -10.29045 -10.28548
 Alpha  occ. eigenvalues --  -10.28246 -10.28104 -10.27750 -10.27493 -10.27257
 Alpha  occ. eigenvalues --  -10.26834 -10.26580 -10.26490 -10.26090 -10.26004
 Alpha  occ. eigenvalues --  -10.25829 -10.25770 -10.25692 -10.25509 -10.25460
 Alpha  occ. eigenvalues --  -10.25362 -10.25214 -10.25132 -10.24991 -10.24855
 Alpha  occ. eigenvalues --  -10.24101 -10.23920 -10.23896 -10.23888 -10.23782
 Alpha  occ. eigenvalues --  -10.23728 -10.23492 -10.23403 -10.23353 -10.23299
 Alpha  occ. eigenvalues --  -10.23219 -10.23103 -10.22884 -10.22760 -10.22718
 Alpha  occ. eigenvalues --  -10.22706 -10.22659 -10.22512 -10.22481 -10.22357
 Alpha  occ. eigenvalues --  -10.22240 -10.22180 -10.22045 -10.21988 -10.21618
 Alpha  occ. eigenvalues --  -10.21581  -3.14708  -1.87545  -1.87058  -1.86954
 Alpha  occ. eigenvalues --   -1.10504  -1.09901  -1.04182  -1.02477  -1.02159
 Alpha  occ. eigenvalues --   -1.02015  -0.99501  -0.98884  -0.97129  -0.96777
 Alpha  occ. eigenvalues --   -0.87144  -0.84847  -0.83392  -0.83052  -0.82806
 Alpha  occ. eigenvalues --   -0.82588  -0.82088  -0.81888  -0.81186  -0.81165
 Alpha  occ. eigenvalues --   -0.80770  -0.79727  -0.78187  -0.77875  -0.77063
 Alpha  occ. eigenvalues --   -0.76206  -0.76011  -0.75604  -0.74982  -0.74514
 Alpha  occ. eigenvalues --   -0.74083  -0.72991  -0.72400  -0.71372  -0.70276
 Alpha  occ. eigenvalues --   -0.69990  -0.69545  -0.69455  -0.68875  -0.67973
 Alpha  occ. eigenvalues --   -0.67783  -0.67069  -0.65903  -0.65331  -0.63874
 Alpha  occ. eigenvalues --   -0.63350  -0.62551  -0.62463  -0.60949  -0.59944
 Alpha  occ. eigenvalues --   -0.59610  -0.59565  -0.58979  -0.58777  -0.58158
 Alpha  occ. eigenvalues --   -0.57747  -0.57436  -0.56895  -0.56217  -0.55002
 Alpha  occ. eigenvalues --   -0.54399  -0.53949  -0.53543  -0.53049  -0.52256
 Alpha  occ. eigenvalues --   -0.51703  -0.51200  -0.50553  -0.49895  -0.49821
 Alpha  occ. eigenvalues --   -0.49400  -0.49298  -0.48904  -0.48574  -0.48527
 Alpha  occ. eigenvalues --   -0.48400  -0.47796  -0.47543  -0.47240  -0.47191
 Alpha  occ. eigenvalues --   -0.47011  -0.46913  -0.46709  -0.46575  -0.46207
 Alpha  occ. eigenvalues --   -0.45961  -0.45593  -0.45501  -0.45138  -0.44982
 Alpha  occ. eigenvalues --   -0.44862  -0.44520  -0.44471  -0.44376  -0.44133
 Alpha  occ. eigenvalues --   -0.43901  -0.43790  -0.43665  -0.43454  -0.43162
 Alpha  occ. eigenvalues --   -0.42937  -0.42889  -0.42797  -0.42711  -0.42606
 Alpha  occ. eigenvalues --   -0.42530  -0.42234  -0.41873  -0.41573  -0.41107
 Alpha  occ. eigenvalues --   -0.40845  -0.40757  -0.40637  -0.40516  -0.40444
 Alpha  occ. eigenvalues --   -0.39939  -0.39822  -0.39715  -0.39623  -0.39517
 Alpha  occ. eigenvalues --   -0.39440  -0.39155  -0.39106  -0.38922  -0.38633
 Alpha  occ. eigenvalues --   -0.38475  -0.38420  -0.38178  -0.37923  -0.37867
 Alpha  occ. eigenvalues --   -0.37714  -0.37611  -0.37008  -0.36872  -0.36651
 Alpha  occ. eigenvalues --   -0.36591  -0.36495  -0.36300  -0.36240  -0.36012
 Alpha  occ. eigenvalues --   -0.35855  -0.35654  -0.35433  -0.35395  -0.35053
 Alpha  occ. eigenvalues --   -0.34780  -0.34654  -0.34485  -0.34239  -0.34163
 Alpha  occ. eigenvalues --   -0.34067  -0.33124  -0.33104  -0.32904  -0.32326
 Alpha  occ. eigenvalues --   -0.31984  -0.31759  -0.31614  -0.31368  -0.31227
 Alpha  occ. eigenvalues --   -0.31083  -0.30430  -0.30209  -0.29874  -0.29156
 Alpha  occ. eigenvalues --   -0.28990  -0.28446  -0.28392  -0.27027  -0.26338
 Alpha  occ. eigenvalues --   -0.25828  -0.25750  -0.25514  -0.24600  -0.20802
 Alpha  occ. eigenvalues --   -0.18918
 Alpha virt. eigenvalues --   -0.11300  -0.05338  -0.04537  -0.02455  -0.01021
 Alpha virt. eigenvalues --   -0.00959   0.00451   0.00720   0.01365   0.03034
 Alpha virt. eigenvalues --    0.04124   0.04460   0.05036   0.05419   0.05470

 Mulliken charges:
               1
     1  Mg   0.979055
     2  C    0.017522
     3  C   -0.069950
     4  C   -0.041485
     5  C   -0.077421
     6  N   -0.370900
     7  C    0.050422
     8  C   -0.074678
     9  C   -0.142984
    10  C    0.113348
    11  C   -0.000847
    12  C    0.033212
    13  C   -0.041472
    14  C    0.225395
    15  O   -0.287390
    16  O   -0.367667
    17  N   -0.430746
    18  C    0.129626
    19  C   -0.168179
    20  C   -0.064550
    21  C    0.153655
    22  C    0.034873
    23  C    0.041597
    24  O   -0.281555
    25  C   -0.017426
    26  N   -0.415485
    27  C    0.046956
    28  C   -0.090034
    29  C   -0.102860
    30  C    0.072384
    31  C    0.017757
    32  C   -0.031028
    33  C   -0.095769
    34  N   -0.487896
    35  C    0.161639
    36  C   -0.218895
    37  C   -0.026430
    38  C    0.124406
    39  C    0.076250
    40  C    0.149153
    41  O   -0.214364
    42  C   -0.173897
    43  C    0.300758
    44  O   -0.259720
    45  O   -0.378225
    46  C    0.123029
    47  C    0.214499
    48  C   -0.157609
    49  C   -0.171008
    50  C    0.016675
    51  C   -0.028529
    52  C   -0.043413
    53  C   -0.008074
    54  C   -0.218752
    55  C    0.011463
    56  C    0.013763
    57  C   -0.080982
    58  C    0.005228
    59  C   -0.198138
    60  C   -0.016748
    61  C   -0.035738
    62  C   -0.021618
    63  C   -0.040104
    64  C   -0.262705
    65  C   -0.025243
    66  C    0.001727
    67  H   -0.006617
    68  H    0.022901
    69  H    0.003359
    70  H    0.063422
    71  H    0.053183
    72  H    0.048174
    73  H    0.045622
    74  H    0.046786
    75  H    0.052409
    76  H    0.051750
    77  H    0.088132
    78  H    0.059290
    79  H    0.063351
    80  H    0.043525
    81  H    0.072854
    82  H    0.046567
    83  H    0.062207
    84  H    0.070432
    85  H    0.051173
    86  H    0.039700
    87  H    0.050579
    88  H    0.040956
    89  H    0.049074
    90  H    0.044355
    91  H    0.052933
    92  H    0.063151
    93  H    0.051102
    94  H    0.052843
    95  H    0.031971
    96  H    0.066323
    97  H    0.063592
    98  H    0.080822
    99  H    0.066330
   100  H    0.054058
   101  H    0.050796
   102  H    0.077310
   103  H    0.053407
   104  H    0.036225
   105  H    0.047074
   106  H    0.039388
   107  H    0.057463
   108  H    0.014970
   109  H    0.036379
   110  H    0.020931
   111  H    0.029425
   112  H    0.027450
   113  H    0.029886
   114  H    0.024908
   115  H    0.044014
   116  H    0.023948
   117  H    0.039915
   118  H    0.035526
   119  H    0.029494
   120  H    0.025767
   121  H    0.025098
   122  H    0.023913
   123  H    0.030907
   124  H    0.033147
   125  H    0.031742
   126  H    0.032446
   127  H    0.028193
   128  H    0.025698
   129  H    0.035887
   130  H    0.030132
   131  H    0.030706
   132  H    0.029099
   133  H    0.025202
   134  H    0.051316
   135  H    0.046629
   136  H    0.034305
   137  H    0.024368
   138  H    0.024277
   139  H    0.032190
   140  H    0.040280
 Sum of Mulliken charges =  -0.00000

 Dipole moment (field-independent basis, Debye):
    X=             -2.9384    Y=              2.6026    Z=              0.8284  Tot=              4.0117
 Quadrupole moment (field-independent basis, Debye-Ang):
   XX=           -378.3080   YY=           -409.3829   ZZ=           -410.7682
   XY=              9.9012   XZ=             29.8709   YZ=             -0.7117

 Normal termination of Gaussian 16 at Wed May  4 19:24:49 2022.
