 Gaussian 16, Revision A.03,
 Gaussian 16:  ES64L-G16RevA.03 25-Dec-2016

 --------------------------------
 #p wB97XD/Def2SVP td=(nstates=5)
 --------------------------------

 ----------------------------------------------------
 step_351_chromophore_16 TDDFT with wB97XD functional
 ----------------------------------------------------
 Symbolic Z-matrix:
 Charge =  0 Multiplicity = 1

                         Standard orientation:
 ---------------------------------------------------------------------
 Center     Atomic      Atomic             Coordinates (Angstroms)
 Number     Number       Type             X           Y           Z
 ---------------------------------------------------------------------
      1         12           0        6.110597    0.562282    0.194835
      2          6           0        3.949129   -2.220056   -0.006991
      3          6           0        3.489593    2.619450   -0.879509
      4          6           0        8.286704    3.166329   -0.092183
      5          6           0        8.761913   -1.536303    0.980169
      6          7           0        3.944266    0.212285   -0.453461
      7          6           0        3.249431   -1.005080   -0.411381
      8          6           0        1.723934   -0.854797   -0.606243
      9          6           0        1.614577    0.670275   -0.965834
     10          6           0        3.098981    1.226021   -0.770211
     11          6           0        0.800405    1.017647   -2.255244
     12          6           0        0.798923   -1.296215    0.636863
     13          6           0       -0.096931   -2.582077    0.505595
     14          6           0       -1.578570   -2.575452    0.903906
     15          8           0       -1.895124   -2.140043    2.033197
     16          8           0       -2.465891   -3.118700   -0.039645
     17          7           0        5.878072    2.566857   -0.398114
     18          6           0        4.768325    3.203236   -0.731862
     19          6           0        4.970367    4.661694   -0.853396
     20          6           0        6.383493    4.801240   -0.821607
     21          6           0        6.896267    3.472960   -0.430433
     22          6           0        3.870288    5.720738   -1.179809
     23          6           0        7.225439    6.023130   -0.977822
     24          8           0        8.491740    6.040465   -0.939505
     25          6           0        6.595967    7.383845   -1.026305
     26          7           0        8.249951    0.768806    0.276025
     27          6           0        8.941057    1.968139    0.215052
     28          6           0       10.387141    1.822410    0.562252
     29          6           0       10.443241    0.350323    1.118173
     30          6           0        9.090553   -0.232816    0.743892
     31          6           0       11.475392    2.175562   -0.511019
     32          6           0       10.611579    0.241220    2.691849
     33          6           0        9.484508    1.059170    3.461190
     34          7           0        6.356395   -1.449455    0.380629
     35          6           0        7.486820   -2.143046    0.751771
     36          6           0        7.160356   -3.532674    0.785283
     37          6           0        5.788542   -3.644757    0.481473
     38          6           0        5.346438   -2.317674    0.286031
     39          6           0        8.077595   -4.677091    1.064348
     40          6           0        4.690468   -4.555418    0.256878
     41          8           0        4.580138   -5.775009    0.146194
     42          6           0        3.448499   -3.590893   -0.082471
     43          6           0        2.904441   -4.028350   -1.385206
     44          8           0        3.159317   -3.570933   -2.502381
     45          8           0        1.912473   -4.975634   -1.115828
     46          6           0        1.240905   -5.588733   -2.238031
     47          6           0       -3.794280   -3.425013    0.454636
     48          6           0       -4.842281   -2.483581   -0.199705
     49          6           0       -6.195477   -2.645330   -0.241613
     50          6           0       -7.020973   -3.768429    0.393789
     51          6           0       -7.043720   -1.648958   -0.988464
     52          6           0       -6.985360   -0.197974   -0.579074
     53          6           0       -8.119253    0.127807    0.480327
     54          6           0       -9.373666    0.730405   -0.172759
     55          6           0       -9.271359    2.197276   -0.649224
     56          6           0      -10.617011    0.416439    0.663278
     57          6           0      -11.756277   -0.359510   -0.147432
     58          6           0      -12.629676    0.547309   -1.079292
     59          6           0      -14.068558    0.053403   -1.434281
     60          6           0      -14.218883   -0.042426   -2.974607
     61          6           0      -15.092161    1.157345   -0.903065
     62          6           0      -15.120365    1.380991    0.640606
     63          6           0      -14.526971    2.752604    1.082888
     64          6           0      -13.671852    2.563434    2.351793
     65          6           0      -12.675887    3.807751    2.493736
     66          6           0      -14.663645    2.540318    3.526852
     67          1           0        2.722386    3.363698   -1.103522
     68          1           0        9.007894    3.986506   -0.073199
     69          1           0        9.578568   -2.203420    1.265832
     70          1           0        1.473481   -1.482989   -1.461293
     71          1           0        0.970218    1.181183   -0.249641
     72          1           0        1.450991    1.413138   -3.034484
     73          1           0        0.022524    1.738297   -2.001866
     74          1           0        0.399050    0.091546   -2.668927
     75          1           0        0.120010   -0.467138    0.838143
     76          1           0        1.448665   -1.304311    1.512235
     77          1           0        0.337334   -3.317676    1.183320
     78          1           0       -0.186611   -3.061717   -0.469517
     79          1           0        3.886201    6.608702   -0.547345
     80          1           0        2.867700    5.294770   -1.139967
     81          1           0        4.037584    6.006516   -2.217821
     82          1           0        5.819553    7.453568   -1.787917
     83          1           0        7.369220    8.111851   -1.271981
     84          1           0        6.154803    7.482293   -0.034907
     85          1           0       10.646025    2.472445    1.399448
     86          1           0       11.113893   -0.257450    0.510515
     87          1           0       12.228900    1.415039   -0.715920
     88          1           0       11.972802    3.099225   -0.214752
     89          1           0       10.988922    2.480482   -1.437907
     90          1           0       11.521237    0.811796    2.875324
     91          1           0       10.695603   -0.781684    3.058298
     92          1           0        8.594913    1.184604    2.843951
     93          1           0        9.858165    2.060029    3.675397
     94          1           0        9.206659    0.462505    4.329838
     95          1           0        8.821004   -4.464808    1.833055
     96          1           0        8.633801   -4.892823    0.152541
     97          1           0        7.455027   -5.459376    1.497642
     98          1           0        2.635435   -3.756079    0.625064
     99          1           0        1.844405   -5.875974   -3.098547
    100          1           0        0.323276   -5.069703   -2.513165
    101          1           0        0.953920   -6.537967   -1.785544
    102          1           0       -4.047632   -3.370050    1.513337
    103          1           0       -3.942298   -4.458245    0.142936
    104          1           0       -4.289757   -1.726311   -0.756943
    105          1           0       -7.974210   -3.404970    0.777738
    106          1           0       -6.484865   -4.310725    1.173062
    107          1           0       -7.273328   -4.450476   -0.417318
    108          1           0       -8.093545   -1.942231   -1.003273
    109          1           0       -6.739592   -1.578640   -2.032790
    110          1           0       -7.168754    0.248203   -1.556436
    111          1           0       -5.936822   -0.073161   -0.306157
    112          1           0       -7.700245    0.792469    1.236061
    113          1           0       -8.265604   -0.842465    0.953602
    114          1           0       -9.357615    0.179413   -1.112928
    115          1           0       -9.302665    2.191229   -1.738423
    116          1           0       -8.296526    2.551148   -0.314135
    117          1           0       -9.937965    2.917164   -0.174246
    118          1           0      -10.913856    1.406217    1.011444
    119          1           0      -10.401784   -0.240434    1.506222
    120          1           0      -12.410816   -0.977765    0.466010
    121          1           0      -11.259766   -1.069753   -0.808269
    122          1           0      -12.041667    0.587208   -1.995020
    123          1           0      -12.658227    1.537498   -0.624429
    124          1           0      -14.269040   -0.945337   -1.048168
    125          1           0      -13.326149   -0.171558   -3.586770
    126          1           0      -14.748007    0.859210   -3.281723
    127          1           0      -14.816911   -0.904564   -3.272467
    128          1           0      -16.093916    0.865596   -1.218663
    129          1           0      -14.854586    2.116909   -1.362325
    130          1           0      -14.625913    0.539422    1.126319
    131          1           0      -16.151025    1.290478    0.982882
    132          1           0      -15.378300    3.402603    1.285662
    133          1           0      -13.961391    3.273474    0.310649
    134          1           0      -13.006721    1.701703    2.289835
    135          1           0      -11.915842    3.627647    3.253941
    136          1           0      -13.299254    4.701233    2.462309
    137          1           0      -12.118493    3.877516    1.559147
    138          1           0      -14.214698    1.950359    4.325952
    139          1           0      -15.568890    1.990808    3.270530
    140          1           0      -14.904741    3.521179    3.935298
 ---------------------------------------------------------------------

 SCF Done:  E(RwB97XD) =  -3007.87942337     A.U. after   17 cycles

 Excitation energies and oscillator strengths:

 Excited State   1:      Singlet-A      1.6541 eV  749.57 nm  f=0.3707  <S**2>=0.000
     245 -> 248       -0.18775
     246 -> 247        0.68216
     245 <- 248       -0.11651
 This state for optimization and/or second-order correction.
 Total Energy, E(TD-HF/TD-DFT) =  -3007.81863767
 Copying the excited state density for this state as the 1-particle RhoCI density.

 Excited State   2:      Singlet-A      2.1418 eV  578.89 nm  f=0.1321  <S**2>=0.000
     245 -> 247        0.64633
     246 -> 248        0.27417

 Excited State   3:      Singlet-A      3.4342 eV  361.03 nm  f=0.0088  <S**2>=0.000
     240 -> 247        0.35195
     240 -> 249       -0.28504
     240 -> 250        0.12105
     241 -> 247        0.34764
     241 -> 249       -0.28781
     241 -> 250        0.12699

 Excited State   4:      Singlet-A      3.5570 eV  348.57 nm  f=0.5954  <S**2>=0.000
     239 -> 247       -0.10260
     243 -> 247       -0.21498
     245 -> 247       -0.24275
     246 -> 248        0.60533
     245 <- 247        0.10963

 Excited State   5:      Singlet-A      3.5874 eV  345.61 nm  f=0.0598  <S**2>=0.000
     239 -> 247       -0.16250
     240 -> 247       -0.22437
     241 -> 247        0.16690
     243 -> 247        0.58890
     246 -> 248        0.13719

 The electronic state is 1-A.
 Alpha  occ. eigenvalues --  -46.95554 -19.31648 -19.29752 -19.24902 -19.24741
 Alpha  occ. eigenvalues --  -19.24062 -19.23855 -14.47663 -14.46013 -14.45084
 Alpha  occ. eigenvalues --  -14.43902 -10.44092 -10.43025 -10.39387 -10.39364
 Alpha  occ. eigenvalues --  -10.36449 -10.36182 -10.35744 -10.35736 -10.35046
 Alpha  occ. eigenvalues --  -10.34780 -10.34714 -10.34374 -10.33795 -10.33226
 Alpha  occ. eigenvalues --  -10.33060 -10.32797 -10.32634 -10.32539 -10.32417
 Alpha  occ. eigenvalues --  -10.32355 -10.32245 -10.32197 -10.32096 -10.31924
 Alpha  occ. eigenvalues --  -10.31566 -10.31461 -10.31339 -10.31183 -10.31053
 Alpha  occ. eigenvalues --  -10.30347 -10.30325 -10.30269 -10.30240 -10.30132
 Alpha  occ. eigenvalues --  -10.30109 -10.30069 -10.29790 -10.29778 -10.29590
 Alpha  occ. eigenvalues --  -10.29566 -10.29318 -10.29138 -10.29091 -10.29081
 Alpha  occ. eigenvalues --  -10.29013 -10.28924 -10.28874 -10.28840 -10.28729
 Alpha  occ. eigenvalues --  -10.28616 -10.28602 -10.28469 -10.28378 -10.28061
 Alpha  occ. eigenvalues --  -10.28009  -3.21494  -1.95077  -1.94590  -1.94485
 Alpha  occ. eigenvalues --   -1.17872  -1.17272  -1.11509  -1.10191  -1.09505
 Alpha  occ. eigenvalues --   -1.09355  -1.07080  -1.06021  -1.04557  -1.04134
 Alpha  occ. eigenvalues --   -0.94668  -0.92519  -0.91082  -0.90699  -0.90431
 Alpha  occ. eigenvalues --   -0.90257  -0.89797  -0.89625  -0.88842  -0.88758
 Alpha  occ. eigenvalues --   -0.88288  -0.87391  -0.85853  -0.85425  -0.84737
 Alpha  occ. eigenvalues --   -0.83898  -0.83823  -0.83250  -0.82616  -0.82165
 Alpha  occ. eigenvalues --   -0.81760  -0.80868  -0.79980  -0.78902  -0.77874
 Alpha  occ. eigenvalues --   -0.77655  -0.77171  -0.77106  -0.76549  -0.75639
 Alpha  occ. eigenvalues --   -0.75392  -0.74556  -0.73472  -0.72939  -0.71448
 Alpha  occ. eigenvalues --   -0.70858  -0.70182  -0.70092  -0.68581  -0.67495
 Alpha  occ. eigenvalues --   -0.67230  -0.66989  -0.66399  -0.66191  -0.65685
 Alpha  occ. eigenvalues --   -0.65382  -0.65081  -0.64558  -0.63589  -0.62598
 Alpha  occ. eigenvalues --   -0.61916  -0.61300  -0.60909  -0.60415  -0.59716
 Alpha  occ. eigenvalues --   -0.59108  -0.58665  -0.57965  -0.57291  -0.57180
 Alpha  occ. eigenvalues --   -0.56807  -0.56694  -0.56351  -0.56072  -0.55844
 Alpha  occ. eigenvalues --   -0.55823  -0.55202  -0.55056  -0.54766  -0.54612
 Alpha  occ. eigenvalues --   -0.54437  -0.54234  -0.54111  -0.53964  -0.53562
 Alpha  occ. eigenvalues --   -0.53223  -0.52980  -0.52875  -0.52513  -0.52448
 Alpha  occ. eigenvalues --   -0.52201  -0.51878  -0.51762  -0.51669  -0.51546
 Alpha  occ. eigenvalues --   -0.51270  -0.51118  -0.50974  -0.50684  -0.50510
 Alpha  occ. eigenvalues --   -0.50409  -0.50198  -0.50116  -0.49989  -0.49865
 Alpha  occ. eigenvalues --   -0.49716  -0.49523  -0.49150  -0.48712  -0.48372
 Alpha  occ. eigenvalues --   -0.48092  -0.47933  -0.47841  -0.47742  -0.47645
 Alpha  occ. eigenvalues --   -0.47132  -0.46955  -0.46821  -0.46766  -0.46705
 Alpha  occ. eigenvalues --   -0.46659  -0.46382  -0.46238  -0.46056  -0.45816
 Alpha  occ. eigenvalues --   -0.45641  -0.45560  -0.45318  -0.44982  -0.44921
 Alpha  occ. eigenvalues --   -0.44808  -0.44789  -0.44071  -0.43892  -0.43758
 Alpha  occ. eigenvalues --   -0.43693  -0.43635  -0.43414  -0.43305  -0.43198
 Alpha  occ. eigenvalues --   -0.43055  -0.42616  -0.42472  -0.42445  -0.42139
 Alpha  occ. eigenvalues --   -0.41871  -0.41661  -0.41341  -0.41290  -0.41192
 Alpha  occ. eigenvalues --   -0.41053  -0.40209  -0.39994  -0.39926  -0.39325
 Alpha  occ. eigenvalues --   -0.38945  -0.38764  -0.38642  -0.38368  -0.38189
 Alpha  occ. eigenvalues --   -0.38069  -0.37428  -0.37100  -0.36617  -0.36025
 Alpha  occ. eigenvalues --   -0.36020  -0.35556  -0.35100  -0.33821  -0.32981
 Alpha  occ. eigenvalues --   -0.32819  -0.32717  -0.32086  -0.31351  -0.25751
 Alpha  occ. eigenvalues --   -0.23125
 Alpha virt. eigenvalues --   -0.07190   0.00104   0.01682   0.04019   0.04958
 Alpha virt. eigenvalues --    0.05901   0.07267   0.07417   0.08095   0.09616
 Alpha virt. eigenvalues --    0.10666   0.11034   0.11627   0.12015   0.12155

 Mulliken charges:
               1
     1  Mg   0.968729
     2  C    0.018009
     3  C   -0.084722
     4  C   -0.062560
     5  C   -0.100453
     6  N   -0.336367
     7  C    0.014231
     8  C   -0.049704
     9  C   -0.118994
    10  C    0.095651
    11  C    0.009817
    12  C    0.044176
    13  C   -0.021881
    14  C    0.215373
    15  O   -0.285665
    16  O   -0.366848
    17  N   -0.396265
    18  C    0.127269
    19  C   -0.162943
    20  C   -0.057299
    21  C    0.149344
    22  C    0.048207
    23  C    0.039659
    24  O   -0.274352
    25  C   -0.004831
    26  N   -0.388942
    27  C    0.042099
    28  C   -0.071560
    29  C   -0.073515
    30  C    0.062795
    31  C    0.027646
    32  C   -0.015365
    33  C   -0.075041
    34  N   -0.447479
    35  C    0.152172
    36  C   -0.215683
    37  C   -0.026590
    38  C    0.106546
    39  C    0.085624
    40  C    0.133211
    41  O   -0.206178
    42  C   -0.129560
    43  C    0.276069
    44  O   -0.252718
    45  O   -0.376033
    46  C    0.136747
    47  C    0.226337
    48  C   -0.167567
    49  C   -0.159762
    50  C    0.031950
    51  C   -0.006755
    52  C   -0.025416
    53  C    0.011924
    54  C   -0.188531
    55  C    0.022564
    56  C    0.038979
    57  C   -0.059783
    58  C    0.027521
    59  C   -0.173200
    60  C   -0.005816
    61  C   -0.014242
    62  C   -0.009807
    63  C   -0.022839
    64  C   -0.226986
    65  C   -0.008260
    66  C    0.011587
    67  H   -0.014353
    68  H    0.017503
    69  H   -0.002636
    70  H    0.048774
    71  H    0.041588
    72  H    0.041958
    73  H    0.041194
    74  H    0.041804
    75  H    0.043566
    76  H    0.045192
    77  H    0.082054
    78  H    0.050524
    79  H    0.059965
    80  H    0.041206
    81  H    0.068439
    82  H    0.040946
    83  H    0.062220
    84  H    0.064942
    85  H    0.039229
    86  H    0.030041
    87  H    0.046474
    88  H    0.035657
    89  H    0.042832
    90  H    0.034084
    91  H    0.046369
    92  H    0.047829
    93  H    0.045345
    94  H    0.048376
    95  H    0.025179
    96  H    0.060684
    97  H    0.058703
    98  H    0.067792
    99  H    0.062947
   100  H    0.050046
   101  H    0.046830
   102  H    0.072550
   103  H    0.049076
   104  H    0.032677
   105  H    0.041563
   106  H    0.034732
   107  H    0.051478
   108  H    0.002561
   109  H    0.028927
   110  H    0.011801
   111  H    0.020246
   112  H    0.020093
   113  H    0.014072
   114  H    0.005105
   115  H    0.039658
   116  H    0.017212
   117  H    0.034088
   118  H    0.014983
   119  H    0.022902
   120  H    0.017661
   121  H    0.014519
   122  H    0.013168
   123  H    0.008935
   124  H    0.023782
   125  H    0.026361
   126  H    0.025503
   127  H    0.022840
   128  H    0.017929
   129  H    0.024124
   130  H    0.018018
   131  H    0.023763
   132  H    0.020408
   133  H    0.016065
   134  H    0.034531
   135  H    0.042292
   136  H    0.027181
   137  H    0.013987
   138  H    0.018714
   139  H    0.024719
   140  H    0.034748
 Sum of Mulliken charges =  -0.00000

 Dipole moment (field-independent basis, Debye):
    X=             -3.1351    Y=              3.3129    Z=              0.6820  Tot=              4.6118
 Quadrupole moment (field-independent basis, Debye-Ang):
   XX=           -381.3949   YY=           -406.5733   ZZ=           -410.4037
   XY=             14.0994   XZ=             28.7757   YZ=             -1.0812

 Normal termination of Gaussian 16 at Wed May  4 19:59:31 2022.
