 Gaussian 16, Revision A.03,
 Gaussian 16:  ES64L-G16RevA.03 25-Dec-2016

 --------------------
 #p ZINDO=(nstates=5)
 --------------------

 -----------------------------
 step_351_chromophore_16 ZINDO
 -----------------------------
 Symbolic Z-matrix:
 Charge =  0 Multiplicity = 1

                         Standard orientation:
 ---------------------------------------------------------------------
 Center     Atomic      Atomic             Coordinates (Angstroms)
 Number     Number       Type             X           Y           Z
 ---------------------------------------------------------------------
      1         12           0        6.110597    0.562282    0.194835
      2          6           0        3.949129   -2.220056   -0.006991
      3          6           0        3.489593    2.619450   -0.879509
      4          6           0        8.286704    3.166329   -0.092183
      5          6           0        8.761913   -1.536303    0.980169
      6          7           0        3.944266    0.212285   -0.453461
      7          6           0        3.249431   -1.005080   -0.411381
      8          6           0        1.723934   -0.854797   -0.606243
      9          6           0        1.614577    0.670275   -0.965834
     10          6           0        3.098981    1.226021   -0.770211
     11          6           0        0.800405    1.017647   -2.255244
     12          6           0        0.798923   -1.296215    0.636863
     13          6           0       -0.096931   -2.582077    0.505595
     14          6           0       -1.578570   -2.575452    0.903906
     15          8           0       -1.895124   -2.140043    2.033197
     16          8           0       -2.465891   -3.118700   -0.039645
     17          7           0        5.878072    2.566857   -0.398114
     18          6           0        4.768325    3.203236   -0.731862
     19          6           0        4.970367    4.661694   -0.853396
     20          6           0        6.383493    4.801240   -0.821607
     21          6           0        6.896267    3.472960   -0.430433
     22          6           0        3.870288    5.720738   -1.179809
     23          6           0        7.225439    6.023130   -0.977822
     24          8           0        8.491740    6.040465   -0.939505
     25          6           0        6.595967    7.383845   -1.026305
     26          7           0        8.249951    0.768806    0.276025
     27          6           0        8.941057    1.968139    0.215052
     28          6           0       10.387141    1.822410    0.562252
     29          6           0       10.443241    0.350323    1.118173
     30          6           0        9.090553   -0.232816    0.743892
     31          6           0       11.475392    2.175562   -0.511019
     32          6           0       10.611579    0.241220    2.691849
     33          6           0        9.484508    1.059170    3.461190
     34          7           0        6.356395   -1.449455    0.380629
     35          6           0        7.486820   -2.143046    0.751771
     36          6           0        7.160356   -3.532674    0.785283
     37          6           0        5.788542   -3.644757    0.481473
     38          6           0        5.346438   -2.317674    0.286031
     39          6           0        8.077595   -4.677091    1.064348
     40          6           0        4.690468   -4.555418    0.256878
     41          8           0        4.580138   -5.775009    0.146194
     42          6           0        3.448499   -3.590893   -0.082471
     43          6           0        2.904441   -4.028350   -1.385206
     44          8           0        3.159317   -3.570933   -2.502381
     45          8           0        1.912473   -4.975634   -1.115828
     46          6           0        1.240905   -5.588733   -2.238031
     47          6           0       -3.794280   -3.425013    0.454636
     48          6           0       -4.842281   -2.483581   -0.199705
     49          6           0       -6.195477   -2.645330   -0.241613
     50          6           0       -7.020973   -3.768429    0.393789
     51          6           0       -7.043720   -1.648958   -0.988464
     52          6           0       -6.985360   -0.197974   -0.579074
     53          6           0       -8.119253    0.127807    0.480327
     54          6           0       -9.373666    0.730405   -0.172759
     55          6           0       -9.271359    2.197276   -0.649224
     56          6           0      -10.617011    0.416439    0.663278
     57          6           0      -11.756277   -0.359510   -0.147432
     58          6           0      -12.629676    0.547309   -1.079292
     59          6           0      -14.068558    0.053403   -1.434281
     60          6           0      -14.218883   -0.042426   -2.974607
     61          6           0      -15.092161    1.157345   -0.903065
     62          6           0      -15.120365    1.380991    0.640606
     63          6           0      -14.526971    2.752604    1.082888
     64          6           0      -13.671852    2.563434    2.351793
     65          6           0      -12.675887    3.807751    2.493736
     66          6           0      -14.663645    2.540318    3.526852
     67          1           0        2.722386    3.363698   -1.103522
     68          1           0        9.007894    3.986506   -0.073199
     69          1           0        9.578568   -2.203420    1.265832
     70          1           0        1.473481   -1.482989   -1.461293
     71          1           0        0.970218    1.181183   -0.249641
     72          1           0        1.450991    1.413138   -3.034484
     73          1           0        0.022524    1.738297   -2.001866
     74          1           0        0.399050    0.091546   -2.668927
     75          1           0        0.120010   -0.467138    0.838143
     76          1           0        1.448665   -1.304311    1.512235
     77          1           0        0.337334   -3.317676    1.183320
     78          1           0       -0.186611   -3.061717   -0.469517
     79          1           0        3.886201    6.608702   -0.547345
     80          1           0        2.867700    5.294770   -1.139967
     81          1           0        4.037584    6.006516   -2.217821
     82          1           0        5.819553    7.453568   -1.787917
     83          1           0        7.369220    8.111851   -1.271981
     84          1           0        6.154803    7.482293   -0.034907
     85          1           0       10.646025    2.472445    1.399448
     86          1           0       11.113893   -0.257450    0.510515
     87          1           0       12.228900    1.415039   -0.715920
     88          1           0       11.972802    3.099225   -0.214752
     89          1           0       10.988922    2.480482   -1.437907
     90          1           0       11.521237    0.811796    2.875324
     91          1           0       10.695603   -0.781684    3.058298
     92          1           0        8.594913    1.184604    2.843951
     93          1           0        9.858165    2.060029    3.675397
     94          1           0        9.206659    0.462505    4.329838
     95          1           0        8.821004   -4.464808    1.833055
     96          1           0        8.633801   -4.892823    0.152541
     97          1           0        7.455027   -5.459376    1.497642
     98          1           0        2.635435   -3.756079    0.625064
     99          1           0        1.844405   -5.875974   -3.098547
    100          1           0        0.323276   -5.069703   -2.513165
    101          1           0        0.953920   -6.537967   -1.785544
    102          1           0       -4.047632   -3.370050    1.513337
    103          1           0       -3.942298   -4.458245    0.142936
    104          1           0       -4.289757   -1.726311   -0.756943
    105          1           0       -7.974210   -3.404970    0.777738
    106          1           0       -6.484865   -4.310725    1.173062
    107          1           0       -7.273328   -4.450476   -0.417318
    108          1           0       -8.093545   -1.942231   -1.003273
    109          1           0       -6.739592   -1.578640   -2.032790
    110          1           0       -7.168754    0.248203   -1.556436
    111          1           0       -5.936822   -0.073161   -0.306157
    112          1           0       -7.700245    0.792469    1.236061
    113          1           0       -8.265604   -0.842465    0.953602
    114          1           0       -9.357615    0.179413   -1.112928
    115          1           0       -9.302665    2.191229   -1.738423
    116          1           0       -8.296526    2.551148   -0.314135
    117          1           0       -9.937965    2.917164   -0.174246
    118          1           0      -10.913856    1.406217    1.011444
    119          1           0      -10.401784   -0.240434    1.506222
    120          1           0      -12.410816   -0.977765    0.466010
    121          1           0      -11.259766   -1.069753   -0.808269
    122          1           0      -12.041667    0.587208   -1.995020
    123          1           0      -12.658227    1.537498   -0.624429
    124          1           0      -14.269040   -0.945337   -1.048168
    125          1           0      -13.326149   -0.171558   -3.586770
    126          1           0      -14.748007    0.859210   -3.281723
    127          1           0      -14.816911   -0.904564   -3.272467
    128          1           0      -16.093916    0.865596   -1.218663
    129          1           0      -14.854586    2.116909   -1.362325
    130          1           0      -14.625913    0.539422    1.126319
    131          1           0      -16.151025    1.290478    0.982882
    132          1           0      -15.378300    3.402603    1.285662
    133          1           0      -13.961391    3.273474    0.310649
    134          1           0      -13.006721    1.701703    2.289835
    135          1           0      -11.915842    3.627647    3.253941
    136          1           0      -13.299254    4.701233    2.462309
    137          1           0      -12.118493    3.877516    1.559147
    138          1           0      -14.214698    1.950359    4.325952
    139          1           0      -15.568890    1.990808    3.270530
    140          1           0      -14.904741    3.521179    3.935298
 ---------------------------------------------------------------------

 SCF Done:  E(RZINDO/S) =  -473.855227918     A.U. after   19 cycles

 Excitation energies and oscillator strengths:

 Excited State   1:      Singlet-A      1.2590 eV  984.81 nm  f=0.5759  <S**2>=0.000
     175 ->178        -0.17467
     176 ->177         0.66618
 This state for optimization and/or second-order correction.
 Total Energy, E(CIS/TDA) =  -473.808961888
 Copying the excited state density for this state as the 1-particle RhoCI density.

 Excited State   2:      Singlet-A      1.8871 eV  657.01 nm  f=0.0688  <S**2>=0.000
     175 ->177         0.56313
     176 ->178         0.38985

 Excited State   3:      Singlet-A      2.8211 eV  439.48 nm  f=0.0131  <S**2>=0.000
     168 ->177         0.30164
     168 ->179        -0.48354
     168 ->180         0.19073
     168 ->185        -0.20003

 Excited State   4:      Singlet-A      2.9060 eV  426.65 nm  f=0.6414  <S**2>=0.000
     175 ->177        -0.29551
     176 ->178         0.49593
     176 ->179         0.28652
     176 ->180         0.19395

 Excited State   5:      Singlet-A      3.0517 eV  406.28 nm  f=0.0002  <S**2>=0.000
     169 ->177         0.23445
     169 ->178         0.20006
     169 ->179         0.16658
     169 ->180         0.30909
     169 ->184        -0.10060
     169 ->185         0.15515
     170 ->177         0.18504
     170 ->178         0.15361
     170 ->179         0.12755
     170 ->180         0.23781
     170 ->185         0.11890

 The electronic state is 1-A.
 Alpha  occ. eigenvalues --   -1.83903  -1.81671  -1.78377  -1.71424  -1.70258
 Alpha  occ. eigenvalues --   -1.69031  -1.65527  -1.61784  -1.57894  -1.57259
 Alpha  occ. eigenvalues --   -1.54012  -1.50767  -1.48420  -1.48199  -1.44022
 Alpha  occ. eigenvalues --   -1.43052  -1.41814  -1.39091  -1.37782  -1.36678
 Alpha  occ. eigenvalues --   -1.34657  -1.33426  -1.31642  -1.31104  -1.28661
 Alpha  occ. eigenvalues --   -1.27712  -1.24243  -1.21712  -1.20684  -1.18313
 Alpha  occ. eigenvalues --   -1.16819  -1.16393  -1.15781  -1.14859  -1.12483
 Alpha  occ. eigenvalues --   -1.12023  -1.11211  -1.09656  -1.05069  -1.03486
 Alpha  occ. eigenvalues --   -1.02445  -1.00742  -0.98714  -0.97314  -0.96346
 Alpha  occ. eigenvalues --   -0.95738  -0.94251  -0.93269  -0.92988  -0.92409
 Alpha  occ. eigenvalues --   -0.91332  -0.90140  -0.89576  -0.88065  -0.87035
 Alpha  occ. eigenvalues --   -0.85114  -0.83886  -0.83735  -0.81214  -0.80334
 Alpha  occ. eigenvalues --   -0.79237  -0.78261  -0.77420  -0.76395  -0.75769
 Alpha  occ. eigenvalues --   -0.75310  -0.75157  -0.74612  -0.74085  -0.73436
 Alpha  occ. eigenvalues --   -0.72773  -0.72626  -0.71950  -0.71582  -0.70846
 Alpha  occ. eigenvalues --   -0.70399  -0.69283  -0.68828  -0.68068  -0.67719
 Alpha  occ. eigenvalues --   -0.67113  -0.67069  -0.66722  -0.66255  -0.65640
 Alpha  occ. eigenvalues --   -0.65092  -0.64752  -0.63947  -0.63596  -0.63131
 Alpha  occ. eigenvalues --   -0.63049  -0.62849  -0.62543  -0.62252  -0.61975
 Alpha  occ. eigenvalues --   -0.61695  -0.61251  -0.61151  -0.60870  -0.60388
 Alpha  occ. eigenvalues --   -0.59304  -0.58957  -0.58625  -0.58590  -0.58158
 Alpha  occ. eigenvalues --   -0.57586  -0.57307  -0.56992  -0.56921  -0.56196
 Alpha  occ. eigenvalues --   -0.56012  -0.55301  -0.55060  -0.54478  -0.54278
 Alpha  occ. eigenvalues --   -0.54116  -0.54007  -0.53356  -0.53199  -0.52590
 Alpha  occ. eigenvalues --   -0.52401  -0.52151  -0.51642  -0.51499  -0.51132
 Alpha  occ. eigenvalues --   -0.50998  -0.50857  -0.50609  -0.50441  -0.50370
 Alpha  occ. eigenvalues --   -0.50049  -0.49722  -0.49579  -0.49431  -0.49163
 Alpha  occ. eigenvalues --   -0.48993  -0.48627  -0.48560  -0.48302  -0.47912
 Alpha  occ. eigenvalues --   -0.47793  -0.47586  -0.47113  -0.46891  -0.46852
 Alpha  occ. eigenvalues --   -0.46613  -0.46186  -0.45882  -0.45649  -0.45391
 Alpha  occ. eigenvalues --   -0.45288  -0.44866  -0.44808  -0.44558  -0.44211
 Alpha  occ. eigenvalues --   -0.43890  -0.43382  -0.43273  -0.42509  -0.42181
 Alpha  occ. eigenvalues --   -0.42151  -0.41603  -0.41381  -0.38695  -0.38601
 Alpha  occ. eigenvalues --   -0.38189  -0.37158  -0.35879  -0.34828  -0.34591
 Alpha  occ. eigenvalues --   -0.34215  -0.32284  -0.31949  -0.31617  -0.26500
 Alpha  occ. eigenvalues --   -0.21952
 Alpha virt. eigenvalues --   -0.08711  -0.02231  -0.01116   0.00948   0.01230
 Alpha virt. eigenvalues --    0.01880   0.02639   0.03142   0.04459   0.04736
 Alpha virt. eigenvalues --    0.05835   0.06408   0.06959   0.07188   0.07894

 Mulliken charges:
               1
     1  Mg   0.431893
     2  C   -0.030229
     3  C   -0.087903
     4  C   -0.087563
     5  C   -0.075918
     6  N   -0.267008
     7  C    0.081821
     8  C    0.006731
     9  C   -0.000604
    10  C    0.147306
    11  C   -0.049315
    12  C   -0.018552
    13  C    0.006575
    14  C    0.460614
    15  O   -0.527426
    16  O   -0.259498
    17  N   -0.303086
    18  C    0.141535
    19  C    0.017271
    20  C   -0.035365
    21  C    0.158049
    22  C   -0.039371
    23  C    0.326556
    24  O   -0.539770
    25  C   -0.027575
    26  N   -0.306176
    27  C    0.172612
    28  C    0.012740
    29  C   -0.006310
    30  C    0.112485
    31  C   -0.050729
    32  C   -0.030018
    33  C   -0.059417
    34  N   -0.302585
    35  C    0.076278
    36  C    0.012038
    37  C   -0.064044
    38  C    0.099567
    39  C   -0.042414
    40  C    0.331073
    41  O   -0.524029
    42  C    0.060962
    43  C    0.490780
    44  O   -0.525954
    45  O   -0.272303
    46  C    0.074817
    47  C    0.100524
    48  C   -0.092911
    49  C   -0.004666
    50  C   -0.040431
    51  C   -0.022823
    52  C   -0.046591
    53  C   -0.029483
    54  C   -0.007721
    55  C   -0.057657
    56  C   -0.034554
    57  C   -0.044920
    58  C   -0.040435
    59  C   -0.010150
    60  C   -0.062932
    61  C   -0.036437
    62  C   -0.040641
    63  C   -0.029633
    64  C   -0.016960
    65  C   -0.073233
    66  C   -0.052801
    67  H    0.028516
    68  H    0.042636
    69  H    0.025712
    70  H    0.041139
    71  H    0.026427
    72  H    0.022647
    73  H    0.025023
    74  H    0.026267
    75  H    0.026211
    76  H    0.032342
    77  H    0.047279
    78  H    0.036593
    79  H    0.035998
    80  H    0.027580
    81  H    0.033913
    82  H    0.029759
    83  H    0.044098
    84  H    0.044243
    85  H    0.030292
    86  H    0.030410
    87  H    0.030142
    88  H    0.019344
    89  H    0.023537
    90  H    0.011574
    91  H    0.033915
    92  H    0.028655
    93  H    0.024662
    94  H    0.022209
    95  H    0.015285
    96  H    0.039796
    97  H    0.033184
    98  H    0.051231
    99  H    0.055001
   100  H    0.039036
   101  H    0.022946
   102  H    0.063186
   103  H    0.034029
   104  H    0.037103
   105  H    0.027108
   106  H    0.023074
   107  H    0.029352
   108  H    0.013019
   109  H    0.014349
   110  H    0.016951
   111  H    0.029502
   112  H    0.014569
   113  H    0.022400
   114  H    0.015550
   115  H    0.024905
   116  H    0.012136
   117  H    0.026200
   118  H    0.025334
   119  H    0.018402
   120  H    0.018918
   121  H    0.013794
   122  H    0.016517
   123  H    0.023373
   124  H    0.030241
   125  H    0.021022
   126  H    0.018175
   127  H    0.009916
   128  H    0.011534
   129  H    0.023048
   130  H    0.018998
   131  H    0.015029
   132  H    0.017202
   133  H    0.019008
   134  H    0.030469
   135  H    0.029481
   136  H    0.029185
   137  H    0.004438
   138  H    0.006073
   139  H    0.017810
   140  H    0.026914
 Sum of Mulliken charges =  -0.00000

 Dipole moment (field-independent basis, Debye):
    X=             -4.9514    Y=              6.6803    Z=              0.6801  Tot=              8.3430
 N-N= 4.227465157686D+03 E-N= 0.000000000000D+00  KE=-9.129028209393D+03
 Leave Link  601 at Wed May  4 20:19:24 2022, MaxMem=  6710886400 cpu:               1.0 elap:               0.1
 (Enter /sw/apps/gaussian-16.0/g16/l9999.exe)
 1\1\GINC-BP1-COMPUTE192\SP\RZINDO CIS\STO-3G\C55H74Mg1N4O6\OF15641\04-
 May-2022\0\\#p ZINDO=(nstates=5)\\step_351_chromophore_16 ZINDO\\0,1\M
 g,0,40.247,41.278,27.287\C,0,39.491,43.667,29.772\C,0,41.172,39.023,29
 .8\C,0,41.442,39.144,24.917\C,0,39.598,43.625,24.813\N,0,40.387,41.371
 ,29.569\C,0,39.979,42.436,30.385\C,0,39.902,42.073,31.885\C,0,40.52,40
 .629,31.878\C,0,40.724,40.298,30.329\C,0,41.671,40.367,32.904\C,0,38.4
 43,42.151,32.564\C,0,38.15,43.278,33.621\C,0,37.483,42.966,34.967\O,0,

 Normal termination of Gaussian 16 at Wed May  4 20:19:24 2022.
