 Gaussian 16, Revision A.03,
 Gaussian 16:  ES64L-G16RevA.03 25-Dec-2016

 ------------------------------
 #p blyp/Def2SVP td=(nstates=5)
 ------------------------------

 --------------------------------------------------
 step_1101_chromophore_9 TDDFT with blyp functional
 --------------------------------------------------
 Symbolic Z-matrix:
 Charge =  0 Multiplicity = 1

                         Standard orientation:
 ---------------------------------------------------------------------
 Center     Atomic      Atomic             Coordinates (Angstroms)
 Number     Number       Type             X           Y           Z
 ---------------------------------------------------------------------
      1         12           0       -5.106707    0.695850   -0.290624
      2          6           0       -3.729181   -2.441990    0.001832
      3          6           0       -1.988839    2.069742   -0.200866
      4          6           0       -6.611114    3.613953   -0.217914
      5          6           0       -8.348945   -0.861735    0.502230
      6          7           0       -3.164600   -0.148792   -0.257976
      7          6           0       -2.757202   -1.448536   -0.259277
      8          6           0       -1.242538   -1.605028   -0.172888
      9          6           0       -0.744225   -0.142483   -0.063346
     10          6           0       -2.028968    0.645410   -0.117861
     11          6           0        0.209909    0.120919    1.158099
     12          6           0       -0.707815   -2.340639   -1.457043
     13          6           0        0.444354   -3.398641   -1.223210
     14          6           0        1.356962   -3.113749   -0.076322
     15          8           0        1.235210   -3.529848    1.043260
     16          8           0        2.445408   -2.385702   -0.556393
     17          7           0       -4.444770    2.618525   -0.350794
     18          6           0       -3.091363    2.972910   -0.275008
     19          6           0       -2.990278    4.393503   -0.378878
     20          6           0       -4.337972    4.856145   -0.496588
     21          6           0       -5.202233    3.650760   -0.413849
     22          6           0       -1.667386    5.210365   -0.249401
     23          6           0       -4.859191    6.301158   -0.472575
     24          8           0       -6.048830    6.591603   -0.495861
     25          6           0       -3.873389    7.412525   -0.425663
     26          7           0       -7.129035    1.312831    0.161468
     27          6           0       -7.473470    2.604615    0.053005
     28          6           0       -8.987233    2.836949    0.188828
     29          6           0       -9.499917    1.400671    0.334397
     30          6           0       -8.311305    0.539539    0.350376
     31          6           0       -9.533182    3.732658    1.314832
     32          6           0      -10.460900    0.947657   -0.845959
     33          6           0       -9.759411    0.402624   -2.145062
     34          7           0       -5.941923   -1.176232    0.260297
     35          6           0       -7.215166   -1.692723    0.489545
     36          6           0       -7.112687   -3.128142    0.645082
     37          6           0       -5.776418   -3.426381    0.437076
     38          6           0       -5.124577   -2.201548    0.231113
     39          6           0       -8.184397   -3.914241    0.976870
     40          6           0       -4.792686   -4.472007    0.538935
     41          8           0       -4.952046   -5.628477    0.916449
     42          6           0       -3.404686   -3.913050    0.214716
     43          6           0       -2.534844   -4.135145    1.318046
     44          8           0       -2.660750   -3.642773    2.439642
     45          8           0       -1.577499   -5.021452    0.929604
     46          6           0       -0.899001   -5.796956    1.919486
     47          6           0        3.506549   -2.146501    0.375050
     48          6           0        4.753444   -1.812380   -0.402129
     49          6           0        5.745084   -2.645161   -0.817434
     50          6           0        5.662400   -4.135839   -0.962948
     51          6           0        7.023174   -1.972365   -1.343491
     52          6           0        6.751124   -1.524834   -2.712164
     53          6           0        8.066360   -1.394621   -3.524472
     54          6           0        8.351178    0.124232   -4.001010
     55          6           0        8.302461    0.085896   -5.584750
     56          6           0        9.699249    0.795433   -3.557544
     57          6           0        9.599599    1.314723   -2.142639
     58          6           0       10.645209    0.656313   -1.215103
     59          6           0       11.489958    1.749228   -0.430396
     60          6           0       12.767510    2.212397   -1.264159
     61          6           0       11.745329    1.509429    1.121546
     62          6           0       10.740718    2.192082    2.108752
     63          6           0       11.390982    2.513552    3.496654
     64          6           0       10.829288    1.737680    4.717867
     65          6           0        9.357281    1.990303    4.956324
     66          6           0       11.809801    1.975571    5.887947
     67          1           0       -0.972393    2.468504   -0.194807
     68          1           0       -7.162000    4.551959   -0.313540
     69          1           0       -9.253682   -1.407908    0.778295
     70          1           0       -1.135559   -2.137012    0.772468
     71          1           0       -0.147204    0.060471   -0.952805
     72          1           0        1.253924    0.301919    0.902590
     73          1           0        0.236705   -0.706216    1.866572
     74          1           0       -0.097510    0.920163    1.832122
     75          1           0       -0.202925   -1.578657   -2.051294
     76          1           0       -1.608213   -2.693305   -1.959894
     77          1           0        1.081595   -3.532898   -2.097084
     78          1           0       -0.071178   -4.358235   -1.178309
     79          1           0       -0.805763    4.542496   -0.231626
     80          1           0       -1.579216    5.763702    0.686303
     81          1           0       -1.492971    5.838675   -1.123069
     82          1           0       -3.224386    7.241927   -1.284306
     83          1           0       -3.183900    7.288255    0.408633
     84          1           0       -4.476823    8.318850   -0.487821
     85          1           0       -9.132856    3.271732   -0.799196
     86          1           0       -9.999168    1.302046    1.298994
     87          1           0       -8.810641    4.043130    2.068980
     88          1           0      -10.392597    3.375653    1.881846
     89          1           0       -9.920960    4.662184    0.899298
     90          1           0      -10.829594    1.888055   -1.256529
     91          1           0      -11.243787    0.261325   -0.522669
     92          1           0       -8.719539    0.080621   -2.111488
     93          1           0       -9.630904    1.260878   -2.805590
     94          1           0      -10.379483   -0.318617   -2.677229
     95          1           0       -8.638065   -3.525841    1.888803
     96          1           0       -7.863942   -4.922999    1.238145
     97          1           0       -8.796862   -3.817996    0.080503
     98          1           0       -3.002188   -4.317836   -0.713410
     99          1           0        0.161434   -5.639606    1.724144
    100          1           0       -1.144216   -6.852404    1.798552
    101          1           0       -1.079481   -5.535950    2.962873
    102          1           0        3.765035   -2.999365    1.002631
    103          1           0        3.373026   -1.315550    1.068176
    104          1           0        5.055595   -0.765982   -0.454429
    105          1           0        6.423527   -4.676556   -0.401296
    106          1           0        5.780699   -4.390792   -2.015440
    107          1           0        4.693659   -4.417968   -0.550554
    108          1           0        7.822946   -2.701980   -1.221681
    109          1           0        7.133155   -1.081630   -0.725434
    110          1           0        6.357388   -0.518610   -2.568425
    111          1           0        6.073589   -2.124428   -3.320844
    112          1           0        8.023092   -2.153349   -4.306099
    113          1           0        9.014212   -1.658346   -3.053559
    114          1           0        7.535062    0.775547   -3.689580
    115          1           0        9.181930   -0.469562   -5.909482
    116          1           0        8.321720    1.103711   -5.973758
    117          1           0        7.415201   -0.449095   -5.922570
    118          1           0        9.872510    1.610501   -4.260275
    119          1           0       10.425889   -0.010864   -3.657029
    120          1           0        8.669826    0.979568   -1.682144
    121          1           0        9.781805    2.389335   -2.166704
    122          1           0       11.349095    0.048748   -1.783508
    123          1           0       10.137834    0.033127   -0.478759
    124          1           0       10.863245    2.640060   -0.472478
    125          1           0       13.654677    2.035079   -0.656560
    126          1           0       12.694046    3.280415   -1.468150
    127          1           0       12.950441    1.693904   -2.204744
    128          1           0       12.726154    1.941779    1.317646
    129          1           0       11.789230    0.426148    1.232703
    130          1           0       10.031317    1.371019    2.212585
    131          1           0       10.291188    3.029132    1.575146
    132          1           0       11.201894    3.577216    3.645277
    133          1           0       12.475611    2.501652    3.384148
    134          1           0       10.806620    0.659205    4.564806
    135          1           0        8.859967    1.103605    5.350235
    136          1           0        8.817844    2.315635    4.067397
    137          1           0        9.270324    2.659876    5.811530
    138          1           0       12.735949    1.406085    5.956500
    139          1           0       11.344276    1.938884    6.873502
    140          1           0       12.071168    3.029953    5.803727
 ---------------------------------------------------------------------

 SCF Done:  E(RB-LYP) =  -3007.35204553     A.U. after   21 cycles

 Excitation energies and oscillator strengths:

 Excited State   1:      Singlet-A      1.8004 eV  688.66 nm  f=0.2963  <S**2>=0.000
     245 -> 248       -0.19142
     246 -> 247        0.69014
     246 <- 247       -0.15320
 This state for optimization and/or second-order correction.
 Total Energy, E(TD-HF/TD-DFT) =  -3007.28588310
 Copying the excited state density for this state as the 1-particle RhoCI density.

 Excited State   2:      Singlet-A      1.9047 eV  650.93 nm  f=0.0078  <S**2>=0.000
     244 -> 247        0.69145
     245 -> 247        0.12023

 Excited State   3:      Singlet-A      2.0020 eV  619.29 nm  f=0.0091  <S**2>=0.000
     243 -> 247        0.67277
     245 -> 247       -0.19456

 Excited State   4:      Singlet-A      2.0726 eV  598.21 nm  f=0.0755  <S**2>=0.000
     243 -> 247        0.21109
     244 -> 247       -0.11213
     245 -> 247        0.60583
     246 -> 248        0.26036

 Excited State   5:      Singlet-A      2.5035 eV  495.25 nm  f=0.0001  <S**2>=0.000
     241 -> 247        0.69155
     242 -> 247       -0.14526

 The electronic state is 1-A.
 Alpha  occ. eigenvalues --  -46.26494 -18.82696 -18.81543 -18.78217 -18.75892
 Alpha  occ. eigenvalues --  -18.75147 -18.74889 -14.03489 -14.02316 -14.00775
 Alpha  occ. eigenvalues --  -14.00256 -10.04714 -10.03087  -9.99165  -9.99018
 Alpha  occ. eigenvalues --   -9.98000  -9.96435  -9.96147  -9.96142  -9.96005
 Alpha  occ. eigenvalues --   -9.95433  -9.95234  -9.95106  -9.94673  -9.94254
 Alpha  occ. eigenvalues --   -9.94119  -9.93982  -9.93818  -9.93707  -9.93538
 Alpha  occ. eigenvalues --   -9.93515  -9.93377  -9.93314  -9.93286  -9.93195
 Alpha  occ. eigenvalues --   -9.93147  -9.93065  -9.92930  -9.92824  -9.92552
 Alpha  occ. eigenvalues --   -9.92344  -9.92277  -9.92243  -9.92162  -9.92105
 Alpha  occ. eigenvalues --   -9.92021  -9.91966  -9.91841  -9.91826  -9.91605
 Alpha  occ. eigenvalues --   -9.91585  -9.91555  -9.91500  -9.91491  -9.91342
 Alpha  occ. eigenvalues --   -9.91285  -9.91226  -9.91220  -9.91210  -9.91120
 Alpha  occ. eigenvalues --   -9.91081  -9.90961  -9.90945  -9.90833  -9.90739
 Alpha  occ. eigenvalues --   -9.90118  -2.91238  -1.71668  -1.71100  -1.70961
 Alpha  occ. eigenvalues --   -0.98845  -0.97579  -0.91854  -0.90905  -0.90873
 Alpha  occ. eigenvalues --   -0.89223  -0.86793  -0.86406  -0.85527  -0.84754
 Alpha  occ. eigenvalues --   -0.75619  -0.74653  -0.72990  -0.72652  -0.72551
 Alpha  occ. eigenvalues --   -0.72103  -0.72052  -0.71308  -0.70678  -0.70464
 Alpha  occ. eigenvalues --   -0.69808  -0.69245  -0.68260  -0.67750  -0.66959
 Alpha  occ. eigenvalues --   -0.66415  -0.65907  -0.65227  -0.65206  -0.64236
 Alpha  occ. eigenvalues --   -0.64149  -0.62766  -0.62154  -0.61799  -0.60976
 Alpha  occ. eigenvalues --   -0.60829  -0.60774  -0.59943  -0.59291  -0.58735
 Alpha  occ. eigenvalues --   -0.58357  -0.57670  -0.56722  -0.55800  -0.55007
 Alpha  occ. eigenvalues --   -0.53754  -0.53397  -0.52513  -0.52245  -0.51209
 Alpha  occ. eigenvalues --   -0.51136  -0.50916  -0.50735  -0.50429  -0.50061
 Alpha  occ. eigenvalues --   -0.49710  -0.49295  -0.49003  -0.48247  -0.46608
 Alpha  occ. eigenvalues --   -0.46328  -0.46035  -0.45645  -0.45070  -0.44830
 Alpha  occ. eigenvalues --   -0.43959  -0.43719  -0.43332  -0.42701  -0.42523
 Alpha  occ. eigenvalues --   -0.42448  -0.42102  -0.41625  -0.41574  -0.41344
 Alpha  occ. eigenvalues --   -0.41169  -0.41004  -0.40669  -0.40299  -0.40131
 Alpha  occ. eigenvalues --   -0.39880  -0.39784  -0.39593  -0.39418  -0.39307
 Alpha  occ. eigenvalues --   -0.39109  -0.39010  -0.38673  -0.38285  -0.38145
 Alpha  occ. eigenvalues --   -0.37882  -0.37427  -0.37173  -0.37039  -0.36827
 Alpha  occ. eigenvalues --   -0.36801  -0.36730  -0.36655  -0.36499  -0.36257
 Alpha  occ. eigenvalues --   -0.36204  -0.36156  -0.35897  -0.35827  -0.35573
 Alpha  occ. eigenvalues --   -0.35210  -0.35129  -0.34893  -0.34823  -0.34789
 Alpha  occ. eigenvalues --   -0.34578  -0.34506  -0.34240  -0.34167  -0.33957
 Alpha  occ. eigenvalues --   -0.33914  -0.33712  -0.33653  -0.33586  -0.33094
 Alpha  occ. eigenvalues --   -0.32940  -0.32858  -0.32471  -0.32275  -0.32142
 Alpha  occ. eigenvalues --   -0.32005  -0.31893  -0.31669  -0.31630  -0.31596
 Alpha  occ. eigenvalues --   -0.31162  -0.31032  -0.30966  -0.30675  -0.30523
 Alpha  occ. eigenvalues --   -0.30428  -0.29895  -0.29827  -0.29604  -0.29540
 Alpha  occ. eigenvalues --   -0.29323  -0.29307  -0.29267  -0.28945  -0.28724
 Alpha  occ. eigenvalues --   -0.28714  -0.28589  -0.28152  -0.28105  -0.27982
 Alpha  occ. eigenvalues --   -0.27878  -0.27859  -0.27493  -0.26991  -0.26346
 Alpha  occ. eigenvalues --   -0.26051  -0.26011  -0.25922  -0.25841  -0.25537
 Alpha  occ. eigenvalues --   -0.25053  -0.24587  -0.23935  -0.23615  -0.23543
 Alpha  occ. eigenvalues --   -0.23163  -0.22783  -0.21663  -0.21307  -0.20479
 Alpha  occ. eigenvalues --   -0.20368  -0.20299  -0.18422  -0.18096  -0.16939
 Alpha  occ. eigenvalues --   -0.15379
 Alpha virt. eigenvalues --   -0.11167  -0.06236  -0.05577  -0.04228  -0.03852
 Alpha virt. eigenvalues --   -0.02955  -0.02659  -0.02253  -0.01142   0.00483
 Alpha virt. eigenvalues --    0.01145   0.01597   0.02109   0.02872   0.03066

 Mulliken charges:
               1
     1  Mg   0.700178
     2  C   -0.113879
     3  C   -0.074258
     4  C   -0.027403
     5  C   -0.078278
     6  N   -0.249122
     7  C   -0.092981
     8  C   -0.022121
     9  C    0.034331
    10  C    0.025605
    11  C    0.104592
    12  C    0.114223
    13  C    0.157207
    14  C    0.091434
    15  O   -0.165673
    16  O   -0.274701
    17  N   -0.269762
    18  C    0.156751
    19  C   -0.134062
    20  C    0.014047
    21  C    0.089217
    22  C    0.153128
    23  C   -0.096299
    24  O   -0.166514
    25  C    0.164797
    26  N   -0.225296
    27  C   -0.025816
    28  C    0.050294
    29  C    0.088859
    30  C    0.019416
    31  C    0.128433
    32  C    0.087558
    33  C    0.037020
    34  N   -0.212474
    35  C    0.058149
    36  C   -0.169181
    37  C    0.114245
    38  C    0.138558
    39  C    0.169282
    40  C   -0.097683
    41  O   -0.141658
    42  C    0.187463
    43  C    0.092387
    44  O   -0.188400
    45  O   -0.258318
    46  C    0.209993
    47  C    0.322158
    48  C   -0.107846
    49  C   -0.198447
    50  C    0.166979
    51  C    0.146367
    52  C    0.084648
    53  C    0.096995
    54  C   -0.127756
    55  C    0.090516
    56  C    0.108845
    57  C    0.114783
    58  C    0.083636
    59  C   -0.110111
    60  C    0.088312
    61  C    0.075836
    62  C    0.071783
    63  C    0.098109
    64  C   -0.063162
    65  C    0.114233
    66  C    0.104395
    67  H   -0.062358
    68  H   -0.056488
    69  H   -0.066402
    70  H    0.035728
    71  H   -0.021927
    72  H   -0.011575
    73  H   -0.001822
    74  H   -0.014227
    75  H   -0.017433
    76  H   -0.006286
    77  H   -0.010698
    78  H   -0.004068
    79  H   -0.031370
    80  H    0.017144
    81  H    0.003438
    82  H   -0.008602
    83  H   -0.001413
    84  H    0.000904
    85  H   -0.016653
    86  H   -0.028548
    87  H   -0.001914
    88  H   -0.011716
    89  H   -0.012403
    90  H   -0.022421
    91  H   -0.006749
    92  H    0.011534
    93  H   -0.025464
    94  H   -0.004183
    95  H    0.002967
    96  H    0.000203
    97  H    0.012345
    98  H   -0.011684
    99  H    0.013311
   100  H    0.007613
   101  H    0.016270
   102  H   -0.008810
   103  H   -0.010183
   104  H   -0.046633
   105  H   -0.003417
   106  H    0.000772
   107  H   -0.011420
   108  H   -0.027632
   109  H   -0.019403
   110  H   -0.020496
   111  H   -0.014961
   112  H   -0.033828
   113  H   -0.042259
   114  H   -0.031135
   115  H   -0.018161
   116  H   -0.018374
   117  H   -0.016999
   118  H   -0.035020
   119  H   -0.027008
   120  H   -0.025831
   121  H   -0.019232
   122  H   -0.028869
   123  H   -0.039196
   124  H   -0.039988
   125  H   -0.017989
   126  H   -0.011923
   127  H   -0.015638
   128  H   -0.040645
   129  H   -0.024632
   130  H   -0.024955
   131  H   -0.025093
   132  H   -0.037117
   133  H   -0.031735
   134  H   -0.037085
   135  H   -0.025901
   136  H   -0.003154
   137  H   -0.029869
   138  H   -0.004664
   139  H   -0.032468
   140  H   -0.027663
 Sum of Mulliken charges =  -0.00000

 Dipole moment (field-independent basis, Debye):
    X=              3.9440    Y=              0.9014    Z=             -3.0294  Tot=              5.0542
 Quadrupole moment (field-independent basis, Debye-Ang):
   XX=           -375.7962   YY=           -431.0978   ZZ=           -409.8909
   XY=             -3.1356   XZ=              7.0633   YZ=             13.7940

 Normal termination of Gaussian 16 at Wed Apr 27 10:14:09 2022.
