 Gaussian 16, Revision A.03,
 Gaussian 16:  ES64L-G16RevA.03 25-Dec-2016

 -----------------------------------
 #p cam-b3lyp/Def2SVP td=(nstates=5)
 -----------------------------------

 -------------------------------------------------------
 step_1101_chromophore_9 TDDFT with cam-b3lyp functional
 -------------------------------------------------------
 Symbolic Z-matrix:
 Charge =  0 Multiplicity = 1

                         Standard orientation:
 ---------------------------------------------------------------------
 Center     Atomic      Atomic             Coordinates (Angstroms)
 Number     Number       Type             X           Y           Z
 ---------------------------------------------------------------------
      1         12           0       -5.106707    0.695850   -0.290624
      2          6           0       -3.729181   -2.441990    0.001832
      3          6           0       -1.988839    2.069742   -0.200866
      4          6           0       -6.611114    3.613953   -0.217914
      5          6           0       -8.348945   -0.861735    0.502230
      6          7           0       -3.164600   -0.148792   -0.257976
      7          6           0       -2.757202   -1.448536   -0.259277
      8          6           0       -1.242538   -1.605028   -0.172888
      9          6           0       -0.744225   -0.142483   -0.063346
     10          6           0       -2.028968    0.645410   -0.117861
     11          6           0        0.209909    0.120919    1.158099
     12          6           0       -0.707815   -2.340639   -1.457043
     13          6           0        0.444354   -3.398641   -1.223210
     14          6           0        1.356962   -3.113749   -0.076322
     15          8           0        1.235210   -3.529848    1.043260
     16          8           0        2.445408   -2.385702   -0.556393
     17          7           0       -4.444770    2.618525   -0.350794
     18          6           0       -3.091363    2.972910   -0.275008
     19          6           0       -2.990278    4.393503   -0.378878
     20          6           0       -4.337972    4.856145   -0.496588
     21          6           0       -5.202233    3.650760   -0.413849
     22          6           0       -1.667386    5.210365   -0.249401
     23          6           0       -4.859191    6.301158   -0.472575
     24          8           0       -6.048830    6.591603   -0.495861
     25          6           0       -3.873389    7.412525   -0.425663
     26          7           0       -7.129035    1.312831    0.161468
     27          6           0       -7.473470    2.604615    0.053005
     28          6           0       -8.987233    2.836949    0.188828
     29          6           0       -9.499917    1.400671    0.334397
     30          6           0       -8.311305    0.539539    0.350376
     31          6           0       -9.533182    3.732658    1.314832
     32          6           0      -10.460900    0.947657   -0.845959
     33          6           0       -9.759411    0.402624   -2.145062
     34          7           0       -5.941923   -1.176232    0.260297
     35          6           0       -7.215166   -1.692723    0.489545
     36          6           0       -7.112687   -3.128142    0.645082
     37          6           0       -5.776418   -3.426381    0.437076
     38          6           0       -5.124577   -2.201548    0.231113
     39          6           0       -8.184397   -3.914241    0.976870
     40          6           0       -4.792686   -4.472007    0.538935
     41          8           0       -4.952046   -5.628477    0.916449
     42          6           0       -3.404686   -3.913050    0.214716
     43          6           0       -2.534844   -4.135145    1.318046
     44          8           0       -2.660750   -3.642773    2.439642
     45          8           0       -1.577499   -5.021452    0.929604
     46          6           0       -0.899001   -5.796956    1.919486
     47          6           0        3.506549   -2.146501    0.375050
     48          6           0        4.753444   -1.812380   -0.402129
     49          6           0        5.745084   -2.645161   -0.817434
     50          6           0        5.662400   -4.135839   -0.962948
     51          6           0        7.023174   -1.972365   -1.343491
     52          6           0        6.751124   -1.524834   -2.712164
     53          6           0        8.066360   -1.394621   -3.524472
     54          6           0        8.351178    0.124232   -4.001010
     55          6           0        8.302461    0.085896   -5.584750
     56          6           0        9.699249    0.795433   -3.557544
     57          6           0        9.599599    1.314723   -2.142639
     58          6           0       10.645209    0.656313   -1.215103
     59          6           0       11.489958    1.749228   -0.430396
     60          6           0       12.767510    2.212397   -1.264159
     61          6           0       11.745329    1.509429    1.121546
     62          6           0       10.740718    2.192082    2.108752
     63          6           0       11.390982    2.513552    3.496654
     64          6           0       10.829288    1.737680    4.717867
     65          6           0        9.357281    1.990303    4.956324
     66          6           0       11.809801    1.975571    5.887947
     67          1           0       -0.972393    2.468504   -0.194807
     68          1           0       -7.162000    4.551959   -0.313540
     69          1           0       -9.253682   -1.407908    0.778295
     70          1           0       -1.135559   -2.137012    0.772468
     71          1           0       -0.147204    0.060471   -0.952805
     72          1           0        1.253924    0.301919    0.902590
     73          1           0        0.236705   -0.706216    1.866572
     74          1           0       -0.097510    0.920163    1.832122
     75          1           0       -0.202925   -1.578657   -2.051294
     76          1           0       -1.608213   -2.693305   -1.959894
     77          1           0        1.081595   -3.532898   -2.097084
     78          1           0       -0.071178   -4.358235   -1.178309
     79          1           0       -0.805763    4.542496   -0.231626
     80          1           0       -1.579216    5.763702    0.686303
     81          1           0       -1.492971    5.838675   -1.123069
     82          1           0       -3.224386    7.241927   -1.284306
     83          1           0       -3.183900    7.288255    0.408633
     84          1           0       -4.476823    8.318850   -0.487821
     85          1           0       -9.132856    3.271732   -0.799196
     86          1           0       -9.999168    1.302046    1.298994
     87          1           0       -8.810641    4.043130    2.068980
     88          1           0      -10.392597    3.375653    1.881846
     89          1           0       -9.920960    4.662184    0.899298
     90          1           0      -10.829594    1.888055   -1.256529
     91          1           0      -11.243787    0.261325   -0.522669
     92          1           0       -8.719539    0.080621   -2.111488
     93          1           0       -9.630904    1.260878   -2.805590
     94          1           0      -10.379483   -0.318617   -2.677229
     95          1           0       -8.638065   -3.525841    1.888803
     96          1           0       -7.863942   -4.922999    1.238145
     97          1           0       -8.796862   -3.817996    0.080503
     98          1           0       -3.002188   -4.317836   -0.713410
     99          1           0        0.161434   -5.639606    1.724144
    100          1           0       -1.144216   -6.852404    1.798552
    101          1           0       -1.079481   -5.535950    2.962873
    102          1           0        3.765035   -2.999365    1.002631
    103          1           0        3.373026   -1.315550    1.068176
    104          1           0        5.055595   -0.765982   -0.454429
    105          1           0        6.423527   -4.676556   -0.401296
    106          1           0        5.780699   -4.390792   -2.015440
    107          1           0        4.693659   -4.417968   -0.550554
    108          1           0        7.822946   -2.701980   -1.221681
    109          1           0        7.133155   -1.081630   -0.725434
    110          1           0        6.357388   -0.518610   -2.568425
    111          1           0        6.073589   -2.124428   -3.320844
    112          1           0        8.023092   -2.153349   -4.306099
    113          1           0        9.014212   -1.658346   -3.053559
    114          1           0        7.535062    0.775547   -3.689580
    115          1           0        9.181930   -0.469562   -5.909482
    116          1           0        8.321720    1.103711   -5.973758
    117          1           0        7.415201   -0.449095   -5.922570
    118          1           0        9.872510    1.610501   -4.260275
    119          1           0       10.425889   -0.010864   -3.657029
    120          1           0        8.669826    0.979568   -1.682144
    121          1           0        9.781805    2.389335   -2.166704
    122          1           0       11.349095    0.048748   -1.783508
    123          1           0       10.137834    0.033127   -0.478759
    124          1           0       10.863245    2.640060   -0.472478
    125          1           0       13.654677    2.035079   -0.656560
    126          1           0       12.694046    3.280415   -1.468150
    127          1           0       12.950441    1.693904   -2.204744
    128          1           0       12.726154    1.941779    1.317646
    129          1           0       11.789230    0.426148    1.232703
    130          1           0       10.031317    1.371019    2.212585
    131          1           0       10.291188    3.029132    1.575146
    132          1           0       11.201894    3.577216    3.645277
    133          1           0       12.475611    2.501652    3.384148
    134          1           0       10.806620    0.659205    4.564806
    135          1           0        8.859967    1.103605    5.350235
    136          1           0        8.817844    2.315635    4.067397
    137          1           0        9.270324    2.659876    5.811530
    138          1           0       12.735949    1.406085    5.956500
    139          1           0       11.344276    1.938884    6.873502
    140          1           0       12.071168    3.029953    5.803727
 ---------------------------------------------------------------------

 SCF Done:  E(RCAM-B3LYP) =  -3007.15787181     A.U. after   19 cycles

 Excitation energies and oscillator strengths:

 Excited State   1:      Singlet-A      1.6733 eV  740.95 nm  f=0.3709  <S**2>=0.000
     245 -> 248       -0.17628
     246 -> 247        0.68812
     245 <- 248       -0.11020
 This state for optimization and/or second-order correction.
 Total Energy, E(TD-HF/TD-DFT) =  -3007.09637860
 Copying the excited state density for this state as the 1-particle RhoCI density.

 Excited State   2:      Singlet-A      2.2488 eV  551.34 nm  f=0.1236  <S**2>=0.000
     245 -> 247        0.64145
     246 -> 248        0.29077

 Excited State   3:      Singlet-A      3.4479 eV  359.59 nm  f=0.0012  <S**2>=0.000
     243 -> 247       -0.31628
     244 -> 247        0.60339

 Excited State   4:      Singlet-A      3.5474 eV  349.50 nm  f=0.0141  <S**2>=0.000
     239 -> 247        0.40538
     239 -> 249       -0.21939
     240 -> 249        0.10921
     243 -> 247        0.34197
     244 -> 247        0.29108
     246 -> 248       -0.14512

 Excited State   5:      Singlet-A      3.5764 eV  346.67 nm  f=0.3737  <S**2>=0.000
     239 -> 247        0.27604
     239 -> 249       -0.15913
     240 -> 247       -0.18814
     243 -> 247       -0.24987
     245 -> 247       -0.19660
     246 -> 248        0.48630

 The electronic state is 1-A.
 Alpha  occ. eigenvalues --  -46.88006 -19.25588 -19.24545 -19.21270 -19.19087
 Alpha  occ. eigenvalues --  -19.18504 -19.17971 -14.42504 -14.41078 -14.39169
 Alpha  occ. eigenvalues --  -14.38720 -10.40054 -10.38634 -10.34592 -10.34103
 Alpha  occ. eigenvalues --  -10.32055 -10.30828 -10.30754 -10.30678 -10.29953
 Alpha  occ. eigenvalues --  -10.29573 -10.29483 -10.29356 -10.29059 -10.28398
 Alpha  occ. eigenvalues --  -10.28278 -10.28223 -10.28084 -10.27935 -10.27718
 Alpha  occ. eigenvalues --  -10.27482 -10.27474 -10.27448 -10.27441 -10.27312
 Alpha  occ. eigenvalues --  -10.27191 -10.26957 -10.26848 -10.26787 -10.26619
 Alpha  occ. eigenvalues --  -10.26460 -10.26339 -10.26092 -10.25912 -10.25885
 Alpha  occ. eigenvalues --  -10.25865 -10.25636 -10.25455 -10.25426 -10.25424
 Alpha  occ. eigenvalues --  -10.25314 -10.25246 -10.25187 -10.25184 -10.25160
 Alpha  occ. eigenvalues --  -10.25014 -10.24946 -10.24895 -10.24847 -10.24828
 Alpha  occ. eigenvalues --  -10.24725 -10.24558 -10.24539 -10.24519 -10.24460
 Alpha  occ. eigenvalues --  -10.24286  -3.16659  -1.91563  -1.91100  -1.90973
 Alpha  occ. eigenvalues --   -1.17364  -1.16199  -1.09771  -1.09452  -1.09169
 Alpha  occ. eigenvalues --   -1.07305  -1.04531  -1.04043  -1.03214  -1.02283
 Alpha  occ. eigenvalues --   -0.92917  -0.91560  -0.89794  -0.89427  -0.89298
 Alpha  occ. eigenvalues --   -0.88798  -0.88744  -0.87896  -0.87223  -0.86994
 Alpha  occ. eigenvalues --   -0.86348  -0.85671  -0.84556  -0.84000  -0.83095
 Alpha  occ. eigenvalues --   -0.82486  -0.81894  -0.81236  -0.81029  -0.80127
 Alpha  occ. eigenvalues --   -0.79978  -0.78479  -0.77827  -0.77280  -0.76428
 Alpha  occ. eigenvalues --   -0.76216  -0.76153  -0.75220  -0.74570  -0.73955
 Alpha  occ. eigenvalues --   -0.73434  -0.72708  -0.71621  -0.70621  -0.69611
 Alpha  occ. eigenvalues --   -0.68433  -0.67934  -0.66874  -0.66607  -0.65446
 Alpha  occ. eigenvalues --   -0.65275  -0.64954  -0.64794  -0.64365  -0.64012
 Alpha  occ. eigenvalues --   -0.63734  -0.63232  -0.62945  -0.62019  -0.60265
 Alpha  occ. eigenvalues --   -0.59919  -0.59629  -0.59128  -0.58836  -0.58283
 Alpha  occ. eigenvalues --   -0.57256  -0.57044  -0.56652  -0.55981  -0.55840
 Alpha  occ. eigenvalues --   -0.55712  -0.55039  -0.54724  -0.54469  -0.54344
 Alpha  occ. eigenvalues --   -0.54157  -0.53794  -0.53483  -0.52939  -0.52887
 Alpha  occ. eigenvalues --   -0.52658  -0.52476  -0.52285  -0.52066  -0.51944
 Alpha  occ. eigenvalues --   -0.51745  -0.51559  -0.51094  -0.50863  -0.50475
 Alpha  occ. eigenvalues --   -0.50280  -0.49797  -0.49626  -0.49341  -0.49159
 Alpha  occ. eigenvalues --   -0.49017  -0.48984  -0.48860  -0.48723  -0.48555
 Alpha  occ. eigenvalues --   -0.48319  -0.48199  -0.48160  -0.48028  -0.47920
 Alpha  occ. eigenvalues --   -0.47607  -0.47277  -0.47044  -0.46936  -0.46748
 Alpha  occ. eigenvalues --   -0.46518  -0.46281  -0.46223  -0.46036  -0.45890
 Alpha  occ. eigenvalues --   -0.45774  -0.45602  -0.45320  -0.45317  -0.44835
 Alpha  occ. eigenvalues --   -0.44719  -0.44428  -0.44390  -0.43996  -0.43921
 Alpha  occ. eigenvalues --   -0.43737  -0.43656  -0.43291  -0.43112  -0.42988
 Alpha  occ. eigenvalues --   -0.42616  -0.42484  -0.42285  -0.42156  -0.42047
 Alpha  occ. eigenvalues --   -0.41872  -0.41623  -0.41016  -0.40938  -0.40783
 Alpha  occ. eigenvalues --   -0.40683  -0.40653  -0.40511  -0.40386  -0.39847
 Alpha  occ. eigenvalues --   -0.39739  -0.39578  -0.39218  -0.39017  -0.38881
 Alpha  occ. eigenvalues --   -0.38819  -0.38751  -0.38381  -0.37756  -0.37457
 Alpha  occ. eigenvalues --   -0.37339  -0.37001  -0.36737  -0.36474  -0.36346
 Alpha  occ. eigenvalues --   -0.35598  -0.35485  -0.35168  -0.34997  -0.33987
 Alpha  occ. eigenvalues --   -0.33931  -0.33770  -0.33001  -0.30803  -0.30745
 Alpha  occ. eigenvalues --   -0.30257  -0.30069  -0.29711  -0.29533  -0.23672
 Alpha  occ. eigenvalues --   -0.20653
 Alpha virt. eigenvalues --   -0.08329  -0.01045   0.00938   0.02516   0.02921
 Alpha virt. eigenvalues --    0.03849   0.04494   0.05149   0.06040   0.07015
 Alpha virt. eigenvalues --    0.07444   0.08259   0.08690   0.09389   0.09520

 Mulliken charges:
               1
     1  Mg   0.833462
     2  C   -0.134510
     3  C   -0.079237
     4  C   -0.052863
     5  C   -0.083270
     6  N   -0.320311
     7  C   -0.037683
     8  C   -0.091384
     9  C   -0.016339
    10  C    0.040048
    11  C    0.044903
    12  C    0.070012
    13  C    0.089781
    14  C    0.163785
    15  O   -0.204629
    16  O   -0.336799
    17  N   -0.360798
    18  C    0.154899
    19  C   -0.140049
    20  C   -0.056815
    21  C    0.120646
    22  C    0.099885
    23  C   -0.011925
    24  O   -0.209665
    25  C    0.079172
    26  N   -0.296987
    27  C    0.003396
    28  C   -0.006763
    29  C    0.026847
    30  C    0.036434
    31  C    0.066663
    32  C    0.029195
    33  C   -0.020706
    34  N   -0.300890
    35  C    0.066425
    36  C   -0.155728
    37  C    0.030708
    38  C    0.175847
    39  C    0.098517
    40  C    0.007543
    41  O   -0.179270
    42  C    0.099345
    43  C    0.182871
    44  O   -0.223868
    45  O   -0.321482
    46  C    0.172236
    47  C    0.287388
    48  C   -0.130081
    49  C   -0.211116
    50  C    0.108609
    51  C    0.082480
    52  C    0.031478
    53  C    0.041201
    54  C   -0.177602
    55  C    0.036204
    56  C    0.055428
    57  C    0.056708
    58  C    0.036384
    59  C   -0.162021
    60  C    0.032207
    61  C    0.029670
    62  C    0.016110
    63  C    0.037751
    64  C   -0.121497
    65  C    0.053416
    66  C    0.041752
    67  H   -0.027060
    68  H   -0.015916
    69  H   -0.028410
    70  H    0.066855
    71  H    0.013815
    72  H    0.011341
    73  H    0.023472
    74  H    0.013543
    75  H    0.013567
    76  H    0.023763
    77  H    0.024950
    78  H    0.028177
    79  H   -0.003025
    80  H    0.042129
    81  H    0.029171
    82  H    0.017476
    83  H    0.025576
    84  H    0.036045
    85  H    0.017818
    86  H    0.009162
    87  H    0.024609
    88  H    0.013058
    89  H    0.012504
    90  H    0.007466
    91  H    0.020117
    92  H    0.032983
    93  H   -0.001908
    94  H    0.020580
    95  H    0.030417
    96  H    0.031523
    97  H    0.038461
    98  H    0.033230
    99  H    0.035168
   100  H    0.029416
   101  H    0.042791
   102  H    0.021427
   103  H    0.015082
   104  H   -0.015355
   105  H    0.021589
   106  H    0.023887
   107  H    0.011054
   108  H    0.001910
   109  H    0.008848
   110  H    0.005452
   111  H    0.013689
   112  H   -0.003762
   113  H   -0.014549
   114  H   -0.001186
   115  H    0.004287
   116  H    0.005608
   117  H    0.007031
   118  H   -0.004517
   119  H   -0.001080
   120  H   -0.000248
   121  H    0.009315
   122  H   -0.002073
   123  H   -0.012170
   124  H   -0.010148
   125  H    0.005561
   126  H    0.011382
   127  H    0.007619
   128  H   -0.013230
   129  H    0.001715
   130  H    0.001209
   131  H    0.003689
   132  H   -0.007688
   133  H   -0.001664
   134  H   -0.006587
   135  H    0.000131
   136  H    0.020770
   137  H   -0.004902
   138  H    0.020455
   139  H   -0.006075
   140  H   -0.004459
 Sum of Mulliken charges =  -0.00000

 Dipole moment (field-independent basis, Debye):
    X=              4.2120    Y=              0.9405    Z=             -3.1273  Tot=              5.3297
 Quadrupole moment (field-independent basis, Debye-Ang):
   XX=           -375.1455   YY=           -427.2033   ZZ=           -409.8135
   XY=             -2.2514   XZ=              7.2792   YZ=             14.1164

 Normal termination of Gaussian 16 at Wed Apr 27 09:14:58 2022.
