 Gaussian 16, Revision A.03,
 Gaussian 16:  ES64L-G16RevA.03 25-Dec-2016

 ---------------------------------
 #p PBE1PBE/Def2SVP td=(nstates=5)
 ---------------------------------

 -----------------------------------------------------
 step_1101_chromophore_9 TDDFT with PBE1PBE functional
 -----------------------------------------------------
 Symbolic Z-matrix:
 Charge =  0 Multiplicity = 1

                         Standard orientation:
 ---------------------------------------------------------------------
 Center     Atomic      Atomic             Coordinates (Angstroms)
 Number     Number       Type             X           Y           Z
 ---------------------------------------------------------------------
      1         12           0       -5.106707    0.695850   -0.290624
      2          6           0       -3.729181   -2.441990    0.001832
      3          6           0       -1.988839    2.069742   -0.200866
      4          6           0       -6.611114    3.613953   -0.217914
      5          6           0       -8.348945   -0.861735    0.502230
      6          7           0       -3.164600   -0.148792   -0.257976
      7          6           0       -2.757202   -1.448536   -0.259277
      8          6           0       -1.242538   -1.605028   -0.172888
      9          6           0       -0.744225   -0.142483   -0.063346
     10          6           0       -2.028968    0.645410   -0.117861
     11          6           0        0.209909    0.120919    1.158099
     12          6           0       -0.707815   -2.340639   -1.457043
     13          6           0        0.444354   -3.398641   -1.223210
     14          6           0        1.356962   -3.113749   -0.076322
     15          8           0        1.235210   -3.529848    1.043260
     16          8           0        2.445408   -2.385702   -0.556393
     17          7           0       -4.444770    2.618525   -0.350794
     18          6           0       -3.091363    2.972910   -0.275008
     19          6           0       -2.990278    4.393503   -0.378878
     20          6           0       -4.337972    4.856145   -0.496588
     21          6           0       -5.202233    3.650760   -0.413849
     22          6           0       -1.667386    5.210365   -0.249401
     23          6           0       -4.859191    6.301158   -0.472575
     24          8           0       -6.048830    6.591603   -0.495861
     25          6           0       -3.873389    7.412525   -0.425663
     26          7           0       -7.129035    1.312831    0.161468
     27          6           0       -7.473470    2.604615    0.053005
     28          6           0       -8.987233    2.836949    0.188828
     29          6           0       -9.499917    1.400671    0.334397
     30          6           0       -8.311305    0.539539    0.350376
     31          6           0       -9.533182    3.732658    1.314832
     32          6           0      -10.460900    0.947657   -0.845959
     33          6           0       -9.759411    0.402624   -2.145062
     34          7           0       -5.941923   -1.176232    0.260297
     35          6           0       -7.215166   -1.692723    0.489545
     36          6           0       -7.112687   -3.128142    0.645082
     37          6           0       -5.776418   -3.426381    0.437076
     38          6           0       -5.124577   -2.201548    0.231113
     39          6           0       -8.184397   -3.914241    0.976870
     40          6           0       -4.792686   -4.472007    0.538935
     41          8           0       -4.952046   -5.628477    0.916449
     42          6           0       -3.404686   -3.913050    0.214716
     43          6           0       -2.534844   -4.135145    1.318046
     44          8           0       -2.660750   -3.642773    2.439642
     45          8           0       -1.577499   -5.021452    0.929604
     46          6           0       -0.899001   -5.796956    1.919486
     47          6           0        3.506549   -2.146501    0.375050
     48          6           0        4.753444   -1.812380   -0.402129
     49          6           0        5.745084   -2.645161   -0.817434
     50          6           0        5.662400   -4.135839   -0.962948
     51          6           0        7.023174   -1.972365   -1.343491
     52          6           0        6.751124   -1.524834   -2.712164
     53          6           0        8.066360   -1.394621   -3.524472
     54          6           0        8.351178    0.124232   -4.001010
     55          6           0        8.302461    0.085896   -5.584750
     56          6           0        9.699249    0.795433   -3.557544
     57          6           0        9.599599    1.314723   -2.142639
     58          6           0       10.645209    0.656313   -1.215103
     59          6           0       11.489958    1.749228   -0.430396
     60          6           0       12.767510    2.212397   -1.264159
     61          6           0       11.745329    1.509429    1.121546
     62          6           0       10.740718    2.192082    2.108752
     63          6           0       11.390982    2.513552    3.496654
     64          6           0       10.829288    1.737680    4.717867
     65          6           0        9.357281    1.990303    4.956324
     66          6           0       11.809801    1.975571    5.887947
     67          1           0       -0.972393    2.468504   -0.194807
     68          1           0       -7.162000    4.551959   -0.313540
     69          1           0       -9.253682   -1.407908    0.778295
     70          1           0       -1.135559   -2.137012    0.772468
     71          1           0       -0.147204    0.060471   -0.952805
     72          1           0        1.253924    0.301919    0.902590
     73          1           0        0.236705   -0.706216    1.866572
     74          1           0       -0.097510    0.920163    1.832122
     75          1           0       -0.202925   -1.578657   -2.051294
     76          1           0       -1.608213   -2.693305   -1.959894
     77          1           0        1.081595   -3.532898   -2.097084
     78          1           0       -0.071178   -4.358235   -1.178309
     79          1           0       -0.805763    4.542496   -0.231626
     80          1           0       -1.579216    5.763702    0.686303
     81          1           0       -1.492971    5.838675   -1.123069
     82          1           0       -3.224386    7.241927   -1.284306
     83          1           0       -3.183900    7.288255    0.408633
     84          1           0       -4.476823    8.318850   -0.487821
     85          1           0       -9.132856    3.271732   -0.799196
     86          1           0       -9.999168    1.302046    1.298994
     87          1           0       -8.810641    4.043130    2.068980
     88          1           0      -10.392597    3.375653    1.881846
     89          1           0       -9.920960    4.662184    0.899298
     90          1           0      -10.829594    1.888055   -1.256529
     91          1           0      -11.243787    0.261325   -0.522669
     92          1           0       -8.719539    0.080621   -2.111488
     93          1           0       -9.630904    1.260878   -2.805590
     94          1           0      -10.379483   -0.318617   -2.677229
     95          1           0       -8.638065   -3.525841    1.888803
     96          1           0       -7.863942   -4.922999    1.238145
     97          1           0       -8.796862   -3.817996    0.080503
     98          1           0       -3.002188   -4.317836   -0.713410
     99          1           0        0.161434   -5.639606    1.724144
    100          1           0       -1.144216   -6.852404    1.798552
    101          1           0       -1.079481   -5.535950    2.962873
    102          1           0        3.765035   -2.999365    1.002631
    103          1           0        3.373026   -1.315550    1.068176
    104          1           0        5.055595   -0.765982   -0.454429
    105          1           0        6.423527   -4.676556   -0.401296
    106          1           0        5.780699   -4.390792   -2.015440
    107          1           0        4.693659   -4.417968   -0.550554
    108          1           0        7.822946   -2.701980   -1.221681
    109          1           0        7.133155   -1.081630   -0.725434
    110          1           0        6.357388   -0.518610   -2.568425
    111          1           0        6.073589   -2.124428   -3.320844
    112          1           0        8.023092   -2.153349   -4.306099
    113          1           0        9.014212   -1.658346   -3.053559
    114          1           0        7.535062    0.775547   -3.689580
    115          1           0        9.181930   -0.469562   -5.909482
    116          1           0        8.321720    1.103711   -5.973758
    117          1           0        7.415201   -0.449095   -5.922570
    118          1           0        9.872510    1.610501   -4.260275
    119          1           0       10.425889   -0.010864   -3.657029
    120          1           0        8.669826    0.979568   -1.682144
    121          1           0        9.781805    2.389335   -2.166704
    122          1           0       11.349095    0.048748   -1.783508
    123          1           0       10.137834    0.033127   -0.478759
    124          1           0       10.863245    2.640060   -0.472478
    125          1           0       13.654677    2.035079   -0.656560
    126          1           0       12.694046    3.280415   -1.468150
    127          1           0       12.950441    1.693904   -2.204744
    128          1           0       12.726154    1.941779    1.317646
    129          1           0       11.789230    0.426148    1.232703
    130          1           0       10.031317    1.371019    2.212585
    131          1           0       10.291188    3.029132    1.575146
    132          1           0       11.201894    3.577216    3.645277
    133          1           0       12.475611    2.501652    3.384148
    134          1           0       10.806620    0.659205    4.564806
    135          1           0        8.859967    1.103605    5.350235
    136          1           0        8.817844    2.315635    4.067397
    137          1           0        9.270324    2.659876    5.811530
    138          1           0       12.735949    1.406085    5.956500
    139          1           0       11.344276    1.938884    6.873502
    140          1           0       12.071168    3.029953    5.803727
 ---------------------------------------------------------------------

 SCF Done:  E(RPBE1PBE) =  -3005.34681323     A.U. after   16 cycles

 Excitation energies and oscillator strengths:

 Excited State   1:      Singlet-A      1.8360 eV  675.28 nm  f=0.3599  <S**2>=0.000
     245 -> 248       -0.17119
     246 -> 247        0.69553
     246 <- 247       -0.11220
 This state for optimization and/or second-order correction.
 Total Energy, E(TD-HF/TD-DFT) =  -3005.27933977
 Copying the excited state density for this state as the 1-particle RhoCI density.

 Excited State   2:      Singlet-A      2.2648 eV  547.43 nm  f=0.1185  <S**2>=0.000
     245 -> 247        0.65025
     246 -> 248        0.27290

 Excited State   3:      Singlet-A      3.0417 eV  407.62 nm  f=0.0002  <S**2>=0.000
     242 -> 247       -0.14454
     243 -> 247       -0.17061
     244 -> 247        0.63914

 Excited State   4:      Singlet-A      3.0445 eV  407.24 nm  f=0.0013  <S**2>=0.000
     240 -> 247       -0.32672
     240 -> 249        0.12263
     243 -> 247        0.54898
     244 -> 247        0.21688

 Excited State   5:      Singlet-A      3.1646 eV  391.78 nm  f=0.0007  <S**2>=0.000
     240 -> 247       -0.38044
     241 -> 247       -0.12663
     242 -> 247        0.44055
     243 -> 247       -0.35337

 The electronic state is 1-A.
 Alpha  occ. eigenvalues --  -46.91397 -19.26232 -19.25128 -19.21445 -19.19241
 Alpha  occ. eigenvalues --  -19.18628 -19.18245 -14.41974 -14.40661 -14.38813
 Alpha  occ. eigenvalues --  -14.38318 -10.37015 -10.35539 -10.31650 -10.31276
 Alpha  occ. eigenvalues --  -10.29420 -10.28633 -10.28442 -10.28389 -10.27391
 Alpha  occ. eigenvalues --  -10.27174 -10.27142 -10.27086 -10.26691 -10.25980
 Alpha  occ. eigenvalues --  -10.25959 -10.25906 -10.25889 -10.25729 -10.25489
 Alpha  occ. eigenvalues --  -10.25138 -10.25053 -10.25031 -10.24959 -10.24946
 Alpha  occ. eigenvalues --  -10.24829 -10.24784 -10.24462 -10.24356 -10.24260
 Alpha  occ. eigenvalues --  -10.24173 -10.23869 -10.23826 -10.23627 -10.23557
 Alpha  occ. eigenvalues --  -10.23369 -10.23179 -10.23052 -10.22991 -10.22938
 Alpha  occ. eigenvalues --  -10.22930 -10.22754 -10.22742 -10.22605 -10.22558
 Alpha  occ. eigenvalues --  -10.22527 -10.22471 -10.22411 -10.22384 -10.22359
 Alpha  occ. eigenvalues --  -10.22281 -10.22140 -10.21947 -10.21907 -10.21883
 Alpha  occ. eigenvalues --  -10.21880  -3.13626  -1.86472  -1.85988  -1.85863
 Alpha  occ. eigenvalues --   -1.12111  -1.10904  -1.04595  -1.04091  -1.03947
 Alpha  occ. eigenvalues --   -1.02030  -0.99171  -0.98753  -0.97799  -0.96911
 Alpha  occ. eigenvalues --   -0.87199  -0.85714  -0.83991  -0.83619  -0.83507
 Alpha  occ. eigenvalues --   -0.83098  -0.82838  -0.82240  -0.81536  -0.81150
 Alpha  occ. eigenvalues --   -0.80595  -0.79899  -0.78772  -0.78276  -0.77343
 Alpha  occ. eigenvalues --   -0.76676  -0.76139  -0.75502  -0.75287  -0.74439
 Alpha  occ. eigenvalues --   -0.74128  -0.72734  -0.72119  -0.71602  -0.70728
 Alpha  occ. eigenvalues --   -0.70350  -0.70300  -0.69569  -0.68702  -0.68141
 Alpha  occ. eigenvalues --   -0.67765  -0.67111  -0.66026  -0.64952  -0.63946
 Alpha  occ. eigenvalues --   -0.62848  -0.62165  -0.61148  -0.61002  -0.59757
 Alpha  occ. eigenvalues --   -0.59653  -0.59419  -0.59284  -0.58893  -0.58576
 Alpha  occ. eigenvalues --   -0.57865  -0.57419  -0.57109  -0.56541  -0.54721
 Alpha  occ. eigenvalues --   -0.54397  -0.54167  -0.53618  -0.53170  -0.52889
 Alpha  occ. eigenvalues --   -0.51770  -0.51427  -0.51173  -0.50500  -0.50387
 Alpha  occ. eigenvalues --   -0.50214  -0.49542  -0.49288  -0.48943  -0.48843
 Alpha  occ. eigenvalues --   -0.48600  -0.48217  -0.47938  -0.47564  -0.47333
 Alpha  occ. eigenvalues --   -0.47068  -0.47035  -0.46828  -0.46580  -0.46444
 Alpha  occ. eigenvalues --   -0.46254  -0.46087  -0.45661  -0.45454  -0.45068
 Alpha  occ. eigenvalues --   -0.44872  -0.44355  -0.44204  -0.43933  -0.43693
 Alpha  occ. eigenvalues --   -0.43600  -0.43573  -0.43468  -0.43301  -0.43178
 Alpha  occ. eigenvalues --   -0.42966  -0.42816  -0.42717  -0.42648  -0.42526
 Alpha  occ. eigenvalues --   -0.42227  -0.41966  -0.41691  -0.41620  -0.41388
 Alpha  occ. eigenvalues --   -0.41228  -0.40927  -0.40905  -0.40779  -0.40574
 Alpha  occ. eigenvalues --   -0.40489  -0.40283  -0.40068  -0.39924  -0.39554
 Alpha  occ. eigenvalues --   -0.39265  -0.39239  -0.39070  -0.38758  -0.38655
 Alpha  occ. eigenvalues --   -0.38473  -0.38380  -0.38100  -0.37870  -0.37804
 Alpha  occ. eigenvalues --   -0.37525  -0.37312  -0.37017  -0.36928  -0.36855
 Alpha  occ. eigenvalues --   -0.36729  -0.36381  -0.35860  -0.35753  -0.35621
 Alpha  occ. eigenvalues --   -0.35531  -0.35503  -0.35381  -0.35164  -0.34724
 Alpha  occ. eigenvalues --   -0.34541  -0.34401  -0.34110  -0.34019  -0.33740
 Alpha  occ. eigenvalues --   -0.33632  -0.33561  -0.33144  -0.32593  -0.32426
 Alpha  occ. eigenvalues --   -0.32269  -0.32025  -0.31530  -0.31438  -0.31316
 Alpha  occ. eigenvalues --   -0.30454  -0.30352  -0.30027  -0.29911  -0.28950
 Alpha  occ. eigenvalues --   -0.28943  -0.28693  -0.28521  -0.26431  -0.25658
 Alpha  occ. eigenvalues --   -0.25378  -0.25347  -0.25115  -0.24987  -0.20601
 Alpha  occ. eigenvalues --   -0.18284
 Alpha virt. eigenvalues --   -0.10762  -0.04549  -0.03241  -0.01591  -0.00660
 Alpha virt. eigenvalues --   -0.00262   0.00029   0.00614   0.01660   0.03426
 Alpha virt. eigenvalues --    0.04005   0.04525   0.04910   0.05914   0.05975

 Mulliken charges:
               1
     1  Mg   0.981937
     2  C   -0.123593
     3  C   -0.068725
     4  C   -0.050230
     5  C   -0.065462
     6  N   -0.428129
     7  C    0.048275
     8  C   -0.180845
     9  C   -0.089278
    10  C    0.076475
    11  C   -0.010707
    12  C    0.025279
    13  C    0.015463
    14  C    0.228487
    15  O   -0.240320
    16  O   -0.367320
    17  N   -0.486154
    18  C    0.170225
    19  C   -0.159585
    20  C   -0.110030
    21  C    0.168609
    22  C    0.039201
    23  C    0.042166
    24  O   -0.247600
    25  C    0.001560
    26  N   -0.399130
    27  C    0.047039
    28  C   -0.082829
    29  C   -0.051419
    30  C    0.065468
    31  C    0.010087
    32  C   -0.036274
    33  C   -0.089715
    34  N   -0.431783
    35  C    0.092362
    36  C   -0.185377
    37  C   -0.013080
    38  C    0.217930
    39  C    0.038157
    40  C    0.114863
    41  O   -0.226427
    42  C   -0.024908
    43  C    0.277230
    44  O   -0.260267
    45  O   -0.356266
    46  C    0.119377
    47  C    0.242137
    48  C   -0.139115
    49  C   -0.248265
    50  C    0.045531
    51  C    0.009727
    52  C   -0.032896
    53  C   -0.004310
    54  C   -0.261403
    55  C   -0.028399
    56  C    0.001331
    57  C   -0.012527
    58  C   -0.016502
    59  C   -0.241829
    60  C   -0.026359
    61  C   -0.024584
    62  C   -0.048954
    63  C   -0.020175
    64  C   -0.215528
    65  C   -0.005632
    66  C   -0.020529
    67  H    0.004857
    68  H    0.017241
    69  H    0.002541
    70  H    0.109096
    71  H    0.050157
    72  H    0.039735
    73  H    0.050113
    74  H    0.040780
    75  H    0.045845
    76  H    0.055506
    77  H    0.056647
    78  H    0.061793
    79  H    0.026062
    80  H    0.068712
    81  H    0.056613
    82  H    0.046402
    83  H    0.053679
    84  H    0.063083
    85  H    0.054292
    86  H    0.046336
    87  H    0.051889
    88  H    0.039761
    89  H    0.039781
    90  H    0.042526
    91  H    0.050842
    92  H    0.062490
    93  H    0.025929
    94  H    0.048659
    95  H    0.057756
    96  H    0.060101
    97  H    0.066191
    98  H    0.069805
    99  H    0.057735
   100  H    0.051760
   101  H    0.063162
   102  H    0.048035
   103  H    0.041934
   104  H    0.013953
   105  H    0.049214
   106  H    0.051350
   107  H    0.040341
   108  H    0.034086
   109  H    0.042968
   110  H    0.037767
   111  H    0.045485
   112  H    0.027398
   113  H    0.017758
   114  H    0.036820
   115  H    0.033158
   116  H    0.033849
   117  H    0.036233
   118  H    0.028229
   119  H    0.030375
   120  H    0.036110
   121  H    0.040968
   122  H    0.029685
   123  H    0.021334
   124  H    0.029447
   125  H    0.032567
   126  H    0.038317
   127  H    0.034296
   128  H    0.020168
   129  H    0.034321
   130  H    0.034858
   131  H    0.034570
   132  H    0.025824
   133  H    0.029762
   134  H    0.032023
   135  H    0.028045
   136  H    0.047540
   137  H    0.023228
   138  H    0.047738
   139  H    0.022181
   140  H    0.023736
 Sum of Mulliken charges =  -0.00000

 Dipole moment (field-independent basis, Debye):
    X=              4.1938    Y=              1.0773    Z=             -3.1479  Tot=              5.3533
 Quadrupole moment (field-independent basis, Debye-Ang):
   XX=           -368.9723   YY=           -424.3789   ZZ=           -407.1361
   XY=             -3.1825   XZ=              6.9768   YZ=             14.2424

 Normal termination of Gaussian 16 at Wed Apr 27 09:32:18 2022.
