 Gaussian 16, Revision A.03,
 Gaussian 16:  ES64L-G16RevA.03 25-Dec-2016

 --------------------------------
 #p wB97XD/Def2SVP td=(nstates=5)
 --------------------------------

 ----------------------------------------------------
 step_1101_chromophore_9 TDDFT with wB97XD functional
 ----------------------------------------------------
 Symbolic Z-matrix:
 Charge =  0 Multiplicity = 1

                         Standard orientation:
 ---------------------------------------------------------------------
 Center     Atomic      Atomic             Coordinates (Angstroms)
 Number     Number       Type             X           Y           Z
 ---------------------------------------------------------------------
      1         12           0       -5.106707    0.695850   -0.290624
      2          6           0       -3.729181   -2.441990    0.001832
      3          6           0       -1.988839    2.069742   -0.200866
      4          6           0       -6.611114    3.613953   -0.217914
      5          6           0       -8.348945   -0.861735    0.502230
      6          7           0       -3.164600   -0.148792   -0.257976
      7          6           0       -2.757202   -1.448536   -0.259277
      8          6           0       -1.242538   -1.605028   -0.172888
      9          6           0       -0.744225   -0.142483   -0.063346
     10          6           0       -2.028968    0.645410   -0.117861
     11          6           0        0.209909    0.120919    1.158099
     12          6           0       -0.707815   -2.340639   -1.457043
     13          6           0        0.444354   -3.398641   -1.223210
     14          6           0        1.356962   -3.113749   -0.076322
     15          8           0        1.235210   -3.529848    1.043260
     16          8           0        2.445408   -2.385702   -0.556393
     17          7           0       -4.444770    2.618525   -0.350794
     18          6           0       -3.091363    2.972910   -0.275008
     19          6           0       -2.990278    4.393503   -0.378878
     20          6           0       -4.337972    4.856145   -0.496588
     21          6           0       -5.202233    3.650760   -0.413849
     22          6           0       -1.667386    5.210365   -0.249401
     23          6           0       -4.859191    6.301158   -0.472575
     24          8           0       -6.048830    6.591603   -0.495861
     25          6           0       -3.873389    7.412525   -0.425663
     26          7           0       -7.129035    1.312831    0.161468
     27          6           0       -7.473470    2.604615    0.053005
     28          6           0       -8.987233    2.836949    0.188828
     29          6           0       -9.499917    1.400671    0.334397
     30          6           0       -8.311305    0.539539    0.350376
     31          6           0       -9.533182    3.732658    1.314832
     32          6           0      -10.460900    0.947657   -0.845959
     33          6           0       -9.759411    0.402624   -2.145062
     34          7           0       -5.941923   -1.176232    0.260297
     35          6           0       -7.215166   -1.692723    0.489545
     36          6           0       -7.112687   -3.128142    0.645082
     37          6           0       -5.776418   -3.426381    0.437076
     38          6           0       -5.124577   -2.201548    0.231113
     39          6           0       -8.184397   -3.914241    0.976870
     40          6           0       -4.792686   -4.472007    0.538935
     41          8           0       -4.952046   -5.628477    0.916449
     42          6           0       -3.404686   -3.913050    0.214716
     43          6           0       -2.534844   -4.135145    1.318046
     44          8           0       -2.660750   -3.642773    2.439642
     45          8           0       -1.577499   -5.021452    0.929604
     46          6           0       -0.899001   -5.796956    1.919486
     47          6           0        3.506549   -2.146501    0.375050
     48          6           0        4.753444   -1.812380   -0.402129
     49          6           0        5.745084   -2.645161   -0.817434
     50          6           0        5.662400   -4.135839   -0.962948
     51          6           0        7.023174   -1.972365   -1.343491
     52          6           0        6.751124   -1.524834   -2.712164
     53          6           0        8.066360   -1.394621   -3.524472
     54          6           0        8.351178    0.124232   -4.001010
     55          6           0        8.302461    0.085896   -5.584750
     56          6           0        9.699249    0.795433   -3.557544
     57          6           0        9.599599    1.314723   -2.142639
     58          6           0       10.645209    0.656313   -1.215103
     59          6           0       11.489958    1.749228   -0.430396
     60          6           0       12.767510    2.212397   -1.264159
     61          6           0       11.745329    1.509429    1.121546
     62          6           0       10.740718    2.192082    2.108752
     63          6           0       11.390982    2.513552    3.496654
     64          6           0       10.829288    1.737680    4.717867
     65          6           0        9.357281    1.990303    4.956324
     66          6           0       11.809801    1.975571    5.887947
     67          1           0       -0.972393    2.468504   -0.194807
     68          1           0       -7.162000    4.551959   -0.313540
     69          1           0       -9.253682   -1.407908    0.778295
     70          1           0       -1.135559   -2.137012    0.772468
     71          1           0       -0.147204    0.060471   -0.952805
     72          1           0        1.253924    0.301919    0.902590
     73          1           0        0.236705   -0.706216    1.866572
     74          1           0       -0.097510    0.920163    1.832122
     75          1           0       -0.202925   -1.578657   -2.051294
     76          1           0       -1.608213   -2.693305   -1.959894
     77          1           0        1.081595   -3.532898   -2.097084
     78          1           0       -0.071178   -4.358235   -1.178309
     79          1           0       -0.805763    4.542496   -0.231626
     80          1           0       -1.579216    5.763702    0.686303
     81          1           0       -1.492971    5.838675   -1.123069
     82          1           0       -3.224386    7.241927   -1.284306
     83          1           0       -3.183900    7.288255    0.408633
     84          1           0       -4.476823    8.318850   -0.487821
     85          1           0       -9.132856    3.271732   -0.799196
     86          1           0       -9.999168    1.302046    1.298994
     87          1           0       -8.810641    4.043130    2.068980
     88          1           0      -10.392597    3.375653    1.881846
     89          1           0       -9.920960    4.662184    0.899298
     90          1           0      -10.829594    1.888055   -1.256529
     91          1           0      -11.243787    0.261325   -0.522669
     92          1           0       -8.719539    0.080621   -2.111488
     93          1           0       -9.630904    1.260878   -2.805590
     94          1           0      -10.379483   -0.318617   -2.677229
     95          1           0       -8.638065   -3.525841    1.888803
     96          1           0       -7.863942   -4.922999    1.238145
     97          1           0       -8.796862   -3.817996    0.080503
     98          1           0       -3.002188   -4.317836   -0.713410
     99          1           0        0.161434   -5.639606    1.724144
    100          1           0       -1.144216   -6.852404    1.798552
    101          1           0       -1.079481   -5.535950    2.962873
    102          1           0        3.765035   -2.999365    1.002631
    103          1           0        3.373026   -1.315550    1.068176
    104          1           0        5.055595   -0.765982   -0.454429
    105          1           0        6.423527   -4.676556   -0.401296
    106          1           0        5.780699   -4.390792   -2.015440
    107          1           0        4.693659   -4.417968   -0.550554
    108          1           0        7.822946   -2.701980   -1.221681
    109          1           0        7.133155   -1.081630   -0.725434
    110          1           0        6.357388   -0.518610   -2.568425
    111          1           0        6.073589   -2.124428   -3.320844
    112          1           0        8.023092   -2.153349   -4.306099
    113          1           0        9.014212   -1.658346   -3.053559
    114          1           0        7.535062    0.775547   -3.689580
    115          1           0        9.181930   -0.469562   -5.909482
    116          1           0        8.321720    1.103711   -5.973758
    117          1           0        7.415201   -0.449095   -5.922570
    118          1           0        9.872510    1.610501   -4.260275
    119          1           0       10.425889   -0.010864   -3.657029
    120          1           0        8.669826    0.979568   -1.682144
    121          1           0        9.781805    2.389335   -2.166704
    122          1           0       11.349095    0.048748   -1.783508
    123          1           0       10.137834    0.033127   -0.478759
    124          1           0       10.863245    2.640060   -0.472478
    125          1           0       13.654677    2.035079   -0.656560
    126          1           0       12.694046    3.280415   -1.468150
    127          1           0       12.950441    1.693904   -2.204744
    128          1           0       12.726154    1.941779    1.317646
    129          1           0       11.789230    0.426148    1.232703
    130          1           0       10.031317    1.371019    2.212585
    131          1           0       10.291188    3.029132    1.575146
    132          1           0       11.201894    3.577216    3.645277
    133          1           0       12.475611    2.501652    3.384148
    134          1           0       10.806620    0.659205    4.564806
    135          1           0        8.859967    1.103605    5.350235
    136          1           0        8.817844    2.315635    4.067397
    137          1           0        9.270324    2.659876    5.811530
    138          1           0       12.735949    1.406085    5.956500
    139          1           0       11.344276    1.938884    6.873502
    140          1           0       12.071168    3.029953    5.803727
 ---------------------------------------------------------------------

 SCF Done:  E(RwB97XD) =  -3007.85778303     A.U. after   19 cycles

 Excitation energies and oscillator strengths:

 Excited State   1:      Singlet-A      1.6152 eV  767.59 nm  f=0.3694  <S**2>=0.000
     245 -> 248       -0.18180
     246 -> 247        0.68583
     245 <- 248       -0.11958
 This state for optimization and/or second-order correction.
 Total Energy, E(TD-HF/TD-DFT) =  -3007.79842384
 Copying the excited state density for this state as the 1-particle RhoCI density.

 Excited State   2:      Singlet-A      2.1941 eV  565.07 nm  f=0.1216  <S**2>=0.000
     245 -> 247        0.63990
     246 -> 248        0.29260

 Excited State   3:      Singlet-A      3.4697 eV  357.34 nm  f=0.0006  <S**2>=0.000
     243 -> 247       -0.35909
     244 -> 247        0.57264

 Excited State   4:      Singlet-A      3.5703 eV  347.27 nm  f=0.0048  <S**2>=0.000
     240 -> 247        0.43944
     240 -> 249       -0.28661
     240 -> 250        0.12361
     243 -> 247        0.26454
     244 -> 247        0.29087

 Excited State   5:      Singlet-A      3.5906 eV  345.30 nm  f=0.4686  <S**2>=0.000
     240 -> 247        0.25593
     240 -> 249       -0.12428
     243 -> 247       -0.23694
     244 -> 247       -0.12368
     245 -> 247       -0.21827
     246 -> 248        0.53250
     245 <- 247        0.10097

 The electronic state is 1-A.
 Alpha  occ. eigenvalues --  -46.94350 -19.30805 -19.29766 -19.26159 -19.24048
 Alpha  occ. eigenvalues --  -19.23590 -19.22963 -14.47124 -14.45668 -14.43729
 Alpha  occ. eigenvalues --  -14.43326 -10.43850 -10.42482 -10.38634 -10.38031
 Alpha  occ. eigenvalues --  -10.35940 -10.34836 -10.34797 -10.34707 -10.33696
 Alpha  occ. eigenvalues --  -10.33584 -10.33458 -10.33331 -10.33117 -10.32414
 Alpha  occ. eigenvalues --  -10.32348 -10.32280 -10.32122 -10.32016 -10.31882
 Alpha  occ. eigenvalues --  -10.31504 -10.31444 -10.31413 -10.31402 -10.31352
 Alpha  occ. eigenvalues --  -10.31221 -10.30986 -10.30935 -10.30739 -10.30633
 Alpha  occ. eigenvalues --  -10.30408 -10.30276 -10.30108 -10.29878 -10.29847
 Alpha  occ. eigenvalues --  -10.29744 -10.29548 -10.29393 -10.29351 -10.29273
 Alpha  occ. eigenvalues --  -10.29273 -10.29117 -10.29108 -10.29090 -10.28992
 Alpha  occ. eigenvalues --  -10.28882 -10.28871 -10.28827 -10.28760 -10.28752
 Alpha  occ. eigenvalues --  -10.28557 -10.28553 -10.28373 -10.28353 -10.28320
 Alpha  occ. eigenvalues --  -10.28309  -3.20422  -1.94019  -1.93537  -1.93409
 Alpha  occ. eigenvalues --   -1.19505  -1.18382  -1.11952  -1.11709  -1.11346
 Alpha  occ. eigenvalues --   -1.09499  -1.06551  -1.06077  -1.05223  -1.04282
 Alpha  occ. eigenvalues --   -0.94923  -0.93367  -0.91644  -0.91250  -0.91165
 Alpha  occ. eigenvalues --   -0.90713  -0.90504  -0.89803  -0.89122  -0.88805
 Alpha  occ. eigenvalues --   -0.88235  -0.87547  -0.86417  -0.85933  -0.84975
 Alpha  occ. eigenvalues --   -0.84326  -0.83780  -0.83154  -0.82930  -0.82073
 Alpha  occ. eigenvalues --   -0.81801  -0.80393  -0.79745  -0.79192  -0.78369
 Alpha  occ. eigenvalues --   -0.78013  -0.77992  -0.77142  -0.76388  -0.75798
 Alpha  occ. eigenvalues --   -0.75368  -0.74682  -0.73570  -0.72550  -0.71512
 Alpha  occ. eigenvalues --   -0.70428  -0.69804  -0.68745  -0.68565  -0.67308
 Alpha  occ. eigenvalues --   -0.67239  -0.66915  -0.66763  -0.66353  -0.65992
 Alpha  occ. eigenvalues --   -0.65549  -0.65054  -0.64762  -0.64007  -0.62194
 Alpha  occ. eigenvalues --   -0.61871  -0.61605  -0.61087  -0.60799  -0.60279
 Alpha  occ. eigenvalues --   -0.59191  -0.58932  -0.58600  -0.57922  -0.57802
 Alpha  occ. eigenvalues --   -0.57647  -0.56952  -0.56700  -0.56368  -0.56273
 Alpha  occ. eigenvalues --   -0.56041  -0.55649  -0.55359  -0.54904  -0.54831
 Alpha  occ. eigenvalues --   -0.54500  -0.54388  -0.54195  -0.53965  -0.53854
 Alpha  occ. eigenvalues --   -0.53667  -0.53442  -0.53003  -0.52778  -0.52378
 Alpha  occ. eigenvalues --   -0.52181  -0.51721  -0.51544  -0.51228  -0.51028
 Alpha  occ. eigenvalues --   -0.50955  -0.50928  -0.50760  -0.50610  -0.50492
 Alpha  occ. eigenvalues --   -0.50233  -0.50082  -0.50032  -0.49935  -0.49862
 Alpha  occ. eigenvalues --   -0.49544  -0.49199  -0.48946  -0.48847  -0.48633
 Alpha  occ. eigenvalues --   -0.48451  -0.48147  -0.48130  -0.47932  -0.47791
 Alpha  occ. eigenvalues --   -0.47656  -0.47483  -0.47208  -0.47166  -0.46756
 Alpha  occ. eigenvalues --   -0.46540  -0.46337  -0.46316  -0.45911  -0.45870
 Alpha  occ. eigenvalues --   -0.45675  -0.45532  -0.45212  -0.44990  -0.44910
 Alpha  occ. eigenvalues --   -0.44512  -0.44418  -0.44129  -0.44041  -0.43957
 Alpha  occ. eigenvalues --   -0.43834  -0.43549  -0.42925  -0.42816  -0.42748
 Alpha  occ. eigenvalues --   -0.42622  -0.42542  -0.42415  -0.42251  -0.41734
 Alpha  occ. eigenvalues --   -0.41598  -0.41446  -0.41102  -0.40929  -0.40748
 Alpha  occ. eigenvalues --   -0.40673  -0.40606  -0.40224  -0.39610  -0.39404
 Alpha  occ. eigenvalues --   -0.39279  -0.38971  -0.38582  -0.38456  -0.38309
 Alpha  occ. eigenvalues --   -0.37485  -0.37427  -0.37071  -0.36871  -0.35906
 Alpha  occ. eigenvalues --   -0.35776  -0.35758  -0.35255  -0.32965  -0.32796
 Alpha  occ. eigenvalues --   -0.32177  -0.32080  -0.31888  -0.31711  -0.25584
 Alpha  occ. eigenvalues --   -0.22455
 Alpha virt. eigenvalues --   -0.06670   0.00881   0.03021   0.04946   0.05679
 Alpha virt. eigenvalues --    0.06118   0.06748   0.07270   0.08391   0.09882
 Alpha virt. eigenvalues --    0.10696   0.10981   0.11672   0.12691   0.12776

 Mulliken charges:
               1
     1  Mg   0.969852
     2  C   -0.134122
     3  C   -0.084339
     4  C   -0.065329
     5  C   -0.090684
     6  N   -0.393587
     7  C    0.014680
     8  C   -0.145359
     9  C   -0.064051
    10  C    0.061382
    11  C   -0.002008
    12  C    0.034393
    13  C    0.032709
    14  C    0.212076
    15  O   -0.233313
    16  O   -0.364210
    17  N   -0.448593
    18  C    0.164384
    19  C   -0.154361
    20  C   -0.103102
    21  C    0.152537
    22  C    0.052792
    23  C    0.037496
    24  O   -0.242331
    25  C    0.017744
    26  N   -0.368186
    27  C    0.031468
    28  C   -0.057542
    29  C   -0.030784
    30  C    0.064405
    31  C    0.018658
    32  C   -0.018958
    33  C   -0.073201
    34  N   -0.390637
    35  C    0.083119
    36  C   -0.167894
    37  C   -0.011774
    38  C    0.202560
    39  C    0.043720
    40  C    0.090504
    41  O   -0.215214
    42  C    0.020617
    43  C    0.249454
    44  O   -0.252827
    45  O   -0.351318
    46  C    0.134586
    47  C    0.255156
    48  C   -0.148506
    49  C   -0.234616
    50  C    0.058920
    51  C    0.033142
    52  C   -0.013110
    53  C    0.003844
    54  C   -0.230859
    55  C   -0.011847
    56  C    0.016574
    57  C    0.008162
    58  C   -0.002330
    59  C   -0.209377
    60  C   -0.014650
    61  C   -0.007568
    62  C   -0.032279
    63  C   -0.003510
    64  C   -0.185253
    65  C    0.003371
    66  C   -0.008095
    67  H   -0.002532
    68  H    0.011307
    69  H   -0.001600
    70  H    0.087843
    71  H    0.039446
    72  H    0.033560
    73  H    0.045053
    74  H    0.035609
    75  H    0.038143
    76  H    0.047588
    77  H    0.052446
    78  H    0.053957
    79  H    0.020996
    80  H    0.063833
    81  H    0.051143
    82  H    0.037779
    83  H    0.046355
    84  H    0.062138
    85  H    0.043124
    86  H    0.036936
    87  H    0.046810
    88  H    0.033932
    89  H    0.034468
    90  H    0.032716
    91  H    0.045128
    92  H    0.051690
    93  H    0.019582
    94  H    0.044156
    95  H    0.053292
    96  H    0.057669
    97  H    0.061241
    98  H    0.062930
    99  H    0.052288
   100  H    0.048062
   101  H    0.060085
   102  H    0.042321
   103  H    0.037425
   104  H    0.009432
   105  H    0.044301
   106  H    0.045635
   107  H    0.032925
   108  H    0.026100
   109  H    0.032628
   110  H    0.025594
   111  H    0.037653
   112  H    0.020596
   113  H    0.006264
   114  H    0.023170
   115  H    0.025205
   116  H    0.027887
   117  H    0.029397
   118  H    0.020929
   119  H    0.018385
   120  H    0.022547
   121  H    0.033220
   122  H    0.018740
   123  H    0.012394
   124  H    0.010362
   125  H    0.025973
   126  H    0.033237
   127  H    0.028221
   128  H    0.007762
   129  H    0.026056
   130  H    0.023774
   131  H    0.027715
   132  H    0.016391
   133  H    0.020917
   134  H    0.020444
   135  H    0.023075
   136  H    0.041671
   137  H    0.016751
   138  H    0.043453
   139  H    0.016721
   140  H    0.014974
 Sum of Mulliken charges =  -0.00000

 Dipole moment (field-independent basis, Debye):
    X=              4.2544    Y=              0.9071    Z=             -3.1735  Tot=              5.3846
 Quadrupole moment (field-independent basis, Debye-Ang):
   XX=           -370.1217   YY=           -422.8069   ZZ=           -406.6772
   XY=             -1.9471   XZ=              7.1773   YZ=             14.2084

 Normal termination of Gaussian 16 at Wed Apr 27 10:02:06 2022.
