 Gaussian 16, Revision A.03,
 Gaussian 16:  ES64L-G16RevA.03 25-Dec-2016

 --------------------
 #p ZINDO=(nstates=5)
 --------------------

 -----------------------------
 step_1101_chromophore_9 ZINDO
 -----------------------------
 Symbolic Z-matrix:
 Charge =  0 Multiplicity = 1

                         Standard orientation:
 ---------------------------------------------------------------------
 Center     Atomic      Atomic             Coordinates (Angstroms)
 Number     Number       Type             X           Y           Z
 ---------------------------------------------------------------------
      1         12           0       -5.106707    0.695850   -0.290624
      2          6           0       -3.729181   -2.441990    0.001832
      3          6           0       -1.988839    2.069742   -0.200866
      4          6           0       -6.611114    3.613953   -0.217914
      5          6           0       -8.348945   -0.861735    0.502230
      6          7           0       -3.164600   -0.148792   -0.257976
      7          6           0       -2.757202   -1.448536   -0.259277
      8          6           0       -1.242538   -1.605028   -0.172888
      9          6           0       -0.744225   -0.142483   -0.063346
     10          6           0       -2.028968    0.645410   -0.117861
     11          6           0        0.209909    0.120919    1.158099
     12          6           0       -0.707815   -2.340639   -1.457043
     13          6           0        0.444354   -3.398641   -1.223210
     14          6           0        1.356962   -3.113749   -0.076322
     15          8           0        1.235210   -3.529848    1.043260
     16          8           0        2.445408   -2.385702   -0.556393
     17          7           0       -4.444770    2.618525   -0.350794
     18          6           0       -3.091363    2.972910   -0.275008
     19          6           0       -2.990278    4.393503   -0.378878
     20          6           0       -4.337972    4.856145   -0.496588
     21          6           0       -5.202233    3.650760   -0.413849
     22          6           0       -1.667386    5.210365   -0.249401
     23          6           0       -4.859191    6.301158   -0.472575
     24          8           0       -6.048830    6.591603   -0.495861
     25          6           0       -3.873389    7.412525   -0.425663
     26          7           0       -7.129035    1.312831    0.161468
     27          6           0       -7.473470    2.604615    0.053005
     28          6           0       -8.987233    2.836949    0.188828
     29          6           0       -9.499917    1.400671    0.334397
     30          6           0       -8.311305    0.539539    0.350376
     31          6           0       -9.533182    3.732658    1.314832
     32          6           0      -10.460900    0.947657   -0.845959
     33          6           0       -9.759411    0.402624   -2.145062
     34          7           0       -5.941923   -1.176232    0.260297
     35          6           0       -7.215166   -1.692723    0.489545
     36          6           0       -7.112687   -3.128142    0.645082
     37          6           0       -5.776418   -3.426381    0.437076
     38          6           0       -5.124577   -2.201548    0.231113
     39          6           0       -8.184397   -3.914241    0.976870
     40          6           0       -4.792686   -4.472007    0.538935
     41          8           0       -4.952046   -5.628477    0.916449
     42          6           0       -3.404686   -3.913050    0.214716
     43          6           0       -2.534844   -4.135145    1.318046
     44          8           0       -2.660750   -3.642773    2.439642
     45          8           0       -1.577499   -5.021452    0.929604
     46          6           0       -0.899001   -5.796956    1.919486
     47          6           0        3.506549   -2.146501    0.375050
     48          6           0        4.753444   -1.812380   -0.402129
     49          6           0        5.745084   -2.645161   -0.817434
     50          6           0        5.662400   -4.135839   -0.962948
     51          6           0        7.023174   -1.972365   -1.343491
     52          6           0        6.751124   -1.524834   -2.712164
     53          6           0        8.066360   -1.394621   -3.524472
     54          6           0        8.351178    0.124232   -4.001010
     55          6           0        8.302461    0.085896   -5.584750
     56          6           0        9.699249    0.795433   -3.557544
     57          6           0        9.599599    1.314723   -2.142639
     58          6           0       10.645209    0.656313   -1.215103
     59          6           0       11.489958    1.749228   -0.430396
     60          6           0       12.767510    2.212397   -1.264159
     61          6           0       11.745329    1.509429    1.121546
     62          6           0       10.740718    2.192082    2.108752
     63          6           0       11.390982    2.513552    3.496654
     64          6           0       10.829288    1.737680    4.717867
     65          6           0        9.357281    1.990303    4.956324
     66          6           0       11.809801    1.975571    5.887947
     67          1           0       -0.972393    2.468504   -0.194807
     68          1           0       -7.162000    4.551959   -0.313540
     69          1           0       -9.253682   -1.407908    0.778295
     70          1           0       -1.135559   -2.137012    0.772468
     71          1           0       -0.147204    0.060471   -0.952805
     72          1           0        1.253924    0.301919    0.902590
     73          1           0        0.236705   -0.706216    1.866572
     74          1           0       -0.097510    0.920163    1.832122
     75          1           0       -0.202925   -1.578657   -2.051294
     76          1           0       -1.608213   -2.693305   -1.959894
     77          1           0        1.081595   -3.532898   -2.097084
     78          1           0       -0.071178   -4.358235   -1.178309
     79          1           0       -0.805763    4.542496   -0.231626
     80          1           0       -1.579216    5.763702    0.686303
     81          1           0       -1.492971    5.838675   -1.123069
     82          1           0       -3.224386    7.241927   -1.284306
     83          1           0       -3.183900    7.288255    0.408633
     84          1           0       -4.476823    8.318850   -0.487821
     85          1           0       -9.132856    3.271732   -0.799196
     86          1           0       -9.999168    1.302046    1.298994
     87          1           0       -8.810641    4.043130    2.068980
     88          1           0      -10.392597    3.375653    1.881846
     89          1           0       -9.920960    4.662184    0.899298
     90          1           0      -10.829594    1.888055   -1.256529
     91          1           0      -11.243787    0.261325   -0.522669
     92          1           0       -8.719539    0.080621   -2.111488
     93          1           0       -9.630904    1.260878   -2.805590
     94          1           0      -10.379483   -0.318617   -2.677229
     95          1           0       -8.638065   -3.525841    1.888803
     96          1           0       -7.863942   -4.922999    1.238145
     97          1           0       -8.796862   -3.817996    0.080503
     98          1           0       -3.002188   -4.317836   -0.713410
     99          1           0        0.161434   -5.639606    1.724144
    100          1           0       -1.144216   -6.852404    1.798552
    101          1           0       -1.079481   -5.535950    2.962873
    102          1           0        3.765035   -2.999365    1.002631
    103          1           0        3.373026   -1.315550    1.068176
    104          1           0        5.055595   -0.765982   -0.454429
    105          1           0        6.423527   -4.676556   -0.401296
    106          1           0        5.780699   -4.390792   -2.015440
    107          1           0        4.693659   -4.417968   -0.550554
    108          1           0        7.822946   -2.701980   -1.221681
    109          1           0        7.133155   -1.081630   -0.725434
    110          1           0        6.357388   -0.518610   -2.568425
    111          1           0        6.073589   -2.124428   -3.320844
    112          1           0        8.023092   -2.153349   -4.306099
    113          1           0        9.014212   -1.658346   -3.053559
    114          1           0        7.535062    0.775547   -3.689580
    115          1           0        9.181930   -0.469562   -5.909482
    116          1           0        8.321720    1.103711   -5.973758
    117          1           0        7.415201   -0.449095   -5.922570
    118          1           0        9.872510    1.610501   -4.260275
    119          1           0       10.425889   -0.010864   -3.657029
    120          1           0        8.669826    0.979568   -1.682144
    121          1           0        9.781805    2.389335   -2.166704
    122          1           0       11.349095    0.048748   -1.783508
    123          1           0       10.137834    0.033127   -0.478759
    124          1           0       10.863245    2.640060   -0.472478
    125          1           0       13.654677    2.035079   -0.656560
    126          1           0       12.694046    3.280415   -1.468150
    127          1           0       12.950441    1.693904   -2.204744
    128          1           0       12.726154    1.941779    1.317646
    129          1           0       11.789230    0.426148    1.232703
    130          1           0       10.031317    1.371019    2.212585
    131          1           0       10.291188    3.029132    1.575146
    132          1           0       11.201894    3.577216    3.645277
    133          1           0       12.475611    2.501652    3.384148
    134          1           0       10.806620    0.659205    4.564806
    135          1           0        8.859967    1.103605    5.350235
    136          1           0        8.817844    2.315635    4.067397
    137          1           0        9.270324    2.659876    5.811530
    138          1           0       12.735949    1.406085    5.956500
    139          1           0       11.344276    1.938884    6.873502
    140          1           0       12.071168    3.029953    5.803727
 ---------------------------------------------------------------------

 SCF Done:  E(RZINDO/S) =  -474.630586661     A.U. after   20 cycles

 Excitation energies and oscillator strengths:

 Excited State   1:      Singlet-A      1.2229 eV 1013.85 nm  f=0.5987  <S**2>=0.000
     175 ->178        -0.18058
     176 ->177         0.66575
 This state for optimization and/or second-order correction.
 Total Energy, E(CIS/TDA) =  -474.585645553
 Copying the excited state density for this state as the 1-particle RhoCI density.

 Excited State   2:      Singlet-A      1.9088 eV  649.55 nm  f=0.0555  <S**2>=0.000
     175 ->177         0.55604
     176 ->178         0.40654

 Excited State   3:      Singlet-A      2.9247 eV  423.92 nm  f=0.0086  <S**2>=0.000
     167 ->179        -0.12407
     168 ->177         0.34753
     168 ->178        -0.15377
     168 ->179        -0.41288
     168 ->181         0.16596
     168 ->186        -0.19620
     176 ->179        -0.10052

 Excited State   4:      Singlet-A      2.9692 eV  417.56 nm  f=0.7906  <S**2>=0.000
     175 ->177        -0.31504
     176 ->178         0.49050
     176 ->179         0.31569

 Excited State   5:      Singlet-A      3.0619 eV  404.92 nm  f=0.0108  <S**2>=0.000
     170 ->177         0.28212
     170 ->179         0.22584
     170 ->181         0.41023
     170 ->182        -0.13893
     170 ->183        -0.11251
     170 ->186         0.17135
     170 ->187         0.25076

 The electronic state is 1-A.
 Alpha  occ. eigenvalues --   -1.86831  -1.82432  -1.80979  -1.74527  -1.73875
 Alpha  occ. eigenvalues --   -1.71746  -1.64875  -1.60400  -1.60202  -1.58207
 Alpha  occ. eigenvalues --   -1.56614  -1.51392  -1.49572  -1.48760  -1.46225
 Alpha  occ. eigenvalues --   -1.45160  -1.43476  -1.40869  -1.38464  -1.38365
 Alpha  occ. eigenvalues --   -1.37396  -1.35525  -1.32950  -1.30785  -1.29034
 Alpha  occ. eigenvalues --   -1.27136  -1.25444  -1.22236  -1.20614  -1.19462
 Alpha  occ. eigenvalues --   -1.17511  -1.17302  -1.15840  -1.14258  -1.12790
 Alpha  occ. eigenvalues --   -1.12396  -1.10200  -1.09547  -1.06273  -1.04561
 Alpha  occ. eigenvalues --   -1.02445  -1.01276  -0.97879  -0.97614  -0.97181
 Alpha  occ. eigenvalues --   -0.95570  -0.94422  -0.94335  -0.92247  -0.91189
 Alpha  occ. eigenvalues --   -0.90461  -0.90315  -0.89690  -0.88854  -0.87955
 Alpha  occ. eigenvalues --   -0.85446  -0.84404  -0.83577  -0.81317  -0.79889
 Alpha  occ. eigenvalues --   -0.79513  -0.78791  -0.77195  -0.76860  -0.76149
 Alpha  occ. eigenvalues --   -0.76033  -0.75935  -0.75420  -0.74780  -0.74645
 Alpha  occ. eigenvalues --   -0.72988  -0.72475  -0.72225  -0.71443  -0.70979
 Alpha  occ. eigenvalues --   -0.69853  -0.69321  -0.68161  -0.68101  -0.67705
 Alpha  occ. eigenvalues --   -0.67220  -0.66909  -0.66704  -0.66236  -0.65732
 Alpha  occ. eigenvalues --   -0.65306  -0.64884  -0.64352  -0.63929  -0.63345
 Alpha  occ. eigenvalues --   -0.63061  -0.62470  -0.62336  -0.61939  -0.61309
 Alpha  occ. eigenvalues --   -0.60968  -0.60508  -0.60088  -0.59422  -0.59153
 Alpha  occ. eigenvalues --   -0.59045  -0.58767  -0.58533  -0.58189  -0.58174
 Alpha  occ. eigenvalues --   -0.57292  -0.57194  -0.57027  -0.56501  -0.56458
 Alpha  occ. eigenvalues --   -0.55740  -0.55504  -0.55401  -0.54941  -0.54466
 Alpha  occ. eigenvalues --   -0.54434  -0.54215  -0.53653  -0.53150  -0.52826
 Alpha  occ. eigenvalues --   -0.52625  -0.52407  -0.51782  -0.51724  -0.51500
 Alpha  occ. eigenvalues --   -0.51341  -0.51241  -0.50921  -0.50666  -0.50195
 Alpha  occ. eigenvalues --   -0.49448  -0.49314  -0.49142  -0.48837  -0.48533
 Alpha  occ. eigenvalues --   -0.48127  -0.47839  -0.47736  -0.47464  -0.47311
 Alpha  occ. eigenvalues --   -0.47143  -0.46986  -0.46860  -0.46615  -0.46338
 Alpha  occ. eigenvalues --   -0.45902  -0.45568  -0.45334  -0.45173  -0.45014
 Alpha  occ. eigenvalues --   -0.44716  -0.44491  -0.44177  -0.44151  -0.43435
 Alpha  occ. eigenvalues --   -0.43350  -0.43195  -0.42804  -0.42685  -0.42363
 Alpha  occ. eigenvalues --   -0.41429  -0.41191  -0.40508  -0.39335  -0.38315
 Alpha  occ. eigenvalues --   -0.37836  -0.36589  -0.35062  -0.34717  -0.33882
 Alpha  occ. eigenvalues --   -0.33016  -0.32094  -0.31793  -0.31542  -0.26244
 Alpha  occ. eigenvalues --   -0.21285
 Alpha virt. eigenvalues --   -0.08245  -0.01459   0.00019   0.01756   0.01891
 Alpha virt. eigenvalues --    0.02470   0.03093   0.03305   0.04467   0.04988
 Alpha virt. eigenvalues --    0.06806   0.07736   0.08114   0.08389   0.08657

 Mulliken charges:
               1
     1  Mg   0.428865
     2  C   -0.063068
     3  C   -0.067754
     4  C   -0.074849
     5  C   -0.079841
     6  N   -0.275657
     7  C    0.127272
     8  C    0.002112
     9  C    0.011034
    10  C    0.091133
    11  C   -0.057172
    12  C   -0.024177
    13  C    0.002486
    14  C    0.478250
    15  O   -0.498222
    16  O   -0.269775
    17  N   -0.290727
    18  C    0.065875
    19  C   -0.005380
    20  C   -0.079369
    21  C    0.157377
    22  C   -0.045031
    23  C    0.321631
    24  O   -0.538642
    25  C   -0.036153
    26  N   -0.299901
    27  C    0.134951
    28  C    0.006307
    29  C    0.013070
    30  C    0.156051
    31  C   -0.049208
    32  C   -0.033083
    33  C   -0.063602
    34  N   -0.322354
    35  C    0.095389
    36  C    0.075440
    37  C   -0.063301
    38  C    0.138437
    39  C   -0.029960
    40  C    0.343680
    41  O   -0.527564
    42  C    0.061315
    43  C    0.511681
    44  O   -0.534918
    45  O   -0.272346
    46  C    0.077121
    47  C    0.109505
    48  C   -0.116714
    49  C   -0.000962
    50  C   -0.039567
    51  C   -0.017327
    52  C   -0.018558
    53  C   -0.048416
    54  C   -0.031173
    55  C   -0.065370
    56  C   -0.032251
    57  C   -0.036749
    58  C   -0.038354
    59  C   -0.033704
    60  C   -0.061540
    61  C   -0.040301
    62  C   -0.043359
    63  C   -0.030213
    64  C    0.001706
    65  C   -0.051843
    66  C   -0.059885
    67  H    0.031203
    68  H    0.035694
    69  H    0.029984
    70  H    0.059525
    71  H    0.028715
    72  H    0.019657
    73  H    0.024807
    74  H    0.021465
    75  H    0.024732
    76  H    0.033806
    77  H    0.030476
    78  H    0.036767
    79  H    0.014510
    80  H    0.033728
    81  H    0.028564
    82  H    0.033596
    83  H    0.041205
    84  H    0.046408
    85  H    0.040206
    86  H    0.032971
    87  H    0.027334
    88  H    0.018729
    89  H    0.015380
    90  H    0.022104
    91  H    0.029171
    92  H    0.032005
    93  H    0.009874
    94  H    0.020997
    95  H    0.035646
    96  H    0.033235
    97  H    0.044304
    98  H    0.049924
    99  H    0.037567
   100  H    0.033985
   101  H    0.052153
   102  H    0.046463
   103  H    0.041635
   104  H    0.019971
   105  H    0.028718
   106  H    0.032741
   107  H    0.023667
   108  H    0.025147
   109  H    0.026554
   110  H    0.023321
   111  H    0.027756
   112  H    0.017868
   113  H    0.016857
   114  H    0.019752
   115  H    0.017879
   116  H    0.015848
   117  H    0.015874
   118  H    0.021868
   119  H    0.025974
   120  H    0.025873
   121  H    0.029365
   122  H    0.021941
   123  H    0.015206
   124  H    0.010255
   125  H    0.015526
   126  H    0.018473
   127  H    0.021301
   128  H    0.015819
   129  H    0.021241
   130  H    0.017731
   131  H    0.030643
   132  H    0.011972
   133  H    0.022610
   134  H    0.014601
   135  H    0.012220
   136  H    0.027584
   137  H    0.016882
   138  H    0.027389
   139  H    0.012168
   140  H    0.010535
 Sum of Mulliken charges =  -0.00000

 Dipole moment (field-independent basis, Debye):
    X=              4.1958    Y=             -0.1235    Z=             -5.0871  Tot=              6.5953
 N-N= 4.385591525699D+03 E-N= 0.000000000000D+00  KE=-9.446333228727D+03
 Leave Link  601 at Wed Apr 27 10:14:16 2022, MaxMem=  6710886400 cpu:               0.8 elap:               0.0
 (Enter /sw/apps/gaussian-16.0/g16/l9999.exe)
 1\1\GINC-BP1-COMPUTE198\SP\RZINDO CIS\STO-3G\C55H74Mg1N4O6\OF15641\27-
 Apr-2022\0\\#p ZINDO=(nstates=5)\\step_1101_chromophore_9 ZINDO\\0,1\M
 g,0,35.855,1.387,29.554\C,0,33.785,2.221,32.171\C,0,38.548,1.547,31.63
 7\C,0,37.702,0.933,26.877\C,0,33.014,2.113,27.325\N,0,36.041,1.697,31.
 641\C,0,35.096,1.908,32.599\C,0,35.686,2.141,33.986\C,0,37.213,2.09,33
 .731\C,0,37.288,1.821,32.249\C,0,37.997,3.339,34.276\C,0,35.191,1.019,
 34.972\C,0,34.831,1.491,36.438\C,0,35.608,2.66,36.947\O,0,35.277,3.812

 Normal termination of Gaussian 16 at Wed Apr 27 10:14:16 2022.
