 Gaussian 16, Revision A.03,
 Gaussian 16:  ES64L-G16RevA.03 25-Dec-2016

 ------------------------------
 #p blyp/Def2SVP td=(nstates=5)
 ------------------------------

 --------------------------------------------------
 step_1401_chromophore_5 TDDFT with blyp functional
 --------------------------------------------------
 Symbolic Z-matrix:
 Charge =  0 Multiplicity = 1

                         Standard orientation:
 ---------------------------------------------------------------------
 Center     Atomic      Atomic             Coordinates (Angstroms)
 Number     Number       Type             X           Y           Z
 ---------------------------------------------------------------------
      1         12           0        5.417207    0.568851   -0.403269
      2          6           0        3.868164   -2.632934   -0.532343
      3          6           0        3.459632    1.447401   -3.087035
      4          6           0        6.313100    3.655365    0.245759
      5          6           0        7.143729   -0.590619    2.396792
      6          7           0        3.779678   -0.527227   -1.616076
      7          6           0        3.317591   -1.767855   -1.429446
      8          6           0        2.018807   -1.930839   -2.268366
      9          6           0        2.143338   -0.763430   -3.300964
     10          6           0        3.215254    0.099180   -2.663493
     11          6           0        2.516830   -1.199027   -4.737296
     12          6           0        0.738811   -1.852059   -1.359881
     13          6           0       -0.468270   -2.753370   -1.627041
     14          6           0       -1.816489   -2.120168   -1.969073
     15          8           0       -2.301519   -1.962354   -3.072039
     16          8           0       -2.357117   -1.709415   -0.748188
     17          7           0        4.930674    2.377447   -1.319954
     18          6           0        4.161977    2.554249   -2.455020
     19          6           0        4.276249    3.914494   -2.929834
     20          6           0        5.159694    4.552913   -1.995288
     21          6           0        5.507641    3.527743   -0.979816
     22          6           0        3.742872    4.483521   -4.116712
     23          6           0        5.531940    5.994757   -2.074385
     24          8           0        4.980407    6.737848   -2.863086
     25          6           0        6.530068    6.648111   -1.058264
     26          7           0        6.631805    1.373393    1.063275
     27          6           0        6.925688    2.714637    1.120585
     28          6           0        7.820968    3.079847    2.259962
     29          6           0        8.153471    1.691718    2.930861
     30          6           0        7.343582    0.711272    2.018439
     31          6           0        9.067222    4.025273    1.866933
     32          6           0        7.783046    1.479695    4.446260
     33          6           0        8.840982    0.883738    5.386602
     34          7           0        5.545224   -1.224867    0.770636
     35          6           0        6.311304   -1.605712    1.841439
     36          6           0        6.067137   -3.007775    2.221449
     37          6           0        5.023877   -3.429241    1.356739
     38          6           0        4.834420   -2.322537    0.449707
     39          6           0        6.696200   -3.659462    3.359991
     40          6           0        4.204100   -4.552749    1.011555
     41          8           0        4.046991   -5.704902    1.434402
     42          6           0        3.477351   -4.097955   -0.360601
     43          6           0        3.970884   -4.950204   -1.492673
     44          8           0        3.493860   -5.004678   -2.582713
     45          8           0        5.110193   -5.601929   -1.146434
     46          6           0        5.597118   -6.500332   -2.179002
     47          6           0       -3.621575   -1.032844   -0.835447
     48          6           0       -4.200372   -0.874813    0.532506
     49          6           0       -5.447965   -0.746953    0.934305
     50          6           0       -6.547410   -0.402530   -0.001940
     51          6           0       -5.911527   -0.938087    2.426355
     52          6           0       -5.647021    0.290140    3.327351
     53          6           0       -6.897809    0.850428    4.088165
     54          6           0       -7.790875    1.752501    3.213224
     55          6           0       -7.341467    3.211603    3.294726
     56          6           0       -9.296407    1.621027    3.508652
     57          6           0      -10.142912    1.187453    2.253522
     58          6           0      -10.577828   -0.289127    2.177719
     59          6           0      -11.278629   -0.505101    0.823185
     60          6           0      -11.127347   -1.878851    0.217062
     61          6           0      -12.798148   -0.356380    1.111923
     62          6           0      -13.435565    0.845395    0.364187
     63          6           0      -14.286553    0.417283   -0.891219
     64          6           0      -14.317887    1.524065   -2.016225
     65          6           0      -15.465583    1.402804   -3.015248
     66          6           0      -12.908999    1.395161   -2.724003
     67          1           0        2.876641    1.675629   -3.981484
     68          1           0        6.590512    4.692164    0.443736
     69          1           0        7.633519   -0.813040    3.347078
     70          1           0        1.928566   -2.917134   -2.723207
     71          1           0        1.254635   -0.142094   -3.412998
     72          1           0        3.570899   -1.038214   -4.965030
     73          1           0        1.968780   -0.477872   -5.343145
     74          1           0        2.187770   -2.217256   -4.942803
     75          1           0        0.384261   -0.824444   -1.435528
     76          1           0        1.027634   -2.067347   -0.331114
     77          1           0       -0.573235   -3.425048   -0.775049
     78          1           0       -0.250476   -3.396147   -2.480597
     79          1           0        2.881961    5.043313   -3.750527
     80          1           0        3.605967    3.716359   -4.878560
     81          1           0        4.528526    5.162777   -4.449837
     82          1           0        7.449011    6.062799   -1.061094
     83          1           0        5.972166    6.571160   -0.124704
     84          1           0        6.793196    7.693412   -1.216531
     85          1           0        7.189885    3.659270    2.933939
     86          1           0        9.230580    1.532487    2.871643
     87          1           0        9.133797    4.227486    0.797233
     88          1           0       10.065958    3.745368    2.202275
     89          1           0        8.852746    5.027010    2.238985
     90          1           0        6.838565    0.944118    4.539545
     91          1           0        7.676423    2.479000    4.866456
     92          1           0        8.762680    1.368028    6.359882
     93          1           0        9.838162    1.096870    5.002522
     94          1           0        8.681778   -0.191841    5.461118
     95          1           0        5.930723   -4.214344    3.902499
     96          1           0        7.067562   -2.815285    3.940429
     97          1           0        7.534233   -4.322018    3.142853
     98          1           0        2.424192   -4.379647   -0.354624
     99          1           0        5.819530   -6.043871   -3.142876
    100          1           0        4.836198   -7.280157   -2.208051
    101          1           0        6.530075   -6.870925   -1.755173
    102          1           0       -4.334771   -1.591092   -1.441575
    103          1           0       -3.447632   -0.048460   -1.268502
    104          1           0       -3.544329   -0.891417    1.403436
    105          1           0       -7.268524   -1.213767   -0.103265
    106          1           0       -6.025385   -0.031445   -0.883432
    107          1           0       -7.115077    0.376743    0.507077
    108          1           0       -5.362586   -1.736738    2.926343
    109          1           0       -6.957048   -1.245874    2.375351
    110          1           0       -5.256008    1.080086    2.684742
    111          1           0       -4.950526    0.004126    4.115654
    112          1           0       -6.482052    1.472458    4.880548
    113          1           0       -7.399546   -0.014640    4.520887
    114          1           0       -7.691131    1.306047    2.223895
    115          1           0       -8.119617    3.970959    3.375703
    116          1           0       -6.957375    3.511053    2.319022
    117          1           0       -6.566907    3.444766    4.024886
    118          1           0       -9.755537    2.557006    3.827796
    119          1           0       -9.446957    0.840421    4.253416
    120          1           0       -9.482397    1.291722    1.393353
    121          1           0      -10.980706    1.881725    2.182004
    122          1           0      -11.116430   -0.582001    3.079070
    123          1           0       -9.703663   -0.910523    1.985449
    124          1           0      -10.912666    0.096509   -0.009031
    125          1           0      -10.066512   -2.103863    0.333679
    126          1           0      -11.385839   -1.763632   -0.835313
    127          1           0      -11.637895   -2.702565    0.716186
    128          1           0      -12.908477   -0.229090    2.188481
    129          1           0      -13.317293   -1.263773    0.802908
    130          1           0      -12.737806    1.670603    0.219639
    131          1           0      -14.135432    1.280259    1.076822
    132          1           0      -15.281242    0.276563   -0.469678
    133          1           0      -13.846364   -0.519692   -1.234032
    134          1           0      -14.509087    2.460850   -1.492672
    135          1           0      -15.103041    0.777935   -3.832453
    136          1           0      -15.904697    2.361946   -3.289719
    137          1           0      -16.256108    0.792339   -2.578793
    138          1           0      -12.252545    2.258582   -2.608788
    139          1           0      -13.174153    1.376735   -3.780459
    140          1           0      -12.469200    0.439657   -2.439417
 ---------------------------------------------------------------------

 SCF Done:  E(RB-LYP) =  -3007.37449709     A.U. after   21 cycles

 Excitation energies and oscillator strengths:

 Excited State   1:      Singlet-A      1.7297 eV  716.81 nm  f=0.0044  <S**2>=0.000
     244 -> 247        0.70030
 This state for optimization and/or second-order correction.
 Total Energy, E(TD-HF/TD-DFT) =  -3007.31093336
 Copying the excited state density for this state as the 1-particle RhoCI density.

 Excited State   2:      Singlet-A      1.7668 eV  701.76 nm  f=0.0449  <S**2>=0.000
     243 -> 247        0.48556
     245 -> 247        0.41404
     246 -> 247       -0.28866

 Excited State   3:      Singlet-A      1.8279 eV  678.30 nm  f=0.2809  <S**2>=0.000
     243 -> 247        0.22627
     245 -> 247        0.17806
     245 -> 248        0.17909
     246 -> 247        0.62214
     246 <- 247       -0.13887

 Excited State   4:      Singlet-A      2.0392 eV  608.01 nm  f=0.0764  <S**2>=0.000
     243 -> 247       -0.44685
     245 -> 247        0.48783
     246 -> 248       -0.22735

 Excited State   5:      Singlet-A      2.1709 eV  571.11 nm  f=0.0002  <S**2>=0.000
     242 -> 247        0.70687

 The electronic state is 1-A.
 Alpha  occ. eigenvalues --  -46.28286 -18.81946 -18.81711 -18.77640 -18.76948
 Alpha  occ. eigenvalues --  -18.75518 -18.75194 -14.03444 -14.03337 -14.01504
 Alpha  occ. eigenvalues --  -14.01497 -10.04255 -10.03606  -9.99685  -9.99528
 Alpha  occ. eigenvalues --   -9.97741  -9.97415  -9.97218  -9.96749  -9.96712
 Alpha  occ. eigenvalues --   -9.96488  -9.96182  -9.96088  -9.95869  -9.95145
 Alpha  occ. eigenvalues --   -9.95071  -9.94665  -9.94022  -9.93761  -9.93692
 Alpha  occ. eigenvalues --   -9.93686  -9.93674  -9.93612  -9.93519  -9.93380
 Alpha  occ. eigenvalues --   -9.93204  -9.93138  -9.93110  -9.92942  -9.92551
 Alpha  occ. eigenvalues --   -9.92549  -9.92541  -9.92394  -9.92041  -9.92019
 Alpha  occ. eigenvalues --   -9.91998  -9.91961  -9.91955  -9.91881  -9.91831
 Alpha  occ. eigenvalues --   -9.91697  -9.91532  -9.91355  -9.91190  -9.91158
 Alpha  occ. eigenvalues --   -9.91141  -9.91126  -9.91081  -9.90926  -9.90866
 Alpha  occ. eigenvalues --   -9.90699  -9.90684  -9.90596  -9.90575  -9.90511
 Alpha  occ. eigenvalues --   -9.90402  -2.92796  -1.73228  -1.72661  -1.72523
 Alpha  occ. eigenvalues --   -0.99169  -0.97642  -0.91759  -0.91109  -0.90778
 Alpha  occ. eigenvalues --   -0.90055  -0.87238  -0.86495  -0.86145  -0.85509
 Alpha  occ. eigenvalues --   -0.75568  -0.73766  -0.73290  -0.72436  -0.72328
 Alpha  occ. eigenvalues --   -0.71937  -0.71852  -0.71295  -0.71157  -0.70859
 Alpha  occ. eigenvalues --   -0.70323  -0.69051  -0.67981  -0.67726  -0.67269
 Alpha  occ. eigenvalues --   -0.66259  -0.65925  -0.65187  -0.64864  -0.64676
 Alpha  occ. eigenvalues --   -0.64414  -0.62576  -0.62055  -0.61735  -0.61036
 Alpha  occ. eigenvalues --   -0.60474  -0.60193  -0.59913  -0.59721  -0.58493
 Alpha  occ. eigenvalues --   -0.58227  -0.57799  -0.57104  -0.55401  -0.54864
 Alpha  occ. eigenvalues --   -0.54428  -0.53784  -0.52926  -0.51882  -0.51791
 Alpha  occ. eigenvalues --   -0.51516  -0.50774  -0.50512  -0.50346  -0.49938
 Alpha  occ. eigenvalues --   -0.49574  -0.49074  -0.48776  -0.48730  -0.46390
 Alpha  occ. eigenvalues --   -0.46119  -0.45835  -0.45499  -0.45362  -0.44775
 Alpha  occ. eigenvalues --   -0.43922  -0.43597  -0.43248  -0.42891  -0.42424
 Alpha  occ. eigenvalues --   -0.42225  -0.41721  -0.41654  -0.41340  -0.41157
 Alpha  occ. eigenvalues --   -0.40981  -0.40872  -0.40620  -0.40442  -0.40291
 Alpha  occ. eigenvalues --   -0.40175  -0.40124  -0.39906  -0.39487  -0.39064
 Alpha  occ. eigenvalues --   -0.38995  -0.38565  -0.38496  -0.38345  -0.38209
 Alpha  occ. eigenvalues --   -0.38152  -0.38072  -0.37921  -0.37512  -0.37365
 Alpha  occ. eigenvalues --   -0.37233  -0.36975  -0.36752  -0.36685  -0.36548
 Alpha  occ. eigenvalues --   -0.36299  -0.36240  -0.36054  -0.35572  -0.35504
 Alpha  occ. eigenvalues --   -0.35374  -0.35279  -0.35011  -0.34699  -0.34639
 Alpha  occ. eigenvalues --   -0.34433  -0.34334  -0.34304  -0.34045  -0.33964
 Alpha  occ. eigenvalues --   -0.33792  -0.33728  -0.33635  -0.33610  -0.33460
 Alpha  occ. eigenvalues --   -0.33224  -0.32767  -0.32607  -0.32418  -0.32332
 Alpha  occ. eigenvalues --   -0.32109  -0.32000  -0.31834  -0.31630  -0.31444
 Alpha  occ. eigenvalues --   -0.31345  -0.31262  -0.30995  -0.30905  -0.30744
 Alpha  occ. eigenvalues --   -0.30531  -0.30332  -0.30181  -0.30056  -0.29905
 Alpha  occ. eigenvalues --   -0.29808  -0.29638  -0.29477  -0.29115  -0.28903
 Alpha  occ. eigenvalues --   -0.28832  -0.28744  -0.28539  -0.28226  -0.28133
 Alpha  occ. eigenvalues --   -0.27946  -0.27693  -0.26849  -0.26806  -0.26260
 Alpha  occ. eigenvalues --   -0.26154  -0.26128  -0.26018  -0.25601  -0.25519
 Alpha  occ. eigenvalues --   -0.25373  -0.25273  -0.24331  -0.24169  -0.23505
 Alpha  occ. eigenvalues --   -0.22922  -0.22896  -0.22324  -0.21772  -0.21022
 Alpha  occ. eigenvalues --   -0.20565  -0.19802  -0.18456  -0.18110  -0.17265
 Alpha  occ. eigenvalues --   -0.16091
 Alpha virt. eigenvalues --   -0.11825  -0.06835  -0.06406  -0.04626  -0.03295
 Alpha virt. eigenvalues --   -0.02750  -0.01814  -0.01590  -0.01195  -0.00326
 Alpha virt. eigenvalues --    0.01246   0.01333   0.01400   0.02262   0.03135

 Mulliken charges:
               1
     1  Mg   0.695533
     2  C    0.022493
     3  C   -0.052962
     4  C   -0.032489
     5  C   -0.080423
     6  N   -0.156009
     7  C   -0.107514
     8  C    0.040014
     9  C   -0.010719
    10  C   -0.008532
    11  C    0.135469
    12  C    0.115835
    13  C    0.148252
    14  C    0.068856
    15  O   -0.172110
    16  O   -0.286599
    17  N   -0.275825
    18  C    0.118652
    19  C   -0.159162
    20  C    0.037499
    21  C    0.095301
    22  C    0.224817
    23  C   -0.107636
    24  O   -0.168666
    25  C    0.122223
    26  N   -0.256594
    27  C    0.014100
    28  C    0.054188
    29  C    0.047624
    30  C    0.033990
    31  C    0.099457
    32  C    0.052500
    33  C    0.063757
    34  N   -0.216888
    35  C    0.112211
    36  C   -0.158277
    37  C    0.063851
    38  C    0.104345
    39  C    0.173557
    40  C   -0.014245
    41  O   -0.138161
    42  C   -0.013088
    43  C    0.095514
    44  O   -0.161193
    45  O   -0.250761
    46  C    0.227940
    47  C    0.343354
    48  C   -0.091689
    49  C   -0.214711
    50  C    0.177317
    51  C    0.138747
    52  C    0.056297
    53  C    0.087414
    54  C   -0.048754
    55  C    0.122557
    56  C    0.152848
    57  C   -0.001574
    58  C    0.139030
    59  C   -0.113810
    60  C    0.111289
    61  C    0.123716
    62  C    0.051258
    63  C    0.077993
    64  C   -0.121545
    65  C    0.137167
    66  C    0.119542
    67  H   -0.064408
    68  H   -0.099970
    69  H   -0.074294
    70  H   -0.028225
    71  H   -0.018670
    72  H   -0.006464
    73  H   -0.011437
    74  H    0.012492
    75  H   -0.020016
    76  H   -0.014350
    77  H   -0.004234
    78  H   -0.013837
    79  H    0.015615
    80  H   -0.012165
    81  H    0.008952
    82  H    0.007173
    83  H    0.026225
    84  H   -0.012213
    85  H   -0.010805
    86  H   -0.030528
    87  H   -0.003688
    88  H    0.000059
    89  H   -0.010775
    90  H   -0.004275
    91  H   -0.027471
    92  H   -0.006043
    93  H   -0.011181
    94  H    0.005407
    95  H    0.011179
    96  H   -0.021253
    97  H    0.010582
    98  H   -0.011797
    99  H    0.018237
   100  H    0.015712
   101  H    0.008452
   102  H    0.005061
   103  H   -0.004115
   104  H   -0.047980
   105  H    0.005029
   106  H   -0.007701
   107  H   -0.027948
   108  H   -0.027036
   109  H   -0.028361
   110  H   -0.022225
   111  H   -0.026262
   112  H   -0.037255
   113  H   -0.033927
   114  H   -0.038557
   115  H   -0.022715
   116  H   -0.029188
   117  H   -0.009553
   118  H   -0.038854
   119  H   -0.046696
   120  H   -0.034239
   121  H   -0.025078
   122  H   -0.015453
   123  H   -0.052820
   124  H   -0.029786
   125  H   -0.037967
   126  H   -0.009490
   127  H   -0.015414
   128  H   -0.043733
   129  H   -0.036124
   130  H   -0.026833
   131  H   -0.049460
   132  H   -0.032420
   133  H   -0.021742
   134  H   -0.035601
   135  H   -0.024193
   136  H   -0.003742
   137  H   -0.034947
   138  H   -0.006242
   139  H   -0.029730
   140  H   -0.005258
 Sum of Mulliken charges =  -0.00000

 Dipole moment (field-independent basis, Debye):
    X=              2.7972    Y=              1.8514    Z=              3.2724  Tot=              4.6862
 Quadrupole moment (field-independent basis, Debye-Ang):
   XX=           -344.7497   YY=           -440.6437   ZZ=           -406.4067
   XY=             -0.7437   XZ=              7.5479   YZ=             21.5432

 Normal termination of Gaussian 16 at Wed May  4 06:54:38 2022.
