 Gaussian 16, Revision A.03,
 Gaussian 16:  ES64L-G16RevA.03 25-Dec-2016

 -----------------------------------
 #p cam-b3lyp/Def2SVP td=(nstates=5)
 -----------------------------------

 -------------------------------------------------------
 step_1401_chromophore_5 TDDFT with cam-b3lyp functional
 -------------------------------------------------------
 Symbolic Z-matrix:
 Charge =  0 Multiplicity = 1

                         Standard orientation:
 ---------------------------------------------------------------------
 Center     Atomic      Atomic             Coordinates (Angstroms)
 Number     Number       Type             X           Y           Z
 ---------------------------------------------------------------------
      1         12           0        5.417207    0.568851   -0.403269
      2          6           0        3.868164   -2.632934   -0.532343
      3          6           0        3.459632    1.447401   -3.087035
      4          6           0        6.313100    3.655365    0.245759
      5          6           0        7.143729   -0.590619    2.396792
      6          7           0        3.779678   -0.527227   -1.616076
      7          6           0        3.317591   -1.767855   -1.429446
      8          6           0        2.018807   -1.930839   -2.268366
      9          6           0        2.143338   -0.763430   -3.300964
     10          6           0        3.215254    0.099180   -2.663493
     11          6           0        2.516830   -1.199027   -4.737296
     12          6           0        0.738811   -1.852059   -1.359881
     13          6           0       -0.468270   -2.753370   -1.627041
     14          6           0       -1.816489   -2.120168   -1.969073
     15          8           0       -2.301519   -1.962354   -3.072039
     16          8           0       -2.357117   -1.709415   -0.748188
     17          7           0        4.930674    2.377447   -1.319954
     18          6           0        4.161977    2.554249   -2.455020
     19          6           0        4.276249    3.914494   -2.929834
     20          6           0        5.159694    4.552913   -1.995288
     21          6           0        5.507641    3.527743   -0.979816
     22          6           0        3.742872    4.483521   -4.116712
     23          6           0        5.531940    5.994757   -2.074385
     24          8           0        4.980407    6.737848   -2.863086
     25          6           0        6.530068    6.648111   -1.058264
     26          7           0        6.631805    1.373393    1.063275
     27          6           0        6.925688    2.714637    1.120585
     28          6           0        7.820968    3.079847    2.259962
     29          6           0        8.153471    1.691718    2.930861
     30          6           0        7.343582    0.711272    2.018439
     31          6           0        9.067222    4.025273    1.866933
     32          6           0        7.783046    1.479695    4.446260
     33          6           0        8.840982    0.883738    5.386602
     34          7           0        5.545224   -1.224867    0.770636
     35          6           0        6.311304   -1.605712    1.841439
     36          6           0        6.067137   -3.007775    2.221449
     37          6           0        5.023877   -3.429241    1.356739
     38          6           0        4.834420   -2.322537    0.449707
     39          6           0        6.696200   -3.659462    3.359991
     40          6           0        4.204100   -4.552749    1.011555
     41          8           0        4.046991   -5.704902    1.434402
     42          6           0        3.477351   -4.097955   -0.360601
     43          6           0        3.970884   -4.950204   -1.492673
     44          8           0        3.493860   -5.004678   -2.582713
     45          8           0        5.110193   -5.601929   -1.146434
     46          6           0        5.597118   -6.500332   -2.179002
     47          6           0       -3.621575   -1.032844   -0.835447
     48          6           0       -4.200372   -0.874813    0.532506
     49          6           0       -5.447965   -0.746953    0.934305
     50          6           0       -6.547410   -0.402530   -0.001940
     51          6           0       -5.911527   -0.938087    2.426355
     52          6           0       -5.647021    0.290140    3.327351
     53          6           0       -6.897809    0.850428    4.088165
     54          6           0       -7.790875    1.752501    3.213224
     55          6           0       -7.341467    3.211603    3.294726
     56          6           0       -9.296407    1.621027    3.508652
     57          6           0      -10.142912    1.187453    2.253522
     58          6           0      -10.577828   -0.289127    2.177719
     59          6           0      -11.278629   -0.505101    0.823185
     60          6           0      -11.127347   -1.878851    0.217062
     61          6           0      -12.798148   -0.356380    1.111923
     62          6           0      -13.435565    0.845395    0.364187
     63          6           0      -14.286553    0.417283   -0.891219
     64          6           0      -14.317887    1.524065   -2.016225
     65          6           0      -15.465583    1.402804   -3.015248
     66          6           0      -12.908999    1.395161   -2.724003
     67          1           0        2.876641    1.675629   -3.981484
     68          1           0        6.590512    4.692164    0.443736
     69          1           0        7.633519   -0.813040    3.347078
     70          1           0        1.928566   -2.917134   -2.723207
     71          1           0        1.254635   -0.142094   -3.412998
     72          1           0        3.570899   -1.038214   -4.965030
     73          1           0        1.968780   -0.477872   -5.343145
     74          1           0        2.187770   -2.217256   -4.942803
     75          1           0        0.384261   -0.824444   -1.435528
     76          1           0        1.027634   -2.067347   -0.331114
     77          1           0       -0.573235   -3.425048   -0.775049
     78          1           0       -0.250476   -3.396147   -2.480597
     79          1           0        2.881961    5.043313   -3.750527
     80          1           0        3.605967    3.716359   -4.878560
     81          1           0        4.528526    5.162777   -4.449837
     82          1           0        7.449011    6.062799   -1.061094
     83          1           0        5.972166    6.571160   -0.124704
     84          1           0        6.793196    7.693412   -1.216531
     85          1           0        7.189885    3.659270    2.933939
     86          1           0        9.230580    1.532487    2.871643
     87          1           0        9.133797    4.227486    0.797233
     88          1           0       10.065958    3.745368    2.202275
     89          1           0        8.852746    5.027010    2.238985
     90          1           0        6.838565    0.944118    4.539545
     91          1           0        7.676423    2.479000    4.866456
     92          1           0        8.762680    1.368028    6.359882
     93          1           0        9.838162    1.096870    5.002522
     94          1           0        8.681778   -0.191841    5.461118
     95          1           0        5.930723   -4.214344    3.902499
     96          1           0        7.067562   -2.815285    3.940429
     97          1           0        7.534233   -4.322018    3.142853
     98          1           0        2.424192   -4.379647   -0.354624
     99          1           0        5.819530   -6.043871   -3.142876
    100          1           0        4.836198   -7.280157   -2.208051
    101          1           0        6.530075   -6.870925   -1.755173
    102          1           0       -4.334771   -1.591092   -1.441575
    103          1           0       -3.447632   -0.048460   -1.268502
    104          1           0       -3.544329   -0.891417    1.403436
    105          1           0       -7.268524   -1.213767   -0.103265
    106          1           0       -6.025385   -0.031445   -0.883432
    107          1           0       -7.115077    0.376743    0.507077
    108          1           0       -5.362586   -1.736738    2.926343
    109          1           0       -6.957048   -1.245874    2.375351
    110          1           0       -5.256008    1.080086    2.684742
    111          1           0       -4.950526    0.004126    4.115654
    112          1           0       -6.482052    1.472458    4.880548
    113          1           0       -7.399546   -0.014640    4.520887
    114          1           0       -7.691131    1.306047    2.223895
    115          1           0       -8.119617    3.970959    3.375703
    116          1           0       -6.957375    3.511053    2.319022
    117          1           0       -6.566907    3.444766    4.024886
    118          1           0       -9.755537    2.557006    3.827796
    119          1           0       -9.446957    0.840421    4.253416
    120          1           0       -9.482397    1.291722    1.393353
    121          1           0      -10.980706    1.881725    2.182004
    122          1           0      -11.116430   -0.582001    3.079070
    123          1           0       -9.703663   -0.910523    1.985449
    124          1           0      -10.912666    0.096509   -0.009031
    125          1           0      -10.066512   -2.103863    0.333679
    126          1           0      -11.385839   -1.763632   -0.835313
    127          1           0      -11.637895   -2.702565    0.716186
    128          1           0      -12.908477   -0.229090    2.188481
    129          1           0      -13.317293   -1.263773    0.802908
    130          1           0      -12.737806    1.670603    0.219639
    131          1           0      -14.135432    1.280259    1.076822
    132          1           0      -15.281242    0.276563   -0.469678
    133          1           0      -13.846364   -0.519692   -1.234032
    134          1           0      -14.509087    2.460850   -1.492672
    135          1           0      -15.103041    0.777935   -3.832453
    136          1           0      -15.904697    2.361946   -3.289719
    137          1           0      -16.256108    0.792339   -2.578793
    138          1           0      -12.252545    2.258582   -2.608788
    139          1           0      -13.174153    1.376735   -3.780459
    140          1           0      -12.469200    0.439657   -2.439417
 ---------------------------------------------------------------------

 SCF Done:  E(RCAM-B3LYP) =  -3007.17297466     A.U. after   17 cycles

 Excitation energies and oscillator strengths:

 Excited State   1:      Singlet-A      1.7069 eV  726.38 nm  f=0.3913  <S**2>=0.000
     245 -> 248       -0.18198
     246 -> 247        0.68580
     245 <- 248       -0.10862
 This state for optimization and/or second-order correction.
 Total Energy, E(TD-HF/TD-DFT) =  -3007.11024771
 Copying the excited state density for this state as the 1-particle RhoCI density.

 Excited State   2:      Singlet-A      2.2137 eV  560.09 nm  f=0.1404  <S**2>=0.000
     245 -> 247        0.65021
     246 -> 248        0.26838

 Excited State   3:      Singlet-A      3.3194 eV  373.51 nm  f=0.0059  <S**2>=0.000
     241 -> 247        0.20194
     241 -> 249        0.15111
     242 -> 247        0.22336
     242 -> 249        0.12786
     243 -> 247        0.56702

 Excited State   4:      Singlet-A      3.3463 eV  370.51 nm  f=0.0067  <S**2>=0.000
     239 -> 247        0.14676
     239 -> 249        0.10926
     240 -> 247        0.11450
     241 -> 247        0.23212
     241 -> 249        0.12308
     242 -> 247        0.38309
     242 -> 249        0.19004
     243 -> 247       -0.35684
     246 -> 248       -0.13373

 Excited State   5:      Singlet-A      3.5267 eV  351.56 nm  f=0.0027  <S**2>=0.000
     240 -> 247       -0.32543
     240 -> 249        0.16166
     240 -> 251       -0.15529
     241 -> 247        0.45735
     242 -> 247       -0.26780
     243 -> 251       -0.11484

 The electronic state is 1-A.
 Alpha  occ. eigenvalues --  -46.89941 -19.24808 -19.24527 -19.20714 -19.19968
 Alpha  occ. eigenvalues --  -19.18699 -19.18448 -14.42420 -14.42164 -14.40114
 Alpha  occ. eigenvalues --  -14.39982 -10.39639 -10.38875 -10.34958 -10.34934
 Alpha  occ. eigenvalues --  -10.31865 -10.31727 -10.31482 -10.31299 -10.31278
 Alpha  occ. eigenvalues --  -10.30810 -10.30609 -10.30580 -10.30071 -10.29431
 Alpha  occ. eigenvalues --  -10.29060 -10.28624 -10.28405 -10.28335 -10.28291
 Alpha  occ. eigenvalues --  -10.28180 -10.28111 -10.27767 -10.27619 -10.27272
 Alpha  occ. eigenvalues --  -10.27202 -10.27005 -10.26946 -10.26929 -10.26834
 Alpha  occ. eigenvalues --  -10.26440 -10.26227 -10.26165 -10.26119 -10.25999
 Alpha  occ. eigenvalues --  -10.25841 -10.25727 -10.25721 -10.25676 -10.25574
 Alpha  occ. eigenvalues --  -10.25476 -10.25219 -10.25187 -10.24865 -10.24846
 Alpha  occ. eigenvalues --  -10.24839 -10.24834 -10.24762 -10.24598 -10.24487
 Alpha  occ. eigenvalues --  -10.24471 -10.24350 -10.24275 -10.24149 -10.24120
 Alpha  occ. eigenvalues --  -10.24070  -3.18350  -1.93259  -1.92787  -1.92664
 Alpha  occ. eigenvalues --   -1.17718  -1.16122  -1.10240  -1.09099  -1.08705
 Alpha  occ. eigenvalues --   -1.08297  -1.05098  -1.04178  -1.03846  -1.03066
 Alpha  occ. eigenvalues --   -0.92757  -0.90670  -0.90135  -0.89210  -0.89039
 Alpha  occ. eigenvalues --   -0.88630  -0.88568  -0.87946  -0.87835  -0.87463
 Alpha  occ. eigenvalues --   -0.86898  -0.85493  -0.84264  -0.83848  -0.83493
 Alpha  occ. eigenvalues --   -0.82280  -0.82006  -0.81154  -0.80818  -0.80544
 Alpha  occ. eigenvalues --   -0.80227  -0.78272  -0.77559  -0.77492  -0.76480
 Alpha  occ. eigenvalues --   -0.75816  -0.75540  -0.75256  -0.75032  -0.73701
 Alpha  occ. eigenvalues --   -0.73300  -0.72817  -0.72065  -0.70259  -0.69411
 Alpha  occ. eigenvalues --   -0.69115  -0.68372  -0.67562  -0.66273  -0.65921
 Alpha  occ. eigenvalues --   -0.65656  -0.64826  -0.64541  -0.64458  -0.63808
 Alpha  occ. eigenvalues --   -0.63576  -0.63024  -0.62652  -0.62458  -0.60041
 Alpha  occ. eigenvalues --   -0.59769  -0.59396  -0.59012  -0.58710  -0.58363
 Alpha  occ. eigenvalues --   -0.57429  -0.56886  -0.56501  -0.56225  -0.55626
 Alpha  occ. eigenvalues --   -0.55458  -0.54873  -0.54464  -0.54375  -0.54164
 Alpha  occ. eigenvalues --   -0.53983  -0.53560  -0.53479  -0.53147  -0.52940
 Alpha  occ. eigenvalues --   -0.52869  -0.52672  -0.52639  -0.52114  -0.51804
 Alpha  occ. eigenvalues --   -0.51386  -0.51373  -0.51177  -0.50927  -0.50730
 Alpha  occ. eigenvalues --   -0.50445  -0.50380  -0.50237  -0.49892  -0.49831
 Alpha  occ. eigenvalues --   -0.49603  -0.49475  -0.49266  -0.48954  -0.48766
 Alpha  occ. eigenvalues --   -0.48668  -0.48384  -0.48249  -0.47890  -0.47631
 Alpha  occ. eigenvalues --   -0.47488  -0.47404  -0.47169  -0.46882  -0.46511
 Alpha  occ. eigenvalues --   -0.46454  -0.46279  -0.46095  -0.45975  -0.45764
 Alpha  occ. eigenvalues --   -0.45691  -0.45646  -0.45622  -0.45353  -0.45186
 Alpha  occ. eigenvalues --   -0.44932  -0.44576  -0.44276  -0.44126  -0.44032
 Alpha  occ. eigenvalues --   -0.43858  -0.43621  -0.43441  -0.43172  -0.43094
 Alpha  occ. eigenvalues --   -0.42931  -0.42774  -0.42428  -0.42325  -0.42183
 Alpha  occ. eigenvalues --   -0.42137  -0.41935  -0.41805  -0.41349  -0.41277
 Alpha  occ. eigenvalues --   -0.41159  -0.40729  -0.40687  -0.40297  -0.40033
 Alpha  occ. eigenvalues --   -0.39867  -0.39734  -0.39620  -0.39199  -0.39144
 Alpha  occ. eigenvalues --   -0.38847  -0.38596  -0.38166  -0.37580  -0.37292
 Alpha  occ. eigenvalues --   -0.37176  -0.37138  -0.36952  -0.36676  -0.36542
 Alpha  occ. eigenvalues --   -0.36117  -0.35837  -0.35217  -0.34859  -0.34645
 Alpha  occ. eigenvalues --   -0.34305  -0.33271  -0.32982  -0.31479  -0.30649
 Alpha  occ. eigenvalues --   -0.30349  -0.30075  -0.29768  -0.29496  -0.24160
 Alpha  occ. eigenvalues --   -0.21454
 Alpha virt. eigenvalues --   -0.09094  -0.01700   0.00023   0.02075   0.02322
 Alpha virt. eigenvalues --    0.04519   0.04902   0.06076   0.06296   0.06645
 Alpha virt. eigenvalues --    0.07458   0.07916   0.08281   0.08992   0.09298

 Mulliken charges:
               1
     1  Mg   0.827813
     2  C   -0.016850
     3  C   -0.058457
     4  C   -0.057659
     5  C   -0.091120
     6  N   -0.223140
     7  C   -0.065907
     8  C   -0.008682
     9  C   -0.067663
    10  C    0.008486
    11  C    0.079513
    12  C    0.066143
    13  C    0.078403
    14  C    0.148791
    15  O   -0.212610
    16  O   -0.350500
    17  N   -0.363750
    18  C    0.123826
    19  C   -0.151992
    20  C   -0.037473
    21  C    0.128404
    22  C    0.156719
    23  C   -0.032874
    24  O   -0.209264
    25  C    0.046408
    26  N   -0.335125
    27  C    0.043434
    28  C   -0.005896
    29  C   -0.003024
    30  C    0.059717
    31  C    0.042568
    32  C   -0.011382
    33  C    0.007798
    34  N   -0.301646
    35  C    0.109069
    36  C   -0.147276
    37  C   -0.017812
    38  C    0.144441
    39  C    0.122990
    40  C    0.089057
    41  O   -0.176819
    42  C   -0.082348
    43  C    0.191048
    44  O   -0.203258
    45  O   -0.314728
    46  C    0.185593
    47  C    0.309372
    48  C   -0.112860
    49  C   -0.234449
    50  C    0.117566
    51  C    0.080913
    52  C    0.004355
    53  C    0.037630
    54  C   -0.106095
    55  C    0.061024
    56  C    0.100669
    57  C   -0.045082
    58  C    0.082897
    59  C   -0.171103
    60  C    0.060417
    61  C    0.069305
    62  C   -0.001282
    63  C    0.028063
    64  C   -0.178483
    65  C    0.075259
    66  C    0.059497
    67  H   -0.027935
    68  H   -0.064785
    69  H   -0.043216
    70  H    0.008307
    71  H    0.016531
    72  H    0.019352
    73  H    0.011597
    74  H    0.037003
    75  H    0.009816
    76  H    0.017351
    77  H    0.029528
    78  H    0.018796
    79  H    0.045433
    80  H    0.014585
    81  H    0.039181
    82  H    0.032491
    83  H    0.050172
    84  H    0.023787
    85  H    0.024856
    86  H    0.003592
    87  H    0.020350
    88  H    0.025220
    89  H    0.012684
    90  H    0.026243
    91  H    0.001608
    92  H    0.018715
    93  H    0.010991
    94  H    0.024912
    95  H    0.036805
    96  H    0.000699
    97  H    0.037537
    98  H    0.027916
    99  H    0.041339
   100  H    0.038287
   101  H    0.032851
   102  H    0.032835
   103  H    0.023548
   104  H   -0.012692
   105  H    0.027519
   106  H    0.015802
   107  H   -0.007338
   108  H    0.005356
   109  H   -0.001015
   110  H    0.005716
   111  H    0.003436
   112  H   -0.007953
   113  H   -0.005701
   114  H   -0.015358
   115  H    0.003066
   116  H   -0.004006
   117  H    0.014423
   118  H   -0.008200
   119  H   -0.016987
   120  H   -0.009513
   121  H    0.001389
   122  H    0.012079
   123  H   -0.029437
   124  H    0.001007
   125  H   -0.015405
   126  H    0.012382
   127  H    0.009205
   128  H   -0.013037
   129  H   -0.006308
   130  H   -0.001372
   131  H   -0.018708
   132  H   -0.003833
   133  H    0.001764
   134  H   -0.004437
   135  H   -0.000253
   136  H    0.020773
   137  H   -0.009030
   138  H    0.017722
   139  H   -0.004383
   140  H    0.013771
 Sum of Mulliken charges =  -0.00000

 Dipole moment (field-independent basis, Debye):
    X=              2.9219    Y=              2.2798    Z=              3.1614  Tot=              4.8712
 Quadrupole moment (field-independent basis, Debye-Ang):
   XX=           -342.3127   YY=           -438.5182   ZZ=           -405.3119
   XY=              3.0580   XZ=              7.0504   YZ=             21.8060

 Normal termination of Gaussian 16 at Wed May  4 06:00:43 2022.
