 Gaussian 16, Revision A.03,
 Gaussian 16:  ES64L-G16RevA.03 25-Dec-2016

 ---------------------------------
 #p PBE1PBE/Def2SVP td=(nstates=5)
 ---------------------------------

 -----------------------------------------------------
 step_1401_chromophore_5 TDDFT with PBE1PBE functional
 -----------------------------------------------------
 Symbolic Z-matrix:
 Charge =  0 Multiplicity = 1

                         Standard orientation:
 ---------------------------------------------------------------------
 Center     Atomic      Atomic             Coordinates (Angstroms)
 Number     Number       Type             X           Y           Z
 ---------------------------------------------------------------------
      1         12           0        5.417207    0.568851   -0.403269
      2          6           0        3.868164   -2.632934   -0.532343
      3          6           0        3.459632    1.447401   -3.087035
      4          6           0        6.313100    3.655365    0.245759
      5          6           0        7.143729   -0.590619    2.396792
      6          7           0        3.779678   -0.527227   -1.616076
      7          6           0        3.317591   -1.767855   -1.429446
      8          6           0        2.018807   -1.930839   -2.268366
      9          6           0        2.143338   -0.763430   -3.300964
     10          6           0        3.215254    0.099180   -2.663493
     11          6           0        2.516830   -1.199027   -4.737296
     12          6           0        0.738811   -1.852059   -1.359881
     13          6           0       -0.468270   -2.753370   -1.627041
     14          6           0       -1.816489   -2.120168   -1.969073
     15          8           0       -2.301519   -1.962354   -3.072039
     16          8           0       -2.357117   -1.709415   -0.748188
     17          7           0        4.930674    2.377447   -1.319954
     18          6           0        4.161977    2.554249   -2.455020
     19          6           0        4.276249    3.914494   -2.929834
     20          6           0        5.159694    4.552913   -1.995288
     21          6           0        5.507641    3.527743   -0.979816
     22          6           0        3.742872    4.483521   -4.116712
     23          6           0        5.531940    5.994757   -2.074385
     24          8           0        4.980407    6.737848   -2.863086
     25          6           0        6.530068    6.648111   -1.058264
     26          7           0        6.631805    1.373393    1.063275
     27          6           0        6.925688    2.714637    1.120585
     28          6           0        7.820968    3.079847    2.259962
     29          6           0        8.153471    1.691718    2.930861
     30          6           0        7.343582    0.711272    2.018439
     31          6           0        9.067222    4.025273    1.866933
     32          6           0        7.783046    1.479695    4.446260
     33          6           0        8.840982    0.883738    5.386602
     34          7           0        5.545224   -1.224867    0.770636
     35          6           0        6.311304   -1.605712    1.841439
     36          6           0        6.067137   -3.007775    2.221449
     37          6           0        5.023877   -3.429241    1.356739
     38          6           0        4.834420   -2.322537    0.449707
     39          6           0        6.696200   -3.659462    3.359991
     40          6           0        4.204100   -4.552749    1.011555
     41          8           0        4.046991   -5.704902    1.434402
     42          6           0        3.477351   -4.097955   -0.360601
     43          6           0        3.970884   -4.950204   -1.492673
     44          8           0        3.493860   -5.004678   -2.582713
     45          8           0        5.110193   -5.601929   -1.146434
     46          6           0        5.597118   -6.500332   -2.179002
     47          6           0       -3.621575   -1.032844   -0.835447
     48          6           0       -4.200372   -0.874813    0.532506
     49          6           0       -5.447965   -0.746953    0.934305
     50          6           0       -6.547410   -0.402530   -0.001940
     51          6           0       -5.911527   -0.938087    2.426355
     52          6           0       -5.647021    0.290140    3.327351
     53          6           0       -6.897809    0.850428    4.088165
     54          6           0       -7.790875    1.752501    3.213224
     55          6           0       -7.341467    3.211603    3.294726
     56          6           0       -9.296407    1.621027    3.508652
     57          6           0      -10.142912    1.187453    2.253522
     58          6           0      -10.577828   -0.289127    2.177719
     59          6           0      -11.278629   -0.505101    0.823185
     60          6           0      -11.127347   -1.878851    0.217062
     61          6           0      -12.798148   -0.356380    1.111923
     62          6           0      -13.435565    0.845395    0.364187
     63          6           0      -14.286553    0.417283   -0.891219
     64          6           0      -14.317887    1.524065   -2.016225
     65          6           0      -15.465583    1.402804   -3.015248
     66          6           0      -12.908999    1.395161   -2.724003
     67          1           0        2.876641    1.675629   -3.981484
     68          1           0        6.590512    4.692164    0.443736
     69          1           0        7.633519   -0.813040    3.347078
     70          1           0        1.928566   -2.917134   -2.723207
     71          1           0        1.254635   -0.142094   -3.412998
     72          1           0        3.570899   -1.038214   -4.965030
     73          1           0        1.968780   -0.477872   -5.343145
     74          1           0        2.187770   -2.217256   -4.942803
     75          1           0        0.384261   -0.824444   -1.435528
     76          1           0        1.027634   -2.067347   -0.331114
     77          1           0       -0.573235   -3.425048   -0.775049
     78          1           0       -0.250476   -3.396147   -2.480597
     79          1           0        2.881961    5.043313   -3.750527
     80          1           0        3.605967    3.716359   -4.878560
     81          1           0        4.528526    5.162777   -4.449837
     82          1           0        7.449011    6.062799   -1.061094
     83          1           0        5.972166    6.571160   -0.124704
     84          1           0        6.793196    7.693412   -1.216531
     85          1           0        7.189885    3.659270    2.933939
     86          1           0        9.230580    1.532487    2.871643
     87          1           0        9.133797    4.227486    0.797233
     88          1           0       10.065958    3.745368    2.202275
     89          1           0        8.852746    5.027010    2.238985
     90          1           0        6.838565    0.944118    4.539545
     91          1           0        7.676423    2.479000    4.866456
     92          1           0        8.762680    1.368028    6.359882
     93          1           0        9.838162    1.096870    5.002522
     94          1           0        8.681778   -0.191841    5.461118
     95          1           0        5.930723   -4.214344    3.902499
     96          1           0        7.067562   -2.815285    3.940429
     97          1           0        7.534233   -4.322018    3.142853
     98          1           0        2.424192   -4.379647   -0.354624
     99          1           0        5.819530   -6.043871   -3.142876
    100          1           0        4.836198   -7.280157   -2.208051
    101          1           0        6.530075   -6.870925   -1.755173
    102          1           0       -4.334771   -1.591092   -1.441575
    103          1           0       -3.447632   -0.048460   -1.268502
    104          1           0       -3.544329   -0.891417    1.403436
    105          1           0       -7.268524   -1.213767   -0.103265
    106          1           0       -6.025385   -0.031445   -0.883432
    107          1           0       -7.115077    0.376743    0.507077
    108          1           0       -5.362586   -1.736738    2.926343
    109          1           0       -6.957048   -1.245874    2.375351
    110          1           0       -5.256008    1.080086    2.684742
    111          1           0       -4.950526    0.004126    4.115654
    112          1           0       -6.482052    1.472458    4.880548
    113          1           0       -7.399546   -0.014640    4.520887
    114          1           0       -7.691131    1.306047    2.223895
    115          1           0       -8.119617    3.970959    3.375703
    116          1           0       -6.957375    3.511053    2.319022
    117          1           0       -6.566907    3.444766    4.024886
    118          1           0       -9.755537    2.557006    3.827796
    119          1           0       -9.446957    0.840421    4.253416
    120          1           0       -9.482397    1.291722    1.393353
    121          1           0      -10.980706    1.881725    2.182004
    122          1           0      -11.116430   -0.582001    3.079070
    123          1           0       -9.703663   -0.910523    1.985449
    124          1           0      -10.912666    0.096509   -0.009031
    125          1           0      -10.066512   -2.103863    0.333679
    126          1           0      -11.385839   -1.763632   -0.835313
    127          1           0      -11.637895   -2.702565    0.716186
    128          1           0      -12.908477   -0.229090    2.188481
    129          1           0      -13.317293   -1.263773    0.802908
    130          1           0      -12.737806    1.670603    0.219639
    131          1           0      -14.135432    1.280259    1.076822
    132          1           0      -15.281242    0.276563   -0.469678
    133          1           0      -13.846364   -0.519692   -1.234032
    134          1           0      -14.509087    2.460850   -1.492672
    135          1           0      -15.103041    0.777935   -3.832453
    136          1           0      -15.904697    2.361946   -3.289719
    137          1           0      -16.256108    0.792339   -2.578793
    138          1           0      -12.252545    2.258582   -2.608788
    139          1           0      -13.174153    1.376735   -3.780459
    140          1           0      -12.469200    0.439657   -2.439417
 ---------------------------------------------------------------------

 SCF Done:  E(RPBE1PBE) =  -3005.36278677     A.U. after   15 cycles

 Excitation energies and oscillator strengths:

 Excited State   1:      Singlet-A      1.8628 eV  665.57 nm  f=0.3717  <S**2>=0.000
     245 -> 248       -0.17769
     246 -> 247        0.69283
     246 <- 247       -0.11007
 This state for optimization and/or second-order correction.
 Total Energy, E(TD-HF/TD-DFT) =  -3005.29432926
 Copying the excited state density for this state as the 1-particle RhoCI density.

 Excited State   2:      Singlet-A      2.2062 eV  561.99 nm  f=0.1363  <S**2>=0.000
     245 -> 247        0.66053
     246 -> 248        0.24255

 Excited State   3:      Singlet-A      2.8332 eV  437.61 nm  f=0.0016  <S**2>=0.000
     242 -> 247        0.46760
     242 -> 249        0.14033
     243 -> 247        0.48491

 Excited State   4:      Singlet-A      2.8528 eV  434.60 nm  f=0.0007  <S**2>=0.000
     242 -> 247       -0.46832
     243 -> 247        0.48547

 Excited State   5:      Singlet-A      3.0834 eV  402.11 nm  f=0.0009  <S**2>=0.000
     241 -> 247        0.69068

 The electronic state is 1-A.
 Alpha  occ. eigenvalues --  -46.93320 -19.25527 -19.25171 -19.20981 -19.20191
 Alpha  occ. eigenvalues --  -19.18991 -19.18644 -14.41804 -14.41757 -14.39672
 Alpha  occ. eigenvalues --  -14.39648 -10.36688 -10.35870 -10.32143 -10.32056
 Alpha  occ. eigenvalues --  -10.29506 -10.29099 -10.29028 -10.28940 -10.28623
 Alpha  occ. eigenvalues --  -10.28471 -10.28333 -10.28217 -10.27898 -10.27213
 Alpha  occ. eigenvalues --  -10.26895 -10.26518 -10.26187 -10.25809 -10.25805
 Alpha  occ. eigenvalues --  -10.25787 -10.25769 -10.25593 -10.25380 -10.25056
 Alpha  occ. eigenvalues --  -10.24712 -10.24647 -10.24622 -10.24538 -10.24422
 Alpha  occ. eigenvalues --  -10.24213 -10.23771 -10.23651 -10.23625 -10.23514
 Alpha  occ. eigenvalues --  -10.23487 -10.23393 -10.23291 -10.23283 -10.23126
 Alpha  occ. eigenvalues --  -10.22862 -10.22773 -10.22554 -10.22527 -10.22443
 Alpha  occ. eigenvalues --  -10.22417 -10.22386 -10.22339 -10.22122 -10.21922
 Alpha  occ. eigenvalues --  -10.21882 -10.21876 -10.21823 -10.21656 -10.21531
 Alpha  occ. eigenvalues --  -10.21528  -3.15312  -1.88161  -1.87668  -1.87547
 Alpha  occ. eigenvalues --   -1.12480  -1.10940  -1.04951  -1.03907  -1.03591
 Alpha  occ. eigenvalues --   -1.03101  -0.99672  -0.98819  -0.98494  -0.97751
 Alpha  occ. eigenvalues --   -0.87101  -0.84780  -0.84258  -0.83424  -0.83296
 Alpha  occ. eigenvalues --   -0.82877  -0.82749  -0.82282  -0.82152  -0.81558
 Alpha  occ. eigenvalues --   -0.81198  -0.79727  -0.78441  -0.78170  -0.77729
 Alpha  occ. eigenvalues --   -0.76483  -0.76238  -0.75322  -0.75080  -0.74870
 Alpha  occ. eigenvalues --   -0.74408  -0.72565  -0.71859  -0.71721  -0.70769
 Alpha  occ. eigenvalues --   -0.70174  -0.69712  -0.69369  -0.69160  -0.67880
 Alpha  occ. eigenvalues --   -0.67687  -0.67211  -0.66491  -0.64561  -0.63845
 Alpha  occ. eigenvalues --   -0.63637  -0.62589  -0.61986  -0.60483  -0.60343
 Alpha  occ. eigenvalues --   -0.60078  -0.59357  -0.59097  -0.58718  -0.58233
 Alpha  occ. eigenvalues --   -0.57716  -0.57159  -0.56982  -0.56830  -0.54561
 Alpha  occ. eigenvalues --   -0.54337  -0.53951  -0.53412  -0.53315  -0.52941
 Alpha  occ. eigenvalues --   -0.51839  -0.51303  -0.51053  -0.50729  -0.50078
 Alpha  occ. eigenvalues --   -0.50062  -0.49367  -0.49011  -0.48841  -0.48744
 Alpha  occ. eigenvalues --   -0.48422  -0.48120  -0.47954  -0.47669  -0.47493
 Alpha  occ. eigenvalues --   -0.47332  -0.47093  -0.47049  -0.46773  -0.46412
 Alpha  occ. eigenvalues --   -0.45949  -0.45848  -0.45749  -0.45500  -0.45253
 Alpha  occ. eigenvalues --   -0.45052  -0.44916  -0.44774  -0.44499  -0.44412
 Alpha  occ. eigenvalues --   -0.44142  -0.44043  -0.43875  -0.43561  -0.43400
 Alpha  occ. eigenvalues --   -0.43293  -0.42980  -0.42888  -0.42569  -0.42274
 Alpha  occ. eigenvalues --   -0.42142  -0.41991  -0.41784  -0.41497  -0.41211
 Alpha  occ. eigenvalues --   -0.41120  -0.40965  -0.40706  -0.40690  -0.40521
 Alpha  occ. eigenvalues --   -0.40409  -0.40351  -0.40242  -0.40006  -0.39900
 Alpha  occ. eigenvalues --   -0.39747  -0.39325  -0.39023  -0.38978  -0.38759
 Alpha  occ. eigenvalues --   -0.38724  -0.38455  -0.38175  -0.37940  -0.37869
 Alpha  occ. eigenvalues --   -0.37772  -0.37537  -0.37295  -0.37049  -0.36956
 Alpha  occ. eigenvalues --   -0.36898  -0.36688  -0.36638  -0.36310  -0.36114
 Alpha  occ. eigenvalues --   -0.35901  -0.35727  -0.35368  -0.35191  -0.34865
 Alpha  occ. eigenvalues --   -0.34618  -0.34553  -0.34500  -0.34099  -0.33955
 Alpha  occ. eigenvalues --   -0.33630  -0.33349  -0.33145  -0.32474  -0.32336
 Alpha  occ. eigenvalues --   -0.32137  -0.32071  -0.31789  -0.31554  -0.31536
 Alpha  occ. eigenvalues --   -0.30984  -0.30740  -0.30324  -0.29750  -0.29580
 Alpha  occ. eigenvalues --   -0.29190  -0.28600  -0.28228  -0.27032  -0.26031
 Alpha  occ. eigenvalues --   -0.25724  -0.25176  -0.24907  -0.24753  -0.21072
 Alpha  occ. eigenvalues --   -0.19074
 Alpha virt. eigenvalues --   -0.11502  -0.05207  -0.04190  -0.02113  -0.00657
 Alpha virt. eigenvalues --    0.00039   0.01120   0.01430   0.01869   0.02519
 Alpha virt. eigenvalues --    0.04012   0.04155   0.04385   0.05172   0.05967

 Mulliken charges:
               1
     1  Mg   0.972735
     2  C   -0.047809
     3  C   -0.049942
     4  C   -0.051852
     5  C   -0.099224
     6  N   -0.330410
     7  C    0.016495
     8  C   -0.079340
     9  C   -0.149434
    10  C    0.051005
    11  C    0.025666
    12  C    0.020783
    13  C    0.004152
    14  C    0.210200
    15  O   -0.246517
    16  O   -0.379477
    17  N   -0.479377
    18  C    0.152153
    19  C   -0.182694
    20  C   -0.081293
    21  C    0.159113
    22  C    0.090529
    23  C    0.016152
    24  O   -0.243675
    25  C   -0.031732
    26  N   -0.439120
    27  C    0.074875
    28  C   -0.080415
    29  C   -0.073708
    30  C    0.104767
    31  C   -0.016228
    32  C   -0.080859
    33  C   -0.062074
    34  N   -0.424463
    35  C    0.127412
    36  C   -0.157003
    37  C   -0.065995
    38  C    0.203092
    39  C    0.068346
    40  C    0.182476
    41  O   -0.222512
    42  C   -0.191272
    43  C    0.291328
    44  O   -0.239370
    45  O   -0.347227
    46  C    0.129251
    47  C    0.268233
    48  C   -0.119723
    49  C   -0.277411
    50  C    0.036677
    51  C    0.015545
    52  C   -0.060733
    53  C   -0.015897
    54  C   -0.216931
    55  C    0.006065
    56  C    0.057156
    57  C   -0.110612
    58  C    0.014588
    59  C   -0.252590
    60  C   -0.004459
    61  C    0.018006
    62  C   -0.058221
    63  C   -0.034677
    64  C   -0.266229
    65  C    0.013686
    66  C   -0.004497
    67  H    0.003039
    68  H   -0.027763
    69  H   -0.004484
    70  H    0.047342
    71  H    0.052389
    72  H    0.047015
    73  H    0.038834
    74  H    0.063428
    75  H    0.043214
    76  H    0.051092
    77  H    0.061203
    78  H    0.050561
    79  H    0.073907
    80  H    0.041620
    81  H    0.066955
    82  H    0.059962
    83  H    0.075835
    84  H    0.051804
    85  H    0.061593
    86  H    0.041376
    87  H    0.048214
    88  H    0.051398
    89  H    0.039711
    90  H    0.059393
    91  H    0.036731
    92  H    0.046967
    93  H    0.038534
    94  H    0.051179
    95  H    0.064843
    96  H    0.029811
    97  H    0.065457
    98  H    0.064659
    99  H    0.063050
   100  H    0.060723
   101  H    0.055084
   102  H    0.059276
   103  H    0.050699
   104  H    0.018809
   105  H    0.057135
   106  H    0.044351
   107  H    0.029640
   108  H    0.038408
   109  H    0.034475
   110  H    0.040256
   111  H    0.035796
   112  H    0.025562
   113  H    0.026169
   114  H    0.040990
   115  H    0.029698
   116  H    0.023503
   117  H    0.040072
   118  H    0.024108
   119  H    0.016315
   120  H    0.025160
   121  H    0.034661
   122  H    0.042453
   123  H    0.009411
   124  H    0.036512
   125  H    0.014310
   126  H    0.042262
   127  H    0.036714
   128  H    0.019582
   129  H    0.025973
   130  H    0.029382
   131  H    0.015516
   132  H    0.029221
   133  H    0.035055
   134  H    0.032886
   135  H    0.027048
   136  H    0.047933
   137  H    0.019426
   138  H    0.044886
   139  H    0.023616
   140  H    0.042565
 Sum of Mulliken charges =  -0.00000

 Dipole moment (field-independent basis, Debye):
    X=              3.0107    Y=              2.2023    Z=              3.3838  Tot=              5.0363
 Quadrupole moment (field-independent basis, Debye-Ang):
   XX=           -337.4359   YY=           -435.9756   ZZ=           -401.2063
   XY=              2.7383   XZ=              9.2938   YZ=             22.1186

 Normal termination of Gaussian 16 at Wed May  4 06:16:47 2022.
