 Gaussian 16, Revision A.03,
 Gaussian 16:  ES64L-G16RevA.03 25-Dec-2016

 --------------------------------
 #p wB97XD/Def2SVP td=(nstates=5)
 --------------------------------

 ----------------------------------------------------
 step_1401_chromophore_5 TDDFT with wB97XD functional
 ----------------------------------------------------
 Symbolic Z-matrix:
 Charge =  0 Multiplicity = 1

                         Standard orientation:
 ---------------------------------------------------------------------
 Center     Atomic      Atomic             Coordinates (Angstroms)
 Number     Number       Type             X           Y           Z
 ---------------------------------------------------------------------
      1         12           0        5.417207    0.568851   -0.403269
      2          6           0        3.868164   -2.632934   -0.532343
      3          6           0        3.459632    1.447401   -3.087035
      4          6           0        6.313100    3.655365    0.245759
      5          6           0        7.143729   -0.590619    2.396792
      6          7           0        3.779678   -0.527227   -1.616076
      7          6           0        3.317591   -1.767855   -1.429446
      8          6           0        2.018807   -1.930839   -2.268366
      9          6           0        2.143338   -0.763430   -3.300964
     10          6           0        3.215254    0.099180   -2.663493
     11          6           0        2.516830   -1.199027   -4.737296
     12          6           0        0.738811   -1.852059   -1.359881
     13          6           0       -0.468270   -2.753370   -1.627041
     14          6           0       -1.816489   -2.120168   -1.969073
     15          8           0       -2.301519   -1.962354   -3.072039
     16          8           0       -2.357117   -1.709415   -0.748188
     17          7           0        4.930674    2.377447   -1.319954
     18          6           0        4.161977    2.554249   -2.455020
     19          6           0        4.276249    3.914494   -2.929834
     20          6           0        5.159694    4.552913   -1.995288
     21          6           0        5.507641    3.527743   -0.979816
     22          6           0        3.742872    4.483521   -4.116712
     23          6           0        5.531940    5.994757   -2.074385
     24          8           0        4.980407    6.737848   -2.863086
     25          6           0        6.530068    6.648111   -1.058264
     26          7           0        6.631805    1.373393    1.063275
     27          6           0        6.925688    2.714637    1.120585
     28          6           0        7.820968    3.079847    2.259962
     29          6           0        8.153471    1.691718    2.930861
     30          6           0        7.343582    0.711272    2.018439
     31          6           0        9.067222    4.025273    1.866933
     32          6           0        7.783046    1.479695    4.446260
     33          6           0        8.840982    0.883738    5.386602
     34          7           0        5.545224   -1.224867    0.770636
     35          6           0        6.311304   -1.605712    1.841439
     36          6           0        6.067137   -3.007775    2.221449
     37          6           0        5.023877   -3.429241    1.356739
     38          6           0        4.834420   -2.322537    0.449707
     39          6           0        6.696200   -3.659462    3.359991
     40          6           0        4.204100   -4.552749    1.011555
     41          8           0        4.046991   -5.704902    1.434402
     42          6           0        3.477351   -4.097955   -0.360601
     43          6           0        3.970884   -4.950204   -1.492673
     44          8           0        3.493860   -5.004678   -2.582713
     45          8           0        5.110193   -5.601929   -1.146434
     46          6           0        5.597118   -6.500332   -2.179002
     47          6           0       -3.621575   -1.032844   -0.835447
     48          6           0       -4.200372   -0.874813    0.532506
     49          6           0       -5.447965   -0.746953    0.934305
     50          6           0       -6.547410   -0.402530   -0.001940
     51          6           0       -5.911527   -0.938087    2.426355
     52          6           0       -5.647021    0.290140    3.327351
     53          6           0       -6.897809    0.850428    4.088165
     54          6           0       -7.790875    1.752501    3.213224
     55          6           0       -7.341467    3.211603    3.294726
     56          6           0       -9.296407    1.621027    3.508652
     57          6           0      -10.142912    1.187453    2.253522
     58          6           0      -10.577828   -0.289127    2.177719
     59          6           0      -11.278629   -0.505101    0.823185
     60          6           0      -11.127347   -1.878851    0.217062
     61          6           0      -12.798148   -0.356380    1.111923
     62          6           0      -13.435565    0.845395    0.364187
     63          6           0      -14.286553    0.417283   -0.891219
     64          6           0      -14.317887    1.524065   -2.016225
     65          6           0      -15.465583    1.402804   -3.015248
     66          6           0      -12.908999    1.395161   -2.724003
     67          1           0        2.876641    1.675629   -3.981484
     68          1           0        6.590512    4.692164    0.443736
     69          1           0        7.633519   -0.813040    3.347078
     70          1           0        1.928566   -2.917134   -2.723207
     71          1           0        1.254635   -0.142094   -3.412998
     72          1           0        3.570899   -1.038214   -4.965030
     73          1           0        1.968780   -0.477872   -5.343145
     74          1           0        2.187770   -2.217256   -4.942803
     75          1           0        0.384261   -0.824444   -1.435528
     76          1           0        1.027634   -2.067347   -0.331114
     77          1           0       -0.573235   -3.425048   -0.775049
     78          1           0       -0.250476   -3.396147   -2.480597
     79          1           0        2.881961    5.043313   -3.750527
     80          1           0        3.605967    3.716359   -4.878560
     81          1           0        4.528526    5.162777   -4.449837
     82          1           0        7.449011    6.062799   -1.061094
     83          1           0        5.972166    6.571160   -0.124704
     84          1           0        6.793196    7.693412   -1.216531
     85          1           0        7.189885    3.659270    2.933939
     86          1           0        9.230580    1.532487    2.871643
     87          1           0        9.133797    4.227486    0.797233
     88          1           0       10.065958    3.745368    2.202275
     89          1           0        8.852746    5.027010    2.238985
     90          1           0        6.838565    0.944118    4.539545
     91          1           0        7.676423    2.479000    4.866456
     92          1           0        8.762680    1.368028    6.359882
     93          1           0        9.838162    1.096870    5.002522
     94          1           0        8.681778   -0.191841    5.461118
     95          1           0        5.930723   -4.214344    3.902499
     96          1           0        7.067562   -2.815285    3.940429
     97          1           0        7.534233   -4.322018    3.142853
     98          1           0        2.424192   -4.379647   -0.354624
     99          1           0        5.819530   -6.043871   -3.142876
    100          1           0        4.836198   -7.280157   -2.208051
    101          1           0        6.530075   -6.870925   -1.755173
    102          1           0       -4.334771   -1.591092   -1.441575
    103          1           0       -3.447632   -0.048460   -1.268502
    104          1           0       -3.544329   -0.891417    1.403436
    105          1           0       -7.268524   -1.213767   -0.103265
    106          1           0       -6.025385   -0.031445   -0.883432
    107          1           0       -7.115077    0.376743    0.507077
    108          1           0       -5.362586   -1.736738    2.926343
    109          1           0       -6.957048   -1.245874    2.375351
    110          1           0       -5.256008    1.080086    2.684742
    111          1           0       -4.950526    0.004126    4.115654
    112          1           0       -6.482052    1.472458    4.880548
    113          1           0       -7.399546   -0.014640    4.520887
    114          1           0       -7.691131    1.306047    2.223895
    115          1           0       -8.119617    3.970959    3.375703
    116          1           0       -6.957375    3.511053    2.319022
    117          1           0       -6.566907    3.444766    4.024886
    118          1           0       -9.755537    2.557006    3.827796
    119          1           0       -9.446957    0.840421    4.253416
    120          1           0       -9.482397    1.291722    1.393353
    121          1           0      -10.980706    1.881725    2.182004
    122          1           0      -11.116430   -0.582001    3.079070
    123          1           0       -9.703663   -0.910523    1.985449
    124          1           0      -10.912666    0.096509   -0.009031
    125          1           0      -10.066512   -2.103863    0.333679
    126          1           0      -11.385839   -1.763632   -0.835313
    127          1           0      -11.637895   -2.702565    0.716186
    128          1           0      -12.908477   -0.229090    2.188481
    129          1           0      -13.317293   -1.263773    0.802908
    130          1           0      -12.737806    1.670603    0.219639
    131          1           0      -14.135432    1.280259    1.076822
    132          1           0      -15.281242    0.276563   -0.469678
    133          1           0      -13.846364   -0.519692   -1.234032
    134          1           0      -14.509087    2.460850   -1.492672
    135          1           0      -15.103041    0.777935   -3.832453
    136          1           0      -15.904697    2.361946   -3.289719
    137          1           0      -16.256108    0.792339   -2.578793
    138          1           0      -12.252545    2.258582   -2.608788
    139          1           0      -13.174153    1.376735   -3.780459
    140          1           0      -12.469200    0.439657   -2.439417
 ---------------------------------------------------------------------

 SCF Done:  E(RwB97XD) =  -3007.87149075     A.U. after   17 cycles

 Excitation energies and oscillator strengths:

 Excited State   1:      Singlet-A      1.6484 eV  752.16 nm  f=0.3903  <S**2>=0.000
     245 -> 248       -0.18734
     246 -> 247        0.68346
     245 <- 248       -0.11771
 This state for optimization and/or second-order correction.
 Total Energy, E(TD-HF/TD-DFT) =  -3007.81091399
 Copying the excited state density for this state as the 1-particle RhoCI density.

 Excited State   2:      Singlet-A      2.1618 eV  573.51 nm  f=0.1361  <S**2>=0.000
     245 -> 247        0.64777
     246 -> 248        0.27193

 Excited State   3:      Singlet-A      3.3545 eV  369.61 nm  f=0.0037  <S**2>=0.000
     241 -> 247        0.18657
     241 -> 249        0.10978
     242 -> 247        0.18151
     242 -> 249        0.14485
     243 -> 247        0.58421
     243 -> 249       -0.10339

 Excited State   4:      Singlet-A      3.3838 eV  366.41 nm  f=0.0124  <S**2>=0.000
     239 -> 247        0.12947
     239 -> 249        0.11224
     240 -> 247        0.14981
     241 -> 247        0.11945
     242 -> 247        0.45387
     242 -> 249        0.25708
     242 -> 250        0.11203
     243 -> 247       -0.25620
     243 -> 249        0.10526
     246 -> 248       -0.14563

 Excited State   5:      Singlet-A      3.5568 eV  348.58 nm  f=0.0040  <S**2>=0.000
     240 -> 247       -0.27038
     240 -> 249        0.16444
     240 -> 250       -0.15042
     241 -> 247        0.51004
     242 -> 247       -0.15486
     243 -> 249        0.12703
     243 -> 250       -0.16302

 The electronic state is 1-A.
 Alpha  occ. eigenvalues --  -46.96279 -19.30078 -19.29742 -19.25663 -19.24895
 Alpha  occ. eigenvalues --  -19.23781 -19.23483 -14.47021 -14.46731 -14.44713
 Alpha  occ. eigenvalues --  -14.44574 -10.43469 -10.42686 -10.39000 -10.38919
 Alpha  occ. eigenvalues --  -10.35914 -10.35608 -10.35575 -10.35338 -10.34991
 Alpha  occ. eigenvalues --  -10.34796 -10.34707 -10.34566 -10.34074 -10.33412
 Alpha  occ. eigenvalues --  -10.33106 -10.32670 -10.32495 -10.32491 -10.32427
 Alpha  occ. eigenvalues --  -10.32253 -10.32230 -10.31852 -10.31665 -10.31344
 Alpha  occ. eigenvalues --  -10.31091 -10.31084 -10.30969 -10.30837 -10.30764
 Alpha  occ. eigenvalues --  -10.30428 -10.30109 -10.30097 -10.29983 -10.29891
 Alpha  occ. eigenvalues --  -10.29838 -10.29667 -10.29665 -10.29566 -10.29541
 Alpha  occ. eigenvalues --  -10.29308 -10.29141 -10.29113 -10.28820 -10.28802
 Alpha  occ. eigenvalues --  -10.28776 -10.28756 -10.28703 -10.28507 -10.28311
 Alpha  occ. eigenvalues --  -10.28290 -10.28283 -10.28193 -10.28001 -10.27953
 Alpha  occ. eigenvalues --  -10.27952  -3.22147  -1.95742  -1.95249  -1.95126
 Alpha  occ. eigenvalues --   -1.19871  -1.18314  -1.12467  -1.11296  -1.10927
 Alpha  occ. eigenvalues --   -1.10546  -1.07102  -1.06179  -1.05901  -1.05098
 Alpha  occ. eigenvalues --   -0.94729  -0.92452  -0.91914  -0.91067  -0.90925
 Alpha  occ. eigenvalues --   -0.90487  -0.90405  -0.89875  -0.89778  -0.89223
 Alpha  occ. eigenvalues --   -0.88832  -0.87402  -0.86113  -0.85735  -0.85397
 Alpha  occ. eigenvalues --   -0.84130  -0.83907  -0.83033  -0.82745  -0.82490
 Alpha  occ. eigenvalues --   -0.82066  -0.80197  -0.79481  -0.79427  -0.78418
 Alpha  occ. eigenvalues --   -0.77759  -0.77385  -0.77056  -0.76842  -0.75537
 Alpha  occ. eigenvalues --   -0.75251  -0.74776  -0.74042  -0.72190  -0.71345
 Alpha  occ. eigenvalues --   -0.71127  -0.70238  -0.69584  -0.68127  -0.67846
 Alpha  occ. eigenvalues --   -0.67586  -0.66820  -0.66541  -0.66333  -0.65753
 Alpha  occ. eigenvalues --   -0.65395  -0.64832  -0.64480  -0.64435  -0.61998
 Alpha  occ. eigenvalues --   -0.61771  -0.61396  -0.60913  -0.60691  -0.60355
 Alpha  occ. eigenvalues --   -0.59342  -0.58778  -0.58492  -0.58150  -0.57526
 Alpha  occ. eigenvalues --   -0.57450  -0.56794  -0.56379  -0.56282  -0.56095
 Alpha  occ. eigenvalues --   -0.55861  -0.55442  -0.55404  -0.55077  -0.54838
 Alpha  occ. eigenvalues --   -0.54739  -0.54625  -0.54494  -0.54056  -0.53760
 Alpha  occ. eigenvalues --   -0.53282  -0.53244  -0.53145  -0.52856  -0.52677
 Alpha  occ. eigenvalues --   -0.52379  -0.52254  -0.52119  -0.51833  -0.51764
 Alpha  occ. eigenvalues --   -0.51479  -0.51386  -0.51210  -0.50875  -0.50667
 Alpha  occ. eigenvalues --   -0.50567  -0.50270  -0.50159  -0.49834  -0.49535
 Alpha  occ. eigenvalues --   -0.49412  -0.49269  -0.49143  -0.48853  -0.48436
 Alpha  occ. eigenvalues --   -0.48343  -0.48189  -0.47951  -0.47905  -0.47678
 Alpha  occ. eigenvalues --   -0.47611  -0.47531  -0.47488  -0.47236  -0.47081
 Alpha  occ. eigenvalues --   -0.46867  -0.46507  -0.46198  -0.46064  -0.45944
 Alpha  occ. eigenvalues --   -0.45768  -0.45576  -0.45323  -0.45118  -0.45003
 Alpha  occ. eigenvalues --   -0.44861  -0.44649  -0.44368  -0.44186  -0.44164
 Alpha  occ. eigenvalues --   -0.44053  -0.43833  -0.43791  -0.43232  -0.43158
 Alpha  occ. eigenvalues --   -0.43019  -0.42633  -0.42531  -0.42189  -0.41920
 Alpha  occ. eigenvalues --   -0.41699  -0.41569  -0.41521  -0.41120  -0.41015
 Alpha  occ. eigenvalues --   -0.40691  -0.40431  -0.40112  -0.39454  -0.39226
 Alpha  occ. eigenvalues --   -0.39204  -0.39149  -0.38781  -0.38634  -0.38521
 Alpha  occ. eigenvalues --   -0.37961  -0.37682  -0.37218  -0.36689  -0.36620
 Alpha  occ. eigenvalues --   -0.36237  -0.35252  -0.35107  -0.33665  -0.32716
 Alpha  occ. eigenvalues --   -0.32439  -0.32152  -0.31899  -0.31511  -0.26074
 Alpha  occ. eigenvalues --   -0.23254
 Alpha virt. eigenvalues --   -0.07454   0.00205   0.02082   0.04368   0.05268
 Alpha virt. eigenvalues --    0.06814   0.07643   0.08276   0.08586   0.09054
 Alpha virt. eigenvalues --    0.10610   0.10707   0.11200   0.12016   0.12686

 Mulliken charges:
               1
     1  Mg   0.964213
     2  C   -0.040777
     3  C   -0.065135
     4  C   -0.066056
     5  C   -0.100120
     6  N   -0.291163
     7  C   -0.022511
     8  C   -0.048848
     9  C   -0.121028
    10  C    0.032124
    11  C    0.033024
    12  C    0.028061
    13  C    0.020185
    14  C    0.202421
    15  O   -0.244349
    16  O   -0.378962
    17  N   -0.446870
    18  C    0.141188
    19  C   -0.166317
    20  C   -0.079944
    21  C    0.154077
    22  C    0.102418
    23  C    0.011265
    24  O   -0.239448
    25  C   -0.013784
    26  N   -0.411001
    27  C    0.069049
    28  C   -0.059512
    29  C   -0.049346
    30  C    0.087029
    31  C   -0.004099
    32  C   -0.061479
    33  C   -0.046283
    34  N   -0.386459
    35  C    0.120177
    36  C   -0.157327
    37  C   -0.064309
    38  C    0.180849
    39  C    0.080853
    40  C    0.168842
    41  O   -0.213465
    42  C   -0.152296
    43  C    0.265818
    44  O   -0.234807
    45  O   -0.346396
    46  C    0.143716
    47  C    0.280004
    48  C   -0.131921
    49  C   -0.261241
    50  C    0.058948
    51  C    0.033440
    52  C   -0.040497
    53  C   -0.002107
    54  C   -0.161398
    55  C    0.015126
    56  C    0.063864
    57  C   -0.084276
    58  C    0.040386
    59  C   -0.227089
    60  C    0.013475
    61  C    0.032494
    62  C   -0.045477
    63  C   -0.010780
    64  C   -0.241116
    65  C    0.026046
    66  C    0.010902
    67  H   -0.002041
    68  H   -0.043350
    69  H   -0.023281
    70  H    0.030508
    71  H    0.042972
    72  H    0.041249
    73  H    0.033058
    74  H    0.059625
    75  H    0.034171
    76  H    0.042361
    77  H    0.056464
    78  H    0.044695
    79  H    0.070897
    80  H    0.037386
    81  H    0.062163
    82  H    0.052616
    83  H    0.069715
    84  H    0.051099
    85  H    0.051840
    86  H    0.029112
    87  H    0.040571
    88  H    0.047465
    89  H    0.033814
    90  H    0.050515
    91  H    0.027055
    92  H    0.041829
    93  H    0.031653
    94  H    0.045222
    95  H    0.060105
    96  H    0.021999
    97  H    0.061136
    98  H    0.058392
    99  H    0.059246
   100  H    0.056360
   101  H    0.052064
   102  H    0.053726
   103  H    0.046255
   104  H    0.015287
   105  H    0.051189
   106  H    0.038583
   107  H    0.020210
   108  H    0.032228
   109  H    0.022566
   110  H    0.027982
   111  H    0.029790
   112  H    0.016459
   113  H    0.017691
   114  H   -0.001346
   115  H    0.024071
   116  H    0.017880
   117  H    0.034524
   118  H    0.016620
   119  H    0.006410
   120  H    0.010449
   121  H    0.025737
   122  H    0.034857
   123  H   -0.009733
   124  H    0.023878
   125  H    0.005886
   126  H    0.034800
   127  H    0.030869
   128  H    0.011015
   129  H    0.015463
   130  H    0.018328
   131  H    0.007767
   132  H    0.020857
   133  H    0.020408
   134  H    0.022768
   135  H    0.019622
   136  H    0.043674
   137  H    0.012947
   138  H    0.040109
   139  H    0.016604
   140  H    0.032888
 Sum of Mulliken charges =  -0.00000

 Dipole moment (field-independent basis, Debye):
    X=              2.9460    Y=              2.3542    Z=              3.1419  Tot=              4.9084
 Quadrupole moment (field-independent basis, Debye-Ang):
   XX=           -337.9212   YY=           -434.5624   ZZ=           -401.1087
   XY=              3.4891   XZ=              7.5215   YZ=             21.6629

 Normal termination of Gaussian 16 at Wed May  4 06:42:52 2022.
