 Gaussian 16, Revision A.03,
 Gaussian 16:  ES64L-G16RevA.03 25-Dec-2016

 --------------------
 #p ZINDO=(nstates=5)
 --------------------

 -----------------------------
 step_1401_chromophore_5 ZINDO
 -----------------------------
 Symbolic Z-matrix:
 Charge =  0 Multiplicity = 1

                         Standard orientation:
 ---------------------------------------------------------------------
 Center     Atomic      Atomic             Coordinates (Angstroms)
 Number     Number       Type             X           Y           Z
 ---------------------------------------------------------------------
      1         12           0        5.417207    0.568851   -0.403269
      2          6           0        3.868164   -2.632934   -0.532343
      3          6           0        3.459632    1.447401   -3.087035
      4          6           0        6.313100    3.655365    0.245759
      5          6           0        7.143729   -0.590619    2.396792
      6          7           0        3.779678   -0.527227   -1.616076
      7          6           0        3.317591   -1.767855   -1.429446
      8          6           0        2.018807   -1.930839   -2.268366
      9          6           0        2.143338   -0.763430   -3.300964
     10          6           0        3.215254    0.099180   -2.663493
     11          6           0        2.516830   -1.199027   -4.737296
     12          6           0        0.738811   -1.852059   -1.359881
     13          6           0       -0.468270   -2.753370   -1.627041
     14          6           0       -1.816489   -2.120168   -1.969073
     15          8           0       -2.301519   -1.962354   -3.072039
     16          8           0       -2.357117   -1.709415   -0.748188
     17          7           0        4.930674    2.377447   -1.319954
     18          6           0        4.161977    2.554249   -2.455020
     19          6           0        4.276249    3.914494   -2.929834
     20          6           0        5.159694    4.552913   -1.995288
     21          6           0        5.507641    3.527743   -0.979816
     22          6           0        3.742872    4.483521   -4.116712
     23          6           0        5.531940    5.994757   -2.074385
     24          8           0        4.980407    6.737848   -2.863086
     25          6           0        6.530068    6.648111   -1.058264
     26          7           0        6.631805    1.373393    1.063275
     27          6           0        6.925688    2.714637    1.120585
     28          6           0        7.820968    3.079847    2.259962
     29          6           0        8.153471    1.691718    2.930861
     30          6           0        7.343582    0.711272    2.018439
     31          6           0        9.067222    4.025273    1.866933
     32          6           0        7.783046    1.479695    4.446260
     33          6           0        8.840982    0.883738    5.386602
     34          7           0        5.545224   -1.224867    0.770636
     35          6           0        6.311304   -1.605712    1.841439
     36          6           0        6.067137   -3.007775    2.221449
     37          6           0        5.023877   -3.429241    1.356739
     38          6           0        4.834420   -2.322537    0.449707
     39          6           0        6.696200   -3.659462    3.359991
     40          6           0        4.204100   -4.552749    1.011555
     41          8           0        4.046991   -5.704902    1.434402
     42          6           0        3.477351   -4.097955   -0.360601
     43          6           0        3.970884   -4.950204   -1.492673
     44          8           0        3.493860   -5.004678   -2.582713
     45          8           0        5.110193   -5.601929   -1.146434
     46          6           0        5.597118   -6.500332   -2.179002
     47          6           0       -3.621575   -1.032844   -0.835447
     48          6           0       -4.200372   -0.874813    0.532506
     49          6           0       -5.447965   -0.746953    0.934305
     50          6           0       -6.547410   -0.402530   -0.001940
     51          6           0       -5.911527   -0.938087    2.426355
     52          6           0       -5.647021    0.290140    3.327351
     53          6           0       -6.897809    0.850428    4.088165
     54          6           0       -7.790875    1.752501    3.213224
     55          6           0       -7.341467    3.211603    3.294726
     56          6           0       -9.296407    1.621027    3.508652
     57          6           0      -10.142912    1.187453    2.253522
     58          6           0      -10.577828   -0.289127    2.177719
     59          6           0      -11.278629   -0.505101    0.823185
     60          6           0      -11.127347   -1.878851    0.217062
     61          6           0      -12.798148   -0.356380    1.111923
     62          6           0      -13.435565    0.845395    0.364187
     63          6           0      -14.286553    0.417283   -0.891219
     64          6           0      -14.317887    1.524065   -2.016225
     65          6           0      -15.465583    1.402804   -3.015248
     66          6           0      -12.908999    1.395161   -2.724003
     67          1           0        2.876641    1.675629   -3.981484
     68          1           0        6.590512    4.692164    0.443736
     69          1           0        7.633519   -0.813040    3.347078
     70          1           0        1.928566   -2.917134   -2.723207
     71          1           0        1.254635   -0.142094   -3.412998
     72          1           0        3.570899   -1.038214   -4.965030
     73          1           0        1.968780   -0.477872   -5.343145
     74          1           0        2.187770   -2.217256   -4.942803
     75          1           0        0.384261   -0.824444   -1.435528
     76          1           0        1.027634   -2.067347   -0.331114
     77          1           0       -0.573235   -3.425048   -0.775049
     78          1           0       -0.250476   -3.396147   -2.480597
     79          1           0        2.881961    5.043313   -3.750527
     80          1           0        3.605967    3.716359   -4.878560
     81          1           0        4.528526    5.162777   -4.449837
     82          1           0        7.449011    6.062799   -1.061094
     83          1           0        5.972166    6.571160   -0.124704
     84          1           0        6.793196    7.693412   -1.216531
     85          1           0        7.189885    3.659270    2.933939
     86          1           0        9.230580    1.532487    2.871643
     87          1           0        9.133797    4.227486    0.797233
     88          1           0       10.065958    3.745368    2.202275
     89          1           0        8.852746    5.027010    2.238985
     90          1           0        6.838565    0.944118    4.539545
     91          1           0        7.676423    2.479000    4.866456
     92          1           0        8.762680    1.368028    6.359882
     93          1           0        9.838162    1.096870    5.002522
     94          1           0        8.681778   -0.191841    5.461118
     95          1           0        5.930723   -4.214344    3.902499
     96          1           0        7.067562   -2.815285    3.940429
     97          1           0        7.534233   -4.322018    3.142853
     98          1           0        2.424192   -4.379647   -0.354624
     99          1           0        5.819530   -6.043871   -3.142876
    100          1           0        4.836198   -7.280157   -2.208051
    101          1           0        6.530075   -6.870925   -1.755173
    102          1           0       -4.334771   -1.591092   -1.441575
    103          1           0       -3.447632   -0.048460   -1.268502
    104          1           0       -3.544329   -0.891417    1.403436
    105          1           0       -7.268524   -1.213767   -0.103265
    106          1           0       -6.025385   -0.031445   -0.883432
    107          1           0       -7.115077    0.376743    0.507077
    108          1           0       -5.362586   -1.736738    2.926343
    109          1           0       -6.957048   -1.245874    2.375351
    110          1           0       -5.256008    1.080086    2.684742
    111          1           0       -4.950526    0.004126    4.115654
    112          1           0       -6.482052    1.472458    4.880548
    113          1           0       -7.399546   -0.014640    4.520887
    114          1           0       -7.691131    1.306047    2.223895
    115          1           0       -8.119617    3.970959    3.375703
    116          1           0       -6.957375    3.511053    2.319022
    117          1           0       -6.566907    3.444766    4.024886
    118          1           0       -9.755537    2.557006    3.827796
    119          1           0       -9.446957    0.840421    4.253416
    120          1           0       -9.482397    1.291722    1.393353
    121          1           0      -10.980706    1.881725    2.182004
    122          1           0      -11.116430   -0.582001    3.079070
    123          1           0       -9.703663   -0.910523    1.985449
    124          1           0      -10.912666    0.096509   -0.009031
    125          1           0      -10.066512   -2.103863    0.333679
    126          1           0      -11.385839   -1.763632   -0.835313
    127          1           0      -11.637895   -2.702565    0.716186
    128          1           0      -12.908477   -0.229090    2.188481
    129          1           0      -13.317293   -1.263773    0.802908
    130          1           0      -12.737806    1.670603    0.219639
    131          1           0      -14.135432    1.280259    1.076822
    132          1           0      -15.281242    0.276563   -0.469678
    133          1           0      -13.846364   -0.519692   -1.234032
    134          1           0      -14.509087    2.460850   -1.492672
    135          1           0      -15.103041    0.777935   -3.832453
    136          1           0      -15.904697    2.361946   -3.289719
    137          1           0      -16.256108    0.792339   -2.578793
    138          1           0      -12.252545    2.258582   -2.608788
    139          1           0      -13.174153    1.376735   -3.780459
    140          1           0      -12.469200    0.439657   -2.439417
 ---------------------------------------------------------------------

 SCF Done:  E(RZINDO/S) =  -474.439688276     A.U. after   19 cycles

 Excitation energies and oscillator strengths:

 Excited State   1:      Singlet-A      1.2510 eV  991.08 nm  f=0.6139  <S**2>=0.000
     175 ->178         0.19142
     176 ->177         0.66341
 This state for optimization and/or second-order correction.
 Total Energy, E(CIS/TDA) =  -474.393714690
 Copying the excited state density for this state as the 1-particle RhoCI density.

 Excited State   2:      Singlet-A      1.9117 eV  648.56 nm  f=0.0587  <S**2>=0.000
     175 ->177         0.55681
     176 ->178        -0.40991

 Excited State   3:      Singlet-A      2.9456 eV  420.92 nm  f=0.0621  <S**2>=0.000
     168 ->177         0.25628
     168 ->179        -0.31143
     168 ->180        -0.31532
     168 ->185         0.22651
     168 ->194         0.11429
     171 ->177        -0.14547
     176 ->178         0.13148
     176 ->179        -0.16386

 Excited State   4:      Singlet-A      2.9612 eV  418.70 nm  f=0.4763  <S**2>=0.000
     168 ->179        -0.10645
     168 ->180        -0.11797
     175 ->177        -0.26464
     176 ->178        -0.39152
     176 ->179         0.40435
     176 ->180        -0.13551

 Excited State   5:      Singlet-A      3.0015 eV  413.08 nm  f=0.0665  <S**2>=0.000
     169 ->177         0.30432
     169 ->178        -0.13711
     169 ->179         0.36549
     169 ->180        -0.29634
     169 ->185        -0.13614
     169 ->187         0.14238
     169 ->198         0.11590
     176 ->178         0.10386

 The electronic state is 1-A.
 Alpha  occ. eigenvalues --   -1.83974  -1.80973  -1.80621  -1.75533  -1.72893
 Alpha  occ. eigenvalues --   -1.71244  -1.66954  -1.61761  -1.60054  -1.56801
 Alpha  occ. eigenvalues --   -1.54995  -1.52231  -1.49324  -1.47964  -1.47505
 Alpha  occ. eigenvalues --   -1.45604  -1.44095  -1.40907  -1.39656  -1.38968
 Alpha  occ. eigenvalues --   -1.37177  -1.35265  -1.33268  -1.31776  -1.28746
 Alpha  occ. eigenvalues --   -1.27869  -1.26635  -1.22476  -1.20953  -1.19053
 Alpha  occ. eigenvalues --   -1.16041  -1.14957  -1.14660  -1.14012  -1.13683
 Alpha  occ. eigenvalues --   -1.12617  -1.10014  -1.09458  -1.05385  -1.04356
 Alpha  occ. eigenvalues --   -1.01672  -1.01352  -0.98832  -0.97846  -0.95838
 Alpha  occ. eigenvalues --   -0.95085  -0.94753  -0.94294  -0.93574  -0.91992
 Alpha  occ. eigenvalues --   -0.91424  -0.90046  -0.88649  -0.88361  -0.87117
 Alpha  occ. eigenvalues --   -0.86534  -0.85284  -0.84061  -0.82209  -0.80574
 Alpha  occ. eigenvalues --   -0.79839  -0.79454  -0.77616  -0.76735  -0.76193
 Alpha  occ. eigenvalues --   -0.75958  -0.74784  -0.74107  -0.73453  -0.73270
 Alpha  occ. eigenvalues --   -0.72849  -0.72650  -0.71347  -0.70864  -0.70406
 Alpha  occ. eigenvalues --   -0.69967  -0.69890  -0.69054  -0.68550  -0.67915
 Alpha  occ. eigenvalues --   -0.67403  -0.67112  -0.66720  -0.66628  -0.66364
 Alpha  occ. eigenvalues --   -0.66068  -0.65834  -0.65091  -0.64278  -0.63845
 Alpha  occ. eigenvalues --   -0.63746  -0.62958  -0.62658  -0.62266  -0.62153
 Alpha  occ. eigenvalues --   -0.61423  -0.61259  -0.60734  -0.60610  -0.59788
 Alpha  occ. eigenvalues --   -0.59396  -0.59299  -0.59280  -0.59105  -0.58313
 Alpha  occ. eigenvalues --   -0.58244  -0.57995  -0.57354  -0.56384  -0.55641
 Alpha  occ. eigenvalues --   -0.55324  -0.55264  -0.54751  -0.54453  -0.54388
 Alpha  occ. eigenvalues --   -0.54349  -0.53735  -0.53477  -0.53077  -0.52540
 Alpha  occ. eigenvalues --   -0.52479  -0.51957  -0.51828  -0.51724  -0.51557
 Alpha  occ. eigenvalues --   -0.51328  -0.50799  -0.50567  -0.49851  -0.49794
 Alpha  occ. eigenvalues --   -0.49664  -0.49519  -0.49405  -0.49248  -0.48863
 Alpha  occ. eigenvalues --   -0.48715  -0.48470  -0.48308  -0.48133  -0.47925
 Alpha  occ. eigenvalues --   -0.47708  -0.47358  -0.47197  -0.46818  -0.46549
 Alpha  occ. eigenvalues --   -0.46495  -0.46289  -0.45911  -0.45611  -0.45589
 Alpha  occ. eigenvalues --   -0.45490  -0.45165  -0.44921  -0.44743  -0.44670
 Alpha  occ. eigenvalues --   -0.44190  -0.43523  -0.43035  -0.42862  -0.42606
 Alpha  occ. eigenvalues --   -0.42070  -0.41912  -0.40513  -0.39397  -0.39094
 Alpha  occ. eigenvalues --   -0.38086  -0.37531  -0.35184  -0.35038  -0.34631
 Alpha  occ. eigenvalues --   -0.33198  -0.32935  -0.32447  -0.31773  -0.26897
 Alpha  occ. eigenvalues --   -0.22106
 Alpha virt. eigenvalues --   -0.08939  -0.02266  -0.00636   0.01195   0.01487
 Alpha virt. eigenvalues --    0.01706   0.02632   0.03095   0.04434   0.05564
 Alpha virt. eigenvalues --    0.05979   0.06457   0.06961   0.07441   0.07840

 Mulliken charges:
               1
     1  Mg   0.436467
     2  C   -0.019863
     3  C   -0.073027
     4  C   -0.120344
     5  C   -0.068400
     6  N   -0.268616
     7  C    0.115108
     8  C    0.005475
     9  C    0.008976
    10  C    0.144641
    11  C   -0.049560
    12  C   -0.019096
    13  C    0.004388
    14  C    0.470033
    15  O   -0.500580
    16  O   -0.274253
    17  N   -0.311078
    18  C    0.096477
    19  C    0.073771
    20  C   -0.073284
    21  C    0.149135
    22  C   -0.032303
    23  C    0.320809
    24  O   -0.527149
    25  C   -0.031242
    26  N   -0.282602
    27  C    0.156836
    28  C    0.011669
    29  C   -0.002422
    30  C    0.105449
    31  C   -0.057007
    32  C   -0.032779
    33  C   -0.054496
    34  N   -0.313159
    35  C    0.080158
    36  C    0.025867
    37  C   -0.060842
    38  C    0.101662
    39  C   -0.034782
    40  C    0.326283
    41  O   -0.530468
    42  C    0.038184
    43  C    0.493293
    44  O   -0.529589
    45  O   -0.256902
    46  C    0.075828
    47  C    0.117116
    48  C   -0.089328
    49  C   -0.015532
    50  C   -0.051812
    51  C   -0.026343
    52  C   -0.035062
    53  C   -0.038007
    54  C   -0.005108
    55  C   -0.055720
    56  C   -0.043921
    57  C   -0.046145
    58  C   -0.032650
    59  C   -0.018925
    60  C   -0.059412
    61  C   -0.039858
    62  C   -0.048233
    63  C   -0.036380
    64  C   -0.017293
    65  C   -0.058234
    66  C   -0.063383
    67  H    0.026054
    68  H    0.018146
    69  H    0.017469
    70  H    0.040596
    71  H    0.034435
    72  H    0.026854
    73  H    0.016153
    74  H    0.034692
    75  H    0.023648
    76  H    0.024117
    77  H    0.038545
    78  H    0.031332
    79  H    0.057337
    80  H    0.027570
    81  H    0.046901
    82  H    0.030666
    83  H    0.039092
    84  H    0.039866
    85  H    0.035813
    86  H    0.031302
    87  H    0.021381
    88  H    0.030618
    89  H    0.015019
    90  H    0.030866
    91  H    0.008514
    92  H    0.020759
    93  H    0.019617
    94  H    0.022619
    95  H    0.035315
    96  H    0.020422
    97  H    0.039734
    98  H    0.058380
    99  H    0.048616
   100  H    0.047576
   101  H    0.025244
   102  H    0.051969
   103  H    0.045956
   104  H    0.022040
   105  H    0.034898
   106  H    0.029715
   107  H    0.025850
   108  H    0.019591
   109  H    0.022832
   110  H    0.022991
   111  H    0.018288
   112  H    0.013691
   113  H    0.020976
   114  H    0.026763
   115  H    0.018407
   116  H    0.007164
   117  H    0.024550
   118  H    0.020197
   119  H    0.017091
   120  H    0.016600
   121  H    0.021574
   122  H    0.034506
   123  H    0.013935
   124  H    0.031313
   125  H    0.002815
   126  H    0.020030
   127  H    0.022326
   128  H    0.018420
   129  H    0.019997
   130  H    0.023859
   131  H    0.003242
   132  H    0.015364
   133  H    0.026871
   134  H    0.022136
   135  H    0.021311
   136  H    0.027148
   137  H    0.009863
   138  H    0.023545
   139  H    0.014247
   140  H    0.030225
 Sum of Mulliken charges =   0.00000

 Dipole moment (field-independent basis, Debye):
    X=              3.1588    Y=              4.3661    Z=              3.1364  Tot=              6.2352
 N-N= 4.289525046051D+03 E-N= 0.000000000000D+00  KE=-9.253252780441D+03
 Leave Link  601 at Wed May  4 06:54:45 2022, MaxMem=  6710886400 cpu:               0.8 elap:               0.0
 (Enter /sw/apps/gaussian-16.0/g16/l9999.exe)
 1\1\GINC-BP1-COMPUTE062\SP\RZINDO CIS\STO-3G\C55H74Mg1N4O6\OF15641\04-
 May-2022\0\\#p ZINDO=(nstates=5)\\step_1401_chromophore_5 ZINDO\\0,1\M
 g,0,23.9,-6.646,46.068\C,0,26.279,-4.293,44.855\C,0,21.565,-5.051,44.1
 16\C,0,21.989,-9.251,46.627\C,0,26.534,-8.121,47.815\N,0,23.996,-4.87,
 44.588\C,0,25.068,-4.147,44.248\C,0,24.701,-3.297,42.999\C,0,23.138,-3
 .311,43.037\C,0,22.863,-4.453,43.996\C,0,22.484,-1.987,43.497\C,0,25.3
 18,-3.91,41.69\C,0,25.876,-3.006,40.589\C,0,25.251,-3.048,39.195\O,0,2

 Normal termination of Gaussian 16 at Wed May  4 06:54:45 2022.
