 Gaussian 16, Revision A.03,
 Gaussian 16:  ES64L-G16RevA.03 25-Dec-2016

 ------------------------------
 #p blyp/Def2SVP td=(nstates=5)
 ------------------------------

 --------------------------------------------------
 step_401_chromophore_26 TDDFT with blyp functional
 --------------------------------------------------
 Symbolic Z-matrix:
 Charge =  0 Multiplicity = 1

                         Standard orientation:
 ---------------------------------------------------------------------
 Center     Atomic      Atomic             Coordinates (Angstroms)
 Number     Number       Type             X           Y           Z
 ---------------------------------------------------------------------
      1         12           0       -3.876867    1.282585    0.782042
      2          6           0       -4.973147   -1.901253   -0.168419
      3          6           0       -2.269989   -0.105976    3.425778
      4          6           0       -2.234924    4.136069    1.166102
      5          6           0       -5.230723    2.496320   -2.424378
      6          7           0       -3.458530   -0.808182    1.341342
      7          6           0       -4.025872   -1.950451    0.817573
      8          6           0       -3.816861   -3.166647    1.785113
      9          6           0       -3.306537   -2.431281    3.043890
     10          6           0       -2.889934   -1.056614    2.562459
     11          6           0       -4.345179   -2.334101    4.232034
     12          6           0       -2.858620   -4.195283    1.210244
     13          6           0       -1.951492   -3.898755   -0.066957
     14          6           0       -0.675677   -4.795188   -0.330083
     15          8           0       -0.648765   -5.961935   -0.627218
     16          8           0        0.444715   -4.012258   -0.236003
     17          7           0       -2.580212    1.988191    2.165434
     18          6           0       -2.064665    1.276297    3.188621
     19          6           0       -1.213667    2.126497    4.000904
     20          6           0       -0.984233    3.277758    3.317354
     21          6           0       -1.933169    3.213666    2.176608
     22          6           0       -0.624241    1.662051    5.312427
     23          6           0       -0.094382    4.379297    3.653055
     24          8           0        0.497874    4.293873    4.728123
     25          6           0        0.087888    5.638831    2.870296
     26          7           0       -3.745841    3.135107   -0.505001
     27          6           0       -3.049784    4.176408   -0.006370
     28          6           0       -3.343267    5.348644   -0.945874
     29          6           0       -4.180240    4.861680   -2.198971
     30          6           0       -4.395173    3.401685   -1.659888
     31          6           0       -3.969271    6.520461   -0.204428
     32          6           0       -3.443289    4.812821   -3.621833
     33          6           0       -4.317817    5.358441   -4.745222
     34          7           0       -4.889694    0.474539   -0.902210
     35          6           0       -5.499488    1.133804   -2.061575
     36          6           0       -6.297743    0.147147   -2.757198
     37          6           0       -6.053837   -1.095584   -2.083531
     38          6           0       -5.275635   -0.817107   -0.917882
     39          6           0       -7.061747    0.430383   -4.033727
     40          6           0       -6.381630   -2.478008   -2.052608
     41          8           0       -7.035256   -3.159012   -2.790367
     42          6           0       -5.766777   -3.071364   -0.706418
     43          6           0       -6.712505   -3.705420    0.256914
     44          8           0       -6.832786   -4.929507    0.436417
     45          8           0       -7.454691   -2.736947    0.952124
     46          6           0       -7.939790   -3.136400    2.261180
     47          6           0        1.762096   -4.639530   -0.598198
     48          6           0        2.892600   -3.509694   -0.627274
     49          6           0        3.270726   -2.803143   -1.740363
     50          6           0        2.445043   -2.796855   -3.050205
     51          6           0        4.540819   -1.939494   -1.715912
     52          6           0        4.278277   -0.407272   -1.803676
     53          6           0        4.644381    0.152922   -3.225037
     54          6           0        6.049531    0.851992   -3.251461
     55          6           0        6.524995    1.117242   -4.714233
     56          6           0        7.209422    0.189604   -2.427408
     57          6           0        7.474426    1.026629   -1.126536
     58          6           0        7.778127    0.195177    0.172913
     59          6           0        9.221028    0.281442    0.561997
     60          6           0        9.464197    1.652326    1.162756
     61          6           0        9.703680   -0.957518    1.393614
     62          6           0       11.000256   -1.513677    0.837757
     63          6           0       12.312920   -0.813270    1.356763
     64          6           0       13.367563   -0.587510    0.320147
     65          6           0       14.763233   -0.648573    1.017297
     66          6           0       13.061332    0.671048   -0.576381
     67          1           0       -1.913683   -0.665649    4.293132
     68          1           0       -1.653797    5.038572    1.370391
     69          1           0       -5.832423    2.873249   -3.253655
     70          1           0       -4.754684   -3.662502    2.031886
     71          1           0       -2.371821   -2.857150    3.410283
     72          1           0       -4.138845   -1.608186    5.018326
     73          1           0       -4.320656   -3.303865    4.727210
     74          1           0       -5.339790   -2.111656    3.844661
     75          1           0       -3.487828   -5.044706    0.943853
     76          1           0       -2.248219   -4.690863    1.964365
     77          1           0       -1.649148   -2.851886   -0.056638
     78          1           0       -2.522568   -4.062150   -0.980480
     79          1           0        0.451467    1.830236    5.275141
     80          1           0       -0.849532    0.603927    5.450745
     81          1           0       -0.971143    2.358176    6.075835
     82          1           0       -0.825367    6.231815    2.926342
     83          1           0        0.359441    5.526137    1.820530
     84          1           0        0.814869    6.248627    3.405315
     85          1           0       -2.394840    5.709351   -1.344790
     86          1           0       -5.176146    5.304936   -2.184689
     87          1           0       -4.995527    6.284800    0.077158
     88          1           0       -4.027468    7.368520   -0.885506
     89          1           0       -3.366685    6.975543    0.581946
     90          1           0       -3.122750    3.808710   -3.898069
     91          1           0       -2.535143    5.414125   -3.570951
     92          1           0       -3.905232    6.315663   -5.061552
     93          1           0       -5.348449    5.619867   -4.506600
     94          1           0       -4.269964    4.670210   -5.589325
     95          1           0       -7.895807   -0.271217   -4.072690
     96          1           0       -6.425253    0.143174   -4.870634
     97          1           0       -7.420961    1.457033   -4.105770
     98          1           0       -5.031943   -3.803619   -1.038650
     99          1           0       -7.257320   -3.736995    2.863468
    100          1           0       -8.808898   -3.781610    2.138088
    101          1           0       -8.185057   -2.226684    2.807749
    102          1           0        1.709959   -5.119462   -1.574758
    103          1           0        1.988808   -5.502703    0.027640
    104          1           0        3.571035   -3.409124    0.219976
    105          1           0        1.486275   -3.271226   -2.838883
    106          1           0        3.022607   -3.347317   -3.793751
    107          1           0        2.095020   -1.891614   -3.545423
    108          1           0        5.170123   -2.254627   -2.548285
    109          1           0        5.145411   -2.040994   -0.814290
    110          1           0        4.939699   -0.012844   -1.032010
    111          1           0        3.278008   -0.146164   -1.457518
    112          1           0        3.904310    0.902756   -3.504520
    113          1           0        4.615935   -0.588293   -4.023279
    114          1           0        5.885597    1.837786   -2.816262
    115          1           0        5.785167    1.655626   -5.306286
    116          1           0        6.653213    0.182071   -5.259567
    117          1           0        7.434527    1.704501   -4.843426
    118          1           0        8.113740    0.129607   -3.033467
    119          1           0        6.998692   -0.852552   -2.189682
    120          1           0        6.719522    1.793141   -0.957930
    121          1           0        8.327192    1.663646   -1.360016
    122          1           0        7.425333   -0.805630   -0.076662
    123          1           0        7.135619    0.504732    0.997635
    124          1           0        9.857285    0.357930   -0.320310
    125          1           0        8.509096    2.175115    1.222989
    126          1           0        9.955297    2.345393    0.479816
    127          1           0        9.891288    1.507014    2.155337
    128          1           0        9.040745   -1.822502    1.371876
    129          1           0        9.879903   -0.743567    2.448472
    130          1           0       10.953623   -1.433722   -0.248247
    131          1           0       11.124878   -2.574055    1.059247
    132          1           0       12.682931   -1.456992    2.154309
    133          1           0       11.954030    0.158442    1.692469
    134          1           0       13.316594   -1.382999   -0.423716
    135          1           0       15.083929   -1.688458    1.061426
    136          1           0       14.692713   -0.148857    1.983818
    137          1           0       15.536185   -0.108574    0.468997
    138          1           0       12.331485    1.323009   -0.095957
    139          1           0       12.772291    0.316553   -1.565441
    140          1           0       13.879309    1.384661   -0.677333
 ---------------------------------------------------------------------

 SCF Done:  E(RB-LYP) =  -3007.39010623     A.U. after   20 cycles

 Excitation energies and oscillator strengths:

 Excited State   1:      Singlet-A      1.8240 eV  679.73 nm  f=0.2450  <S**2>=0.000
     245 -> 248        0.21440
     246 -> 247        0.67126
     246 <- 247       -0.13024
 This state for optimization and/or second-order correction.
 Total Energy, E(TD-HF/TD-DFT) =  -3007.32307449
 Copying the excited state density for this state as the 1-particle RhoCI density.

 Excited State   2:      Singlet-A      1.9142 eV  647.69 nm  f=0.0324  <S**2>=0.000
     244 -> 247        0.50655
     245 -> 247       -0.46200
     246 -> 248        0.12843

 Excited State   3:      Singlet-A      2.0604 eV  601.76 nm  f=0.0048  <S**2>=0.000
     243 -> 247        0.64841
     244 -> 247        0.20054
     245 -> 247        0.16492

 Excited State   4:      Singlet-A      2.0754 eV  597.39 nm  f=0.0252  <S**2>=0.000
     243 -> 247       -0.27892
     244 -> 247        0.43198
     245 -> 247        0.39941
     246 -> 248       -0.25173

 Excited State   5:      Singlet-A      2.4060 eV  515.30 nm  f=0.0006  <S**2>=0.000
     241 -> 247        0.69640
     242 -> 247        0.12023

 The electronic state is 1-A.
 Alpha  occ. eigenvalues --  -46.28000 -18.81915 -18.81334 -18.77024 -18.76435
 Alpha  occ. eigenvalues --  -18.75656 -18.75498 -14.03526 -14.03437 -14.01950
 Alpha  occ. eigenvalues --  -14.00889 -10.04307 -10.03661 -10.00049  -9.99265
 Alpha  occ. eigenvalues --   -9.98204  -9.97945  -9.97444  -9.97130  -9.96828
 Alpha  occ. eigenvalues --   -9.96732  -9.96372  -9.96316  -9.95973  -9.94830
 Alpha  occ. eigenvalues --   -9.94449  -9.94420  -9.94249  -9.94219  -9.94104
 Alpha  occ. eigenvalues --   -9.94046  -9.93915  -9.93793  -9.93675  -9.93572
 Alpha  occ. eigenvalues --   -9.93537  -9.93528  -9.93484  -9.93369  -9.93100
 Alpha  occ. eigenvalues --   -9.92863  -9.92854  -9.92768  -9.92764  -9.92738
 Alpha  occ. eigenvalues --   -9.92603  -9.92374  -9.92346  -9.92292  -9.92215
 Alpha  occ. eigenvalues --   -9.92061  -9.91933  -9.91838  -9.91686  -9.91510
 Alpha  occ. eigenvalues --   -9.91402  -9.91350  -9.91234  -9.90992  -9.90965
 Alpha  occ. eigenvalues --   -9.90915  -9.90844  -9.90778  -9.90631  -9.90538
 Alpha  occ. eigenvalues --   -9.90508  -2.92549  -1.72951  -1.72456  -1.72252
 Alpha  occ. eigenvalues --   -0.97019  -0.96594  -0.92396  -0.91985  -0.89357
 Alpha  occ. eigenvalues --   -0.89062  -0.87010  -0.86288  -0.85839  -0.83980
 Alpha  occ. eigenvalues --   -0.75774  -0.73539  -0.72817  -0.72437  -0.72316
 Alpha  occ. eigenvalues --   -0.71897  -0.71578  -0.71188  -0.70822  -0.70731
 Alpha  occ. eigenvalues --   -0.70019  -0.68889  -0.67882  -0.67499  -0.67057
 Alpha  occ. eigenvalues --   -0.66416  -0.66331  -0.65454  -0.64939  -0.64469
 Alpha  occ. eigenvalues --   -0.63916  -0.62749  -0.62250  -0.62096  -0.60966
 Alpha  occ. eigenvalues --   -0.60554  -0.60272  -0.60266  -0.59599  -0.58882
 Alpha  occ. eigenvalues --   -0.58302  -0.58016  -0.57451  -0.56143  -0.54782
 Alpha  occ. eigenvalues --   -0.54441  -0.53895  -0.53308  -0.52556  -0.52117
 Alpha  occ. eigenvalues --   -0.51609  -0.51235  -0.50936  -0.50836  -0.49563
 Alpha  occ. eigenvalues --   -0.49364  -0.49212  -0.49103  -0.48898  -0.46509
 Alpha  occ. eigenvalues --   -0.46271  -0.46015  -0.45859  -0.45206  -0.44340
 Alpha  occ. eigenvalues --   -0.44041  -0.43796  -0.43123  -0.42656  -0.42382
 Alpha  occ. eigenvalues --   -0.42074  -0.41744  -0.41642  -0.41187  -0.40824
 Alpha  occ. eigenvalues --   -0.40663  -0.40655  -0.40502  -0.40220  -0.40091
 Alpha  occ. eigenvalues --   -0.40076  -0.39996  -0.39614  -0.39388  -0.39234
 Alpha  occ. eigenvalues --   -0.39079  -0.38989  -0.38949  -0.38247  -0.38033
 Alpha  occ. eigenvalues --   -0.37974  -0.37813  -0.37726  -0.37224  -0.37185
 Alpha  occ. eigenvalues --   -0.37116  -0.36981  -0.36911  -0.36806  -0.36358
 Alpha  occ. eigenvalues --   -0.36282  -0.36153  -0.35995  -0.35841  -0.35597
 Alpha  occ. eigenvalues --   -0.35312  -0.35098  -0.35082  -0.34790  -0.34757
 Alpha  occ. eigenvalues --   -0.34489  -0.34352  -0.34287  -0.34229  -0.34033
 Alpha  occ. eigenvalues --   -0.33857  -0.33766  -0.33556  -0.33310  -0.33272
 Alpha  occ. eigenvalues --   -0.33070  -0.32878  -0.32810  -0.32730  -0.32581
 Alpha  occ. eigenvalues --   -0.32379  -0.32283  -0.32087  -0.31923  -0.31866
 Alpha  occ. eigenvalues --   -0.31541  -0.31325  -0.31249  -0.30862  -0.30705
 Alpha  occ. eigenvalues --   -0.30544  -0.30463  -0.30331  -0.30255  -0.30031
 Alpha  occ. eigenvalues --   -0.29950  -0.29567  -0.29363  -0.29298  -0.28982
 Alpha  occ. eigenvalues --   -0.28842  -0.28432  -0.28063  -0.28035  -0.27997
 Alpha  occ. eigenvalues --   -0.27504  -0.27489  -0.27127  -0.27066  -0.26774
 Alpha  occ. eigenvalues --   -0.26540  -0.26489  -0.25651  -0.25404  -0.25385
 Alpha  occ. eigenvalues --   -0.24866  -0.24672  -0.24659  -0.24214  -0.24150
 Alpha  occ. eigenvalues --   -0.23170  -0.22592  -0.22060  -0.21868  -0.21472
 Alpha  occ. eigenvalues --   -0.20452  -0.20330  -0.19094  -0.18728  -0.17564
 Alpha  occ. eigenvalues --   -0.16135
 Alpha virt. eigenvalues --   -0.11610  -0.07928  -0.06418  -0.04746  -0.03968
 Alpha virt. eigenvalues --   -0.03724  -0.03006  -0.01999  -0.01603   0.00205
 Alpha virt. eigenvalues --    0.01007   0.01889   0.02065   0.02651   0.03025

 Mulliken charges:
               1
     1  Mg   0.692474
     2  C   -0.010117
     3  C   -0.077421
     4  C   -0.029954
     5  C   -0.039979
     6  N   -0.226450
     7  C   -0.098245
     8  C    0.039963
     9  C    0.025190
    10  C   -0.039861
    11  C    0.112998
    12  C    0.086452
    13  C    0.115252
    14  C    0.065596
    15  O   -0.172874
    16  O   -0.272854
    17  N   -0.304472
    18  C    0.192334
    19  C   -0.178986
    20  C    0.143518
    21  C    0.064450
    22  C    0.225911
    23  C   -0.141454
    24  O   -0.180053
    25  C    0.162777
    26  N   -0.172760
    27  C    0.036598
    28  C    0.052230
    29  C    0.014115
    30  C   -0.036689
    31  C    0.119848
    32  C    0.109315
    33  C    0.052687
    34  N   -0.288190
    35  C    0.105194
    36  C   -0.176760
    37  C    0.086096
    38  C    0.115568
    39  C    0.172049
    40  C   -0.087946
    41  O   -0.095079
    42  C    0.097808
    43  C    0.131016
    44  O   -0.183326
    45  O   -0.295498
    46  C    0.227352
    47  C    0.274062
    48  C   -0.055947
    49  C   -0.115300
    50  C    0.109463
    51  C    0.105265
    52  C    0.074569
    53  C    0.103578
    54  C   -0.058690
    55  C    0.078914
    56  C    0.124331
    57  C    0.023190
    58  C    0.112176
    59  C   -0.079168
    60  C    0.127764
    61  C    0.139634
    62  C    0.025066
    63  C    0.109136
    64  C   -0.094135
    65  C    0.106541
    66  C    0.093445
    67  H   -0.052340
    68  H   -0.112588
    69  H   -0.054931
    70  H   -0.016885
    71  H   -0.034204
    72  H   -0.006545
    73  H   -0.001506
    74  H   -0.004584
    75  H   -0.009733
    76  H   -0.024539
    77  H    0.005146
    78  H    0.002594
    79  H    0.002889
    80  H   -0.019034
    81  H    0.004321
    82  H    0.014923
    83  H    0.018154
    84  H   -0.013351
    85  H   -0.039641
    86  H   -0.017498
    87  H   -0.007003
    88  H   -0.024618
    89  H   -0.008651
    90  H   -0.003689
    91  H   -0.018773
    92  H   -0.012903
    93  H   -0.005171
    94  H   -0.002365
    95  H    0.005382
    96  H    0.011431
    97  H   -0.000843
    98  H   -0.004508
    99  H    0.007508
   100  H    0.009427
   101  H    0.013987
   102  H   -0.003523
   103  H   -0.001944
   104  H   -0.034659
   105  H   -0.005241
   106  H    0.001464
   107  H    0.006453
   108  H   -0.006135
   109  H   -0.035060
   110  H   -0.027727
   111  H   -0.020183
   112  H   -0.036378
   113  H   -0.029036
   114  H   -0.031502
   115  H   -0.030466
   116  H   -0.020785
   117  H   -0.015212
   118  H   -0.035421
   119  H   -0.039188
   120  H   -0.025476
   121  H   -0.037878
   122  H   -0.037521
   123  H   -0.032268
   124  H   -0.030828
   125  H   -0.038772
   126  H   -0.011137
   127  H   -0.004974
   128  H   -0.041594
   129  H   -0.038017
   130  H   -0.035842
   131  H   -0.041019
   132  H   -0.030371
   133  H   -0.031873
   134  H   -0.039294
   135  H   -0.007656
   136  H   -0.010648
   137  H   -0.029309
   138  H   -0.020788
   139  H   -0.002912
   140  H   -0.028861
 Sum of Mulliken charges =  -0.00000

 Dipole moment (field-independent basis, Debye):
    X=              1.4325    Y=              7.4349    Z=              0.5495  Tot=              7.5915
 Quadrupole moment (field-independent basis, Debye-Ang):
   XX=           -413.9242   YY=           -424.2213   ZZ=           -401.7518
   XY=            -48.7436   XZ=            -31.3384   YZ=            -34.6127

 Normal termination of Gaussian 16 at Fri Apr 29 18:31:31 2022.
