 Gaussian 16, Revision A.03,
 Gaussian 16:  ES64L-G16RevA.03 25-Dec-2016

 -----------------------------------
 #p cam-b3lyp/Def2SVP td=(nstates=5)
 -----------------------------------

 -------------------------------------------------------
 step_401_chromophore_26 TDDFT with cam-b3lyp functional
 -------------------------------------------------------
 Symbolic Z-matrix:
 Charge =  0 Multiplicity = 1

                         Standard orientation:
 ---------------------------------------------------------------------
 Center     Atomic      Atomic             Coordinates (Angstroms)
 Number     Number       Type             X           Y           Z
 ---------------------------------------------------------------------
      1         12           0       -3.876867    1.282585    0.782042
      2          6           0       -4.973147   -1.901253   -0.168419
      3          6           0       -2.269989   -0.105976    3.425778
      4          6           0       -2.234924    4.136069    1.166102
      5          6           0       -5.230723    2.496320   -2.424378
      6          7           0       -3.458530   -0.808182    1.341342
      7          6           0       -4.025872   -1.950451    0.817573
      8          6           0       -3.816861   -3.166647    1.785113
      9          6           0       -3.306537   -2.431281    3.043890
     10          6           0       -2.889934   -1.056614    2.562459
     11          6           0       -4.345179   -2.334101    4.232034
     12          6           0       -2.858620   -4.195283    1.210244
     13          6           0       -1.951492   -3.898755   -0.066957
     14          6           0       -0.675677   -4.795188   -0.330083
     15          8           0       -0.648765   -5.961935   -0.627218
     16          8           0        0.444715   -4.012258   -0.236003
     17          7           0       -2.580212    1.988191    2.165434
     18          6           0       -2.064665    1.276297    3.188621
     19          6           0       -1.213667    2.126497    4.000904
     20          6           0       -0.984233    3.277758    3.317354
     21          6           0       -1.933169    3.213666    2.176608
     22          6           0       -0.624241    1.662051    5.312427
     23          6           0       -0.094382    4.379297    3.653055
     24          8           0        0.497874    4.293873    4.728123
     25          6           0        0.087888    5.638831    2.870296
     26          7           0       -3.745841    3.135107   -0.505001
     27          6           0       -3.049784    4.176408   -0.006370
     28          6           0       -3.343267    5.348644   -0.945874
     29          6           0       -4.180240    4.861680   -2.198971
     30          6           0       -4.395173    3.401685   -1.659888
     31          6           0       -3.969271    6.520461   -0.204428
     32          6           0       -3.443289    4.812821   -3.621833
     33          6           0       -4.317817    5.358441   -4.745222
     34          7           0       -4.889694    0.474539   -0.902210
     35          6           0       -5.499488    1.133804   -2.061575
     36          6           0       -6.297743    0.147147   -2.757198
     37          6           0       -6.053837   -1.095584   -2.083531
     38          6           0       -5.275635   -0.817107   -0.917882
     39          6           0       -7.061747    0.430383   -4.033727
     40          6           0       -6.381630   -2.478008   -2.052608
     41          8           0       -7.035256   -3.159012   -2.790367
     42          6           0       -5.766777   -3.071364   -0.706418
     43          6           0       -6.712505   -3.705420    0.256914
     44          8           0       -6.832786   -4.929507    0.436417
     45          8           0       -7.454691   -2.736947    0.952124
     46          6           0       -7.939790   -3.136400    2.261180
     47          6           0        1.762096   -4.639530   -0.598198
     48          6           0        2.892600   -3.509694   -0.627274
     49          6           0        3.270726   -2.803143   -1.740363
     50          6           0        2.445043   -2.796855   -3.050205
     51          6           0        4.540819   -1.939494   -1.715912
     52          6           0        4.278277   -0.407272   -1.803676
     53          6           0        4.644381    0.152922   -3.225037
     54          6           0        6.049531    0.851992   -3.251461
     55          6           0        6.524995    1.117242   -4.714233
     56          6           0        7.209422    0.189604   -2.427408
     57          6           0        7.474426    1.026629   -1.126536
     58          6           0        7.778127    0.195177    0.172913
     59          6           0        9.221028    0.281442    0.561997
     60          6           0        9.464197    1.652326    1.162756
     61          6           0        9.703680   -0.957518    1.393614
     62          6           0       11.000256   -1.513677    0.837757
     63          6           0       12.312920   -0.813270    1.356763
     64          6           0       13.367563   -0.587510    0.320147
     65          6           0       14.763233   -0.648573    1.017297
     66          6           0       13.061332    0.671048   -0.576381
     67          1           0       -1.913683   -0.665649    4.293132
     68          1           0       -1.653797    5.038572    1.370391
     69          1           0       -5.832423    2.873249   -3.253655
     70          1           0       -4.754684   -3.662502    2.031886
     71          1           0       -2.371821   -2.857150    3.410283
     72          1           0       -4.138845   -1.608186    5.018326
     73          1           0       -4.320656   -3.303865    4.727210
     74          1           0       -5.339790   -2.111656    3.844661
     75          1           0       -3.487828   -5.044706    0.943853
     76          1           0       -2.248219   -4.690863    1.964365
     77          1           0       -1.649148   -2.851886   -0.056638
     78          1           0       -2.522568   -4.062150   -0.980480
     79          1           0        0.451467    1.830236    5.275141
     80          1           0       -0.849532    0.603927    5.450745
     81          1           0       -0.971143    2.358176    6.075835
     82          1           0       -0.825367    6.231815    2.926342
     83          1           0        0.359441    5.526137    1.820530
     84          1           0        0.814869    6.248627    3.405315
     85          1           0       -2.394840    5.709351   -1.344790
     86          1           0       -5.176146    5.304936   -2.184689
     87          1           0       -4.995527    6.284800    0.077158
     88          1           0       -4.027468    7.368520   -0.885506
     89          1           0       -3.366685    6.975543    0.581946
     90          1           0       -3.122750    3.808710   -3.898069
     91          1           0       -2.535143    5.414125   -3.570951
     92          1           0       -3.905232    6.315663   -5.061552
     93          1           0       -5.348449    5.619867   -4.506600
     94          1           0       -4.269964    4.670210   -5.589325
     95          1           0       -7.895807   -0.271217   -4.072690
     96          1           0       -6.425253    0.143174   -4.870634
     97          1           0       -7.420961    1.457033   -4.105770
     98          1           0       -5.031943   -3.803619   -1.038650
     99          1           0       -7.257320   -3.736995    2.863468
    100          1           0       -8.808898   -3.781610    2.138088
    101          1           0       -8.185057   -2.226684    2.807749
    102          1           0        1.709959   -5.119462   -1.574758
    103          1           0        1.988808   -5.502703    0.027640
    104          1           0        3.571035   -3.409124    0.219976
    105          1           0        1.486275   -3.271226   -2.838883
    106          1           0        3.022607   -3.347317   -3.793751
    107          1           0        2.095020   -1.891614   -3.545423
    108          1           0        5.170123   -2.254627   -2.548285
    109          1           0        5.145411   -2.040994   -0.814290
    110          1           0        4.939699   -0.012844   -1.032010
    111          1           0        3.278008   -0.146164   -1.457518
    112          1           0        3.904310    0.902756   -3.504520
    113          1           0        4.615935   -0.588293   -4.023279
    114          1           0        5.885597    1.837786   -2.816262
    115          1           0        5.785167    1.655626   -5.306286
    116          1           0        6.653213    0.182071   -5.259567
    117          1           0        7.434527    1.704501   -4.843426
    118          1           0        8.113740    0.129607   -3.033467
    119          1           0        6.998692   -0.852552   -2.189682
    120          1           0        6.719522    1.793141   -0.957930
    121          1           0        8.327192    1.663646   -1.360016
    122          1           0        7.425333   -0.805630   -0.076662
    123          1           0        7.135619    0.504732    0.997635
    124          1           0        9.857285    0.357930   -0.320310
    125          1           0        8.509096    2.175115    1.222989
    126          1           0        9.955297    2.345393    0.479816
    127          1           0        9.891288    1.507014    2.155337
    128          1           0        9.040745   -1.822502    1.371876
    129          1           0        9.879903   -0.743567    2.448472
    130          1           0       10.953623   -1.433722   -0.248247
    131          1           0       11.124878   -2.574055    1.059247
    132          1           0       12.682931   -1.456992    2.154309
    133          1           0       11.954030    0.158442    1.692469
    134          1           0       13.316594   -1.382999   -0.423716
    135          1           0       15.083929   -1.688458    1.061426
    136          1           0       14.692713   -0.148857    1.983818
    137          1           0       15.536185   -0.108574    0.468997
    138          1           0       12.331485    1.323009   -0.095957
    139          1           0       12.772291    0.316553   -1.565441
    140          1           0       13.879309    1.384661   -0.677333
 ---------------------------------------------------------------------

 SCF Done:  E(RCAM-B3LYP) =  -3007.17748709     A.U. after   19 cycles

 Excitation energies and oscillator strengths:

 Excited State   1:      Singlet-A      1.7696 eV  700.63 nm  f=0.3346  <S**2>=0.000
     245 -> 248        0.19834
     246 -> 247        0.67887
     245 <- 248        0.10646
 This state for optimization and/or second-order correction.
 Total Energy, E(TD-HF/TD-DFT) =  -3007.11245502
 Copying the excited state density for this state as the 1-particle RhoCI density.

 Excited State   2:      Singlet-A      2.2706 eV  546.03 nm  f=0.0462  <S**2>=0.000
     245 -> 247        0.59974
     246 -> 248       -0.36084

 Excited State   3:      Singlet-A      3.3686 eV  368.06 nm  f=0.5169  <S**2>=0.000
     243 -> 247       -0.11447
     244 -> 247        0.27324
     245 -> 247        0.30804
     246 -> 248        0.55415

 Excited State   4:      Singlet-A      3.4645 eV  357.87 nm  f=0.1747  <S**2>=0.000
     241 -> 247       -0.17063
     244 -> 247        0.61549
     245 -> 247       -0.16007
     246 -> 248       -0.19848

 Excited State   5:      Singlet-A      3.5727 eV  347.03 nm  f=0.0414  <S**2>=0.000
     240 -> 247       -0.10575
     243 -> 247        0.56606
     243 -> 249        0.22780
     243 -> 251       -0.21390
     246 -> 248        0.10761

 The electronic state is 1-A.
 Alpha  occ. eigenvalues --  -46.89626 -19.24827 -19.24136 -19.20232 -19.19361
 Alpha  occ. eigenvalues --  -19.19190 -19.18245 -14.42469 -14.42276 -14.40658
 Alpha  occ. eigenvalues --  -14.39165 -10.39888 -10.38904 -10.35441 -10.34247
 Alpha  occ. eigenvalues --  -10.32414 -10.32153 -10.31902 -10.31668 -10.31534
 Alpha  occ. eigenvalues --  -10.31306 -10.31117 -10.30720 -10.29888 -10.28794
 Alpha  occ. eigenvalues --  -10.28758 -10.28552 -10.28416 -10.28409 -10.28305
 Alpha  occ. eigenvalues --  -10.28225 -10.28140 -10.28076 -10.27856 -10.27741
 Alpha  occ. eigenvalues --  -10.27654 -10.27573 -10.27482 -10.27350 -10.27203
 Alpha  occ. eigenvalues --  -10.27026 -10.27011 -10.26804 -10.26609 -10.26565
 Alpha  occ. eigenvalues --  -10.26229 -10.26133 -10.26103 -10.25965 -10.25929
 Alpha  occ. eigenvalues --  -10.25846 -10.25599 -10.25527 -10.25392 -10.25217
 Alpha  occ. eigenvalues --  -10.25084 -10.25060 -10.24911 -10.24665 -10.24584
 Alpha  occ. eigenvalues --  -10.24575 -10.24475 -10.24383 -10.24231 -10.24207
 Alpha  occ. eigenvalues --  -10.24165  -3.18071  -1.92951  -1.92533  -1.92369
 Alpha  occ. eigenvalues --   -1.15447  -1.15073  -1.10684  -1.10488  -1.07137
 Alpha  occ. eigenvalues --   -1.07022  -1.04961  -1.04002  -1.03546  -1.01264
 Alpha  occ. eigenvalues --   -0.92720  -0.90400  -0.89605  -0.89188  -0.89090
 Alpha  occ. eigenvalues --   -0.88585  -0.88251  -0.88185  -0.87399  -0.87303
 Alpha  occ. eigenvalues --   -0.86351  -0.85255  -0.84049  -0.83673  -0.83331
 Alpha  occ. eigenvalues --   -0.82646  -0.82397  -0.81422  -0.80672  -0.80275
 Alpha  occ. eigenvalues --   -0.79614  -0.78532  -0.77776  -0.77648  -0.76357
 Alpha  occ. eigenvalues --   -0.75896  -0.75650  -0.75584  -0.74915  -0.74119
 Alpha  occ. eigenvalues --   -0.73320  -0.72986  -0.72430  -0.71097  -0.69411
 Alpha  occ. eigenvalues --   -0.69213  -0.68506  -0.67714  -0.66887  -0.66197
 Alpha  occ. eigenvalues --   -0.65733  -0.65379  -0.65156  -0.64779  -0.63556
 Alpha  occ. eigenvalues --   -0.63306  -0.62902  -0.62850  -0.62750  -0.60234
 Alpha  occ. eigenvalues --   -0.59917  -0.59604  -0.59238  -0.58585  -0.57648
 Alpha  occ. eigenvalues --   -0.57420  -0.57152  -0.56378  -0.55806  -0.55429
 Alpha  occ. eigenvalues --   -0.55022  -0.54647  -0.54551  -0.54075  -0.53912
 Alpha  occ. eigenvalues --   -0.53725  -0.53453  -0.53358  -0.53277  -0.52973
 Alpha  occ. eigenvalues --   -0.52783  -0.52529  -0.52493  -0.52087  -0.51789
 Alpha  occ. eigenvalues --   -0.51508  -0.51462  -0.51402  -0.50661  -0.50547
 Alpha  occ. eigenvalues --   -0.50515  -0.50222  -0.50088  -0.49981  -0.49451
 Alpha  occ. eigenvalues --   -0.49358  -0.49185  -0.49134  -0.49031  -0.48907
 Alpha  occ. eigenvalues --   -0.48792  -0.48359  -0.48216  -0.47891  -0.47682
 Alpha  occ. eigenvalues --   -0.47229  -0.47191  -0.47046  -0.46934  -0.46638
 Alpha  occ. eigenvalues --   -0.46398  -0.46320  -0.46129  -0.46007  -0.45847
 Alpha  occ. eigenvalues --   -0.45685  -0.45499  -0.45308  -0.45108  -0.44955
 Alpha  occ. eigenvalues --   -0.44705  -0.44628  -0.44418  -0.44355  -0.44117
 Alpha  occ. eigenvalues --   -0.43939  -0.43855  -0.43637  -0.43465  -0.43210
 Alpha  occ. eigenvalues --   -0.43069  -0.42922  -0.42701  -0.42529  -0.42263
 Alpha  occ. eigenvalues --   -0.42021  -0.41953  -0.41835  -0.41649  -0.41507
 Alpha  occ. eigenvalues --   -0.41335  -0.40911  -0.40563  -0.40259  -0.40053
 Alpha  occ. eigenvalues --   -0.39878  -0.39386  -0.39045  -0.38984  -0.38909
 Alpha  occ. eigenvalues --   -0.38697  -0.38355  -0.38249  -0.37900  -0.37581
 Alpha  occ. eigenvalues --   -0.37189  -0.37172  -0.36463  -0.36270  -0.36243
 Alpha  occ. eigenvalues --   -0.36106  -0.35939  -0.35401  -0.34630  -0.34557
 Alpha  occ. eigenvalues --   -0.33904  -0.33815  -0.33447  -0.32302  -0.31726
 Alpha  occ. eigenvalues --   -0.31068  -0.30269  -0.30193  -0.29277  -0.24477
 Alpha  occ. eigenvalues --   -0.21386
 Alpha virt. eigenvalues --   -0.08504  -0.02986  -0.00007   0.01250   0.02332
 Alpha virt. eigenvalues --    0.03670   0.04509   0.05277   0.06260   0.06713
 Alpha virt. eigenvalues --    0.07723   0.08358   0.08634   0.08878   0.09190

 Mulliken charges:
               1
     1  Mg   0.823437
     2  C   -0.037469
     3  C   -0.101488
     4  C   -0.054041
     5  C   -0.042545
     6  N   -0.294424
     7  C   -0.052067
     8  C   -0.019231
     9  C   -0.039201
    10  C   -0.005564
    11  C    0.060114
    12  C    0.042959
    13  C    0.048952
    14  C    0.147834
    15  O   -0.214533
    16  O   -0.337467
    17  N   -0.395362
    18  C    0.202917
    19  C   -0.175188
    20  C    0.067322
    21  C    0.099723
    22  C    0.170857
    23  C   -0.062291
    24  O   -0.218943
    25  C    0.074289
    26  N   -0.240748
    27  C    0.060003
    28  C   -0.007471
    29  C   -0.037552
    30  C   -0.018516
    31  C    0.061457
    32  C    0.054670
    33  C   -0.011152
    34  N   -0.372151
    35  C    0.102045
    36  C   -0.171871
    37  C    0.004616
    38  C    0.153146
    39  C    0.120886
    40  C    0.012836
    41  O   -0.139009
    42  C    0.015856
    43  C    0.220916
    44  O   -0.220250
    45  O   -0.355545
    46  C    0.185432
    47  C    0.242640
    48  C   -0.081438
    49  C   -0.132631
    50  C    0.050437
    51  C    0.049953
    52  C    0.016411
    53  C    0.053885
    54  C   -0.113410
    55  C    0.023063
    56  C    0.070759
    57  C   -0.032991
    58  C    0.059657
    59  C   -0.132414
    60  C    0.064245
    61  C    0.081586
    62  C   -0.024322
    63  C    0.052495
    64  C   -0.152629
    65  C    0.047122
    66  C    0.036216
    67  H   -0.018333
    68  H   -0.076717
    69  H   -0.020219
    70  H    0.016069
    71  H    0.001919
    72  H    0.019619
    73  H    0.023558
    74  H    0.015950
    75  H    0.021477
    76  H    0.006647
    77  H    0.037968
    78  H    0.030764
    79  H    0.033153
    80  H    0.007574
    81  H    0.033832
    82  H    0.042631
    83  H    0.047266
    84  H    0.025783
    85  H   -0.004768
    86  H    0.016472
    87  H    0.017396
    88  H    0.002280
    89  H    0.014985
    90  H    0.026561
    91  H    0.008533
    92  H    0.010729
    93  H    0.016909
    94  H    0.021492
    95  H    0.031882
    96  H    0.036740
    97  H    0.020992
    98  H    0.035330
    99  H    0.026823
   100  H    0.035376
   101  H    0.037255
   102  H    0.025371
   103  H    0.027633
   104  H   -0.002489
   105  H    0.019239
   106  H    0.024661
   107  H    0.030536
   108  H    0.019590
   109  H   -0.005700
   110  H   -0.001226
   111  H    0.010675
   112  H   -0.006212
   113  H   -0.003652
   114  H   -0.000596
   115  H   -0.005076
   116  H    0.002226
   117  H    0.009522
   118  H   -0.004692
   119  H   -0.013288
   120  H    0.002210
   121  H   -0.009772
   122  H   -0.012798
   123  H   -0.002579
   124  H   -0.001312
   125  H   -0.011226
   126  H    0.012625
   127  H    0.018829
   128  H   -0.009493
   129  H   -0.009330
   130  H   -0.008443
   131  H   -0.010601
   132  H    0.000050
   133  H   -0.007248
   134  H   -0.006837
   135  H    0.016023
   136  H    0.012443
   137  H   -0.003885
   138  H   -0.000846
   139  H    0.019523
   140  H   -0.002607
 Sum of Mulliken charges =  -0.00000

 Dipole moment (field-independent basis, Debye):
    X=              1.9379    Y=              8.1140    Z=              1.2682  Tot=              8.4381
 Quadrupole moment (field-independent basis, Debye-Ang):
   XX=           -417.3738   YY=           -420.9600   ZZ=           -399.2874
   XY=            -50.0799   XZ=            -34.1191   YZ=            -35.3613

 Normal termination of Gaussian 16 at Fri Apr 29 17:26:40 2022.
