 Gaussian 16, Revision A.03,
 Gaussian 16:  ES64L-G16RevA.03 25-Dec-2016

 ---------------------------------
 #p PBE1PBE/Def2SVP td=(nstates=5)
 ---------------------------------

 -----------------------------------------------------
 step_401_chromophore_26 TDDFT with PBE1PBE functional
 -----------------------------------------------------
 Symbolic Z-matrix:
 Charge =  0 Multiplicity = 1

                         Standard orientation:
 ---------------------------------------------------------------------
 Center     Atomic      Atomic             Coordinates (Angstroms)
 Number     Number       Type             X           Y           Z
 ---------------------------------------------------------------------
      1         12           0       -3.876867    1.282585    0.782042
      2          6           0       -4.973147   -1.901253   -0.168419
      3          6           0       -2.269989   -0.105976    3.425778
      4          6           0       -2.234924    4.136069    1.166102
      5          6           0       -5.230723    2.496320   -2.424378
      6          7           0       -3.458530   -0.808182    1.341342
      7          6           0       -4.025872   -1.950451    0.817573
      8          6           0       -3.816861   -3.166647    1.785113
      9          6           0       -3.306537   -2.431281    3.043890
     10          6           0       -2.889934   -1.056614    2.562459
     11          6           0       -4.345179   -2.334101    4.232034
     12          6           0       -2.858620   -4.195283    1.210244
     13          6           0       -1.951492   -3.898755   -0.066957
     14          6           0       -0.675677   -4.795188   -0.330083
     15          8           0       -0.648765   -5.961935   -0.627218
     16          8           0        0.444715   -4.012258   -0.236003
     17          7           0       -2.580212    1.988191    2.165434
     18          6           0       -2.064665    1.276297    3.188621
     19          6           0       -1.213667    2.126497    4.000904
     20          6           0       -0.984233    3.277758    3.317354
     21          6           0       -1.933169    3.213666    2.176608
     22          6           0       -0.624241    1.662051    5.312427
     23          6           0       -0.094382    4.379297    3.653055
     24          8           0        0.497874    4.293873    4.728123
     25          6           0        0.087888    5.638831    2.870296
     26          7           0       -3.745841    3.135107   -0.505001
     27          6           0       -3.049784    4.176408   -0.006370
     28          6           0       -3.343267    5.348644   -0.945874
     29          6           0       -4.180240    4.861680   -2.198971
     30          6           0       -4.395173    3.401685   -1.659888
     31          6           0       -3.969271    6.520461   -0.204428
     32          6           0       -3.443289    4.812821   -3.621833
     33          6           0       -4.317817    5.358441   -4.745222
     34          7           0       -4.889694    0.474539   -0.902210
     35          6           0       -5.499488    1.133804   -2.061575
     36          6           0       -6.297743    0.147147   -2.757198
     37          6           0       -6.053837   -1.095584   -2.083531
     38          6           0       -5.275635   -0.817107   -0.917882
     39          6           0       -7.061747    0.430383   -4.033727
     40          6           0       -6.381630   -2.478008   -2.052608
     41          8           0       -7.035256   -3.159012   -2.790367
     42          6           0       -5.766777   -3.071364   -0.706418
     43          6           0       -6.712505   -3.705420    0.256914
     44          8           0       -6.832786   -4.929507    0.436417
     45          8           0       -7.454691   -2.736947    0.952124
     46          6           0       -7.939790   -3.136400    2.261180
     47          6           0        1.762096   -4.639530   -0.598198
     48          6           0        2.892600   -3.509694   -0.627274
     49          6           0        3.270726   -2.803143   -1.740363
     50          6           0        2.445043   -2.796855   -3.050205
     51          6           0        4.540819   -1.939494   -1.715912
     52          6           0        4.278277   -0.407272   -1.803676
     53          6           0        4.644381    0.152922   -3.225037
     54          6           0        6.049531    0.851992   -3.251461
     55          6           0        6.524995    1.117242   -4.714233
     56          6           0        7.209422    0.189604   -2.427408
     57          6           0        7.474426    1.026629   -1.126536
     58          6           0        7.778127    0.195177    0.172913
     59          6           0        9.221028    0.281442    0.561997
     60          6           0        9.464197    1.652326    1.162756
     61          6           0        9.703680   -0.957518    1.393614
     62          6           0       11.000256   -1.513677    0.837757
     63          6           0       12.312920   -0.813270    1.356763
     64          6           0       13.367563   -0.587510    0.320147
     65          6           0       14.763233   -0.648573    1.017297
     66          6           0       13.061332    0.671048   -0.576381
     67          1           0       -1.913683   -0.665649    4.293132
     68          1           0       -1.653797    5.038572    1.370391
     69          1           0       -5.832423    2.873249   -3.253655
     70          1           0       -4.754684   -3.662502    2.031886
     71          1           0       -2.371821   -2.857150    3.410283
     72          1           0       -4.138845   -1.608186    5.018326
     73          1           0       -4.320656   -3.303865    4.727210
     74          1           0       -5.339790   -2.111656    3.844661
     75          1           0       -3.487828   -5.044706    0.943853
     76          1           0       -2.248219   -4.690863    1.964365
     77          1           0       -1.649148   -2.851886   -0.056638
     78          1           0       -2.522568   -4.062150   -0.980480
     79          1           0        0.451467    1.830236    5.275141
     80          1           0       -0.849532    0.603927    5.450745
     81          1           0       -0.971143    2.358176    6.075835
     82          1           0       -0.825367    6.231815    2.926342
     83          1           0        0.359441    5.526137    1.820530
     84          1           0        0.814869    6.248627    3.405315
     85          1           0       -2.394840    5.709351   -1.344790
     86          1           0       -5.176146    5.304936   -2.184689
     87          1           0       -4.995527    6.284800    0.077158
     88          1           0       -4.027468    7.368520   -0.885506
     89          1           0       -3.366685    6.975543    0.581946
     90          1           0       -3.122750    3.808710   -3.898069
     91          1           0       -2.535143    5.414125   -3.570951
     92          1           0       -3.905232    6.315663   -5.061552
     93          1           0       -5.348449    5.619867   -4.506600
     94          1           0       -4.269964    4.670210   -5.589325
     95          1           0       -7.895807   -0.271217   -4.072690
     96          1           0       -6.425253    0.143174   -4.870634
     97          1           0       -7.420961    1.457033   -4.105770
     98          1           0       -5.031943   -3.803619   -1.038650
     99          1           0       -7.257320   -3.736995    2.863468
    100          1           0       -8.808898   -3.781610    2.138088
    101          1           0       -8.185057   -2.226684    2.807749
    102          1           0        1.709959   -5.119462   -1.574758
    103          1           0        1.988808   -5.502703    0.027640
    104          1           0        3.571035   -3.409124    0.219976
    105          1           0        1.486275   -3.271226   -2.838883
    106          1           0        3.022607   -3.347317   -3.793751
    107          1           0        2.095020   -1.891614   -3.545423
    108          1           0        5.170123   -2.254627   -2.548285
    109          1           0        5.145411   -2.040994   -0.814290
    110          1           0        4.939699   -0.012844   -1.032010
    111          1           0        3.278008   -0.146164   -1.457518
    112          1           0        3.904310    0.902756   -3.504520
    113          1           0        4.615935   -0.588293   -4.023279
    114          1           0        5.885597    1.837786   -2.816262
    115          1           0        5.785167    1.655626   -5.306286
    116          1           0        6.653213    0.182071   -5.259567
    117          1           0        7.434527    1.704501   -4.843426
    118          1           0        8.113740    0.129607   -3.033467
    119          1           0        6.998692   -0.852552   -2.189682
    120          1           0        6.719522    1.793141   -0.957930
    121          1           0        8.327192    1.663646   -1.360016
    122          1           0        7.425333   -0.805630   -0.076662
    123          1           0        7.135619    0.504732    0.997635
    124          1           0        9.857285    0.357930   -0.320310
    125          1           0        8.509096    2.175115    1.222989
    126          1           0        9.955297    2.345393    0.479816
    127          1           0        9.891288    1.507014    2.155337
    128          1           0        9.040745   -1.822502    1.371876
    129          1           0        9.879903   -0.743567    2.448472
    130          1           0       10.953623   -1.433722   -0.248247
    131          1           0       11.124878   -2.574055    1.059247
    132          1           0       12.682931   -1.456992    2.154309
    133          1           0       11.954030    0.158442    1.692469
    134          1           0       13.316594   -1.382999   -0.423716
    135          1           0       15.083929   -1.688458    1.061426
    136          1           0       14.692713   -0.148857    1.983818
    137          1           0       15.536185   -0.108574    0.468997
    138          1           0       12.331485    1.323009   -0.095957
    139          1           0       12.772291    0.316553   -1.565441
    140          1           0       13.879309    1.384661   -0.677333
 ---------------------------------------------------------------------

 SCF Done:  E(RPBE1PBE) =  -3005.36549554     A.U. after   15 cycles

 Excitation energies and oscillator strengths:

 Excited State   1:      Singlet-A      1.8983 eV  653.12 nm  f=0.3213  <S**2>=0.000
     245 -> 248        0.19387
     246 -> 247        0.68391
 This state for optimization and/or second-order correction.
 Total Energy, E(TD-HF/TD-DFT) =  -3005.29573291
 Copying the excited state density for this state as the 1-particle RhoCI density.

 Excited State   2:      Singlet-A      2.2650 eV  547.38 nm  f=0.0545  <S**2>=0.000
     245 -> 247        0.62025
     246 -> 248       -0.32459

 Excited State   3:      Singlet-A      2.9855 eV  415.29 nm  f=0.0120  <S**2>=0.000
     243 -> 247        0.52853
     243 -> 249        0.12192
     244 -> 247        0.40535
     246 -> 248       -0.12156

 Excited State   4:      Singlet-A      3.0585 eV  405.37 nm  f=0.0115  <S**2>=0.000
     243 -> 247       -0.36382
     244 -> 247        0.54992
     246 -> 248        0.22376

 Excited State   5:      Singlet-A      3.1942 eV  388.15 nm  f=0.0882  <S**2>=0.000
     240 -> 247        0.15334
     241 -> 247        0.54761
     241 -> 248        0.11344
     241 -> 249       -0.16050
     243 -> 247       -0.10317
     245 -> 247       -0.13316
     246 -> 248       -0.27670

 The electronic state is 1-A.
 Alpha  occ. eigenvalues --  -46.92999 -19.25488 -19.24830 -19.20499 -19.19629
 Alpha  occ. eigenvalues --  -19.19228 -19.18694 -14.41908 -14.41827 -14.40162
 Alpha  occ. eigenvalues --  -14.38958 -10.36953 -10.35948 -10.32392 -10.31541
 Alpha  occ. eigenvalues --  -10.29815 -10.29730 -10.29281 -10.29122 -10.29121
 Alpha  occ. eigenvalues --  -10.29052 -10.28593 -10.28473 -10.27943 -10.26723
 Alpha  occ. eigenvalues --  -10.26342 -10.26331 -10.26184 -10.26117 -10.26036
 Alpha  occ. eigenvalues --  -10.25942 -10.25899 -10.25755 -10.25463 -10.25403
 Alpha  occ. eigenvalues --  -10.25305 -10.25087 -10.25051 -10.24917 -10.24643
 Alpha  occ. eigenvalues --  -10.24637 -10.24631 -10.24214 -10.24155 -10.24041
 Alpha  occ. eigenvalues --  -10.23837 -10.23809 -10.23485 -10.23378 -10.23337
 Alpha  occ. eigenvalues --  -10.23324 -10.23147 -10.23078 -10.23030 -10.22915
 Alpha  occ. eigenvalues --  -10.22789 -10.22750 -10.22634 -10.22211 -10.22119
 Alpha  occ. eigenvalues --  -10.21978 -10.21856 -10.21753 -10.21725 -10.21682
 Alpha  occ. eigenvalues --  -10.21613  -3.15025  -1.87844  -1.87405  -1.87245
 Alpha  occ. eigenvalues --   -1.10256  -1.09845  -1.05459  -1.05231  -1.02023
 Alpha  occ. eigenvalues --   -1.01871  -0.99439  -0.98587  -0.98119  -0.96044
 Alpha  occ. eigenvalues --   -0.87192  -0.84454  -0.83684  -0.83418  -0.83318
 Alpha  occ. eigenvalues --   -0.82843  -0.82351  -0.82338  -0.81682  -0.81418
 Alpha  occ. eigenvalues --   -0.80795  -0.79472  -0.78280  -0.77889  -0.77438
 Alpha  occ. eigenvalues --   -0.76847  -0.76546  -0.75714  -0.75021  -0.74448
 Alpha  occ. eigenvalues --   -0.73805  -0.72757  -0.72081  -0.71866  -0.70699
 Alpha  occ. eigenvalues --   -0.70033  -0.69894  -0.69708  -0.69020  -0.68275
 Alpha  occ. eigenvalues --   -0.67706  -0.67388  -0.66799  -0.65370  -0.63761
 Alpha  occ. eigenvalues --   -0.63558  -0.62677  -0.62268  -0.61121  -0.60633
 Alpha  occ. eigenvalues --   -0.60294  -0.59796  -0.59373  -0.59330  -0.57663
 Alpha  occ. eigenvalues --   -0.57489  -0.57458  -0.57313  -0.56993  -0.54735
 Alpha  occ. eigenvalues --   -0.54447  -0.54105  -0.53623  -0.53163  -0.52328
 Alpha  occ. eigenvalues --   -0.51944  -0.51654  -0.50828  -0.50369  -0.49746
 Alpha  occ. eigenvalues --   -0.49563  -0.49126  -0.48902  -0.48578  -0.48516
 Alpha  occ. eigenvalues --   -0.48222  -0.47997  -0.47891  -0.47789  -0.47270
 Alpha  occ. eigenvalues --   -0.47229  -0.47115  -0.46939  -0.46720  -0.46293
 Alpha  occ. eigenvalues --   -0.46155  -0.46068  -0.45943  -0.45212  -0.45086
 Alpha  occ. eigenvalues --   -0.45040  -0.44783  -0.44635  -0.44429  -0.44036
 Alpha  occ. eigenvalues --   -0.43969  -0.43814  -0.43769  -0.43672  -0.43537
 Alpha  occ. eigenvalues --   -0.43391  -0.43006  -0.42814  -0.42503  -0.42301
 Alpha  occ. eigenvalues --   -0.41821  -0.41776  -0.41627  -0.41473  -0.41404
 Alpha  occ. eigenvalues --   -0.41119  -0.40980  -0.40775  -0.40673  -0.40453
 Alpha  occ. eigenvalues --   -0.40409  -0.40238  -0.40027  -0.39826  -0.39757
 Alpha  occ. eigenvalues --   -0.39399  -0.39280  -0.39245  -0.39006  -0.38848
 Alpha  occ. eigenvalues --   -0.38714  -0.38538  -0.38484  -0.38235  -0.38037
 Alpha  occ. eigenvalues --   -0.37931  -0.37738  -0.37515  -0.37282  -0.37093
 Alpha  occ. eigenvalues --   -0.36888  -0.36771  -0.36628  -0.36444  -0.36318
 Alpha  occ. eigenvalues --   -0.36018  -0.35762  -0.35316  -0.35277  -0.35008
 Alpha  occ. eigenvalues --   -0.34658  -0.34184  -0.34015  -0.33757  -0.33676
 Alpha  occ. eigenvalues --   -0.33592  -0.33180  -0.33100  -0.32721  -0.32327
 Alpha  occ. eigenvalues --   -0.32219  -0.31985  -0.31505  -0.31163  -0.31101
 Alpha  occ. eigenvalues --   -0.31024  -0.30787  -0.30287  -0.29593  -0.29580
 Alpha  occ. eigenvalues --   -0.29094  -0.28871  -0.28658  -0.27582  -0.26759
 Alpha  occ. eigenvalues --   -0.26280  -0.25565  -0.25366  -0.25065  -0.21352
 Alpha  occ. eigenvalues --   -0.19036
 Alpha virt. eigenvalues --   -0.11093  -0.06388  -0.04177  -0.02129  -0.01495
 Alpha virt. eigenvalues --   -0.01010   0.00029   0.00854   0.01700   0.03186
 Alpha virt. eigenvalues --    0.03799   0.04733   0.04914   0.05606   0.05874

 Mulliken charges:
               1
     1  Mg   0.965456
     2  C   -0.050785
     3  C   -0.092930
     4  C   -0.064261
     5  C   -0.039400
     6  N   -0.394630
     7  C    0.036210
     8  C   -0.106976
     9  C   -0.120068
    10  C    0.038513
    11  C   -0.000551
    12  C    0.010350
    13  C   -0.037610
    14  C    0.218896
    15  O   -0.248867
    16  O   -0.365476
    17  N   -0.512679
    18  C    0.221596
    19  C   -0.195412
    20  C    0.005752
    21  C    0.133241
    22  C    0.110650
    23  C   -0.007593
    24  O   -0.254025
    25  C   -0.003207
    26  N   -0.345326
    27  C    0.101954
    28  C   -0.089567
    29  C   -0.109907
    30  C    0.025440
    31  C    0.002163
    32  C   -0.003555
    33  C   -0.082160
    34  N   -0.490600
    35  C    0.126632
    36  C   -0.187400
    37  C   -0.045149
    38  C    0.201495
    39  C    0.065696
    40  C    0.112459
    41  O   -0.184797
    42  C   -0.098109
    43  C    0.305770
    44  O   -0.256934
    45  O   -0.384630
    46  C    0.129948
    47  C    0.196816
    48  C   -0.092321
    49  C   -0.174078
    50  C   -0.008435
    51  C   -0.015516
    52  C   -0.050927
    53  C    0.000109
    54  C   -0.199545
    55  C   -0.038543
    56  C    0.018829
    57  C   -0.094474
    58  C   -0.003501
    59  C   -0.217703
    60  C    0.007415
    61  C    0.024783
    62  C   -0.086899
    63  C   -0.008130
    64  C   -0.242402
    65  C   -0.017520
    66  C   -0.023589
    67  H    0.013259
    68  H   -0.036117
    69  H    0.011649
    70  H    0.059214
    71  H    0.038389
    72  H    0.046949
    73  H    0.051540
    74  H    0.046267
    75  H    0.053022
    76  H    0.038639
    77  H    0.072355
    78  H    0.064174
    79  H    0.060548
    80  H    0.034759
    81  H    0.061345
    82  H    0.068865
    83  H    0.072529
    84  H    0.053555
    85  H    0.033629
    86  H    0.052499
    87  H    0.045161
    88  H    0.031384
    89  H    0.043061
    90  H    0.058105
    91  H    0.041300
    92  H    0.039157
    93  H    0.043033
    94  H    0.048892
    95  H    0.060625
    96  H    0.065737
    97  H    0.047483
    98  H    0.076904
    99  H    0.047496
   100  H    0.058128
   101  H    0.058783
   102  H    0.051121
   103  H    0.053830
   104  H    0.027214
   105  H    0.047304
   106  H    0.052083
   107  H    0.056433
   108  H    0.051427
   109  H    0.027184
   110  H    0.038440
   111  H    0.043053
   112  H    0.026884
   113  H    0.027625
   114  H    0.038635
   115  H    0.023319
   116  H    0.030434
   117  H    0.037400
   118  H    0.027736
   119  H    0.021299
   120  H    0.032079
   121  H    0.023808
   122  H    0.021877
   123  H    0.030451
   124  H    0.038245
   125  H    0.017869
   126  H    0.038322
   127  H    0.045072
   128  H    0.022889
   129  H    0.023653
   130  H    0.024937
   131  H    0.022689
   132  H    0.033001
   133  H    0.029262
   134  H    0.031636
   135  H    0.043977
   136  H    0.039994
   137  H    0.024247
   138  H    0.028041
   139  H    0.045220
   140  H    0.025008
 Sum of Mulliken charges =  -0.00000

 Dipole moment (field-independent basis, Debye):
    X=              1.6706    Y=              8.0523    Z=              0.8568  Tot=              8.2683
 Quadrupole moment (field-independent basis, Debye-Ang):
   XX=           -412.4289   YY=           -417.4385   ZZ=           -395.6302
   XY=            -50.2503   XZ=            -32.6740   YZ=            -37.0320

 Normal termination of Gaussian 16 at Fri Apr 29 17:47:22 2022.
