 Gaussian 16, Revision A.03,
 Gaussian 16:  ES64L-G16RevA.03 25-Dec-2016

 --------------------------------
 #p wB97XD/Def2SVP td=(nstates=5)
 --------------------------------

 ----------------------------------------------------
 step_401_chromophore_26 TDDFT with wB97XD functional
 ----------------------------------------------------
 Symbolic Z-matrix:
 Charge =  0 Multiplicity = 1

                         Standard orientation:
 ---------------------------------------------------------------------
 Center     Atomic      Atomic             Coordinates (Angstroms)
 Number     Number       Type             X           Y           Z
 ---------------------------------------------------------------------
      1         12           0       -3.876867    1.282585    0.782042
      2          6           0       -4.973147   -1.901253   -0.168419
      3          6           0       -2.269989   -0.105976    3.425778
      4          6           0       -2.234924    4.136069    1.166102
      5          6           0       -5.230723    2.496320   -2.424378
      6          7           0       -3.458530   -0.808182    1.341342
      7          6           0       -4.025872   -1.950451    0.817573
      8          6           0       -3.816861   -3.166647    1.785113
      9          6           0       -3.306537   -2.431281    3.043890
     10          6           0       -2.889934   -1.056614    2.562459
     11          6           0       -4.345179   -2.334101    4.232034
     12          6           0       -2.858620   -4.195283    1.210244
     13          6           0       -1.951492   -3.898755   -0.066957
     14          6           0       -0.675677   -4.795188   -0.330083
     15          8           0       -0.648765   -5.961935   -0.627218
     16          8           0        0.444715   -4.012258   -0.236003
     17          7           0       -2.580212    1.988191    2.165434
     18          6           0       -2.064665    1.276297    3.188621
     19          6           0       -1.213667    2.126497    4.000904
     20          6           0       -0.984233    3.277758    3.317354
     21          6           0       -1.933169    3.213666    2.176608
     22          6           0       -0.624241    1.662051    5.312427
     23          6           0       -0.094382    4.379297    3.653055
     24          8           0        0.497874    4.293873    4.728123
     25          6           0        0.087888    5.638831    2.870296
     26          7           0       -3.745841    3.135107   -0.505001
     27          6           0       -3.049784    4.176408   -0.006370
     28          6           0       -3.343267    5.348644   -0.945874
     29          6           0       -4.180240    4.861680   -2.198971
     30          6           0       -4.395173    3.401685   -1.659888
     31          6           0       -3.969271    6.520461   -0.204428
     32          6           0       -3.443289    4.812821   -3.621833
     33          6           0       -4.317817    5.358441   -4.745222
     34          7           0       -4.889694    0.474539   -0.902210
     35          6           0       -5.499488    1.133804   -2.061575
     36          6           0       -6.297743    0.147147   -2.757198
     37          6           0       -6.053837   -1.095584   -2.083531
     38          6           0       -5.275635   -0.817107   -0.917882
     39          6           0       -7.061747    0.430383   -4.033727
     40          6           0       -6.381630   -2.478008   -2.052608
     41          8           0       -7.035256   -3.159012   -2.790367
     42          6           0       -5.766777   -3.071364   -0.706418
     43          6           0       -6.712505   -3.705420    0.256914
     44          8           0       -6.832786   -4.929507    0.436417
     45          8           0       -7.454691   -2.736947    0.952124
     46          6           0       -7.939790   -3.136400    2.261180
     47          6           0        1.762096   -4.639530   -0.598198
     48          6           0        2.892600   -3.509694   -0.627274
     49          6           0        3.270726   -2.803143   -1.740363
     50          6           0        2.445043   -2.796855   -3.050205
     51          6           0        4.540819   -1.939494   -1.715912
     52          6           0        4.278277   -0.407272   -1.803676
     53          6           0        4.644381    0.152922   -3.225037
     54          6           0        6.049531    0.851992   -3.251461
     55          6           0        6.524995    1.117242   -4.714233
     56          6           0        7.209422    0.189604   -2.427408
     57          6           0        7.474426    1.026629   -1.126536
     58          6           0        7.778127    0.195177    0.172913
     59          6           0        9.221028    0.281442    0.561997
     60          6           0        9.464197    1.652326    1.162756
     61          6           0        9.703680   -0.957518    1.393614
     62          6           0       11.000256   -1.513677    0.837757
     63          6           0       12.312920   -0.813270    1.356763
     64          6           0       13.367563   -0.587510    0.320147
     65          6           0       14.763233   -0.648573    1.017297
     66          6           0       13.061332    0.671048   -0.576381
     67          1           0       -1.913683   -0.665649    4.293132
     68          1           0       -1.653797    5.038572    1.370391
     69          1           0       -5.832423    2.873249   -3.253655
     70          1           0       -4.754684   -3.662502    2.031886
     71          1           0       -2.371821   -2.857150    3.410283
     72          1           0       -4.138845   -1.608186    5.018326
     73          1           0       -4.320656   -3.303865    4.727210
     74          1           0       -5.339790   -2.111656    3.844661
     75          1           0       -3.487828   -5.044706    0.943853
     76          1           0       -2.248219   -4.690863    1.964365
     77          1           0       -1.649148   -2.851886   -0.056638
     78          1           0       -2.522568   -4.062150   -0.980480
     79          1           0        0.451467    1.830236    5.275141
     80          1           0       -0.849532    0.603927    5.450745
     81          1           0       -0.971143    2.358176    6.075835
     82          1           0       -0.825367    6.231815    2.926342
     83          1           0        0.359441    5.526137    1.820530
     84          1           0        0.814869    6.248627    3.405315
     85          1           0       -2.394840    5.709351   -1.344790
     86          1           0       -5.176146    5.304936   -2.184689
     87          1           0       -4.995527    6.284800    0.077158
     88          1           0       -4.027468    7.368520   -0.885506
     89          1           0       -3.366685    6.975543    0.581946
     90          1           0       -3.122750    3.808710   -3.898069
     91          1           0       -2.535143    5.414125   -3.570951
     92          1           0       -3.905232    6.315663   -5.061552
     93          1           0       -5.348449    5.619867   -4.506600
     94          1           0       -4.269964    4.670210   -5.589325
     95          1           0       -7.895807   -0.271217   -4.072690
     96          1           0       -6.425253    0.143174   -4.870634
     97          1           0       -7.420961    1.457033   -4.105770
     98          1           0       -5.031943   -3.803619   -1.038650
     99          1           0       -7.257320   -3.736995    2.863468
    100          1           0       -8.808898   -3.781610    2.138088
    101          1           0       -8.185057   -2.226684    2.807749
    102          1           0        1.709959   -5.119462   -1.574758
    103          1           0        1.988808   -5.502703    0.027640
    104          1           0        3.571035   -3.409124    0.219976
    105          1           0        1.486275   -3.271226   -2.838883
    106          1           0        3.022607   -3.347317   -3.793751
    107          1           0        2.095020   -1.891614   -3.545423
    108          1           0        5.170123   -2.254627   -2.548285
    109          1           0        5.145411   -2.040994   -0.814290
    110          1           0        4.939699   -0.012844   -1.032010
    111          1           0        3.278008   -0.146164   -1.457518
    112          1           0        3.904310    0.902756   -3.504520
    113          1           0        4.615935   -0.588293   -4.023279
    114          1           0        5.885597    1.837786   -2.816262
    115          1           0        5.785167    1.655626   -5.306286
    116          1           0        6.653213    0.182071   -5.259567
    117          1           0        7.434527    1.704501   -4.843426
    118          1           0        8.113740    0.129607   -3.033467
    119          1           0        6.998692   -0.852552   -2.189682
    120          1           0        6.719522    1.793141   -0.957930
    121          1           0        8.327192    1.663646   -1.360016
    122          1           0        7.425333   -0.805630   -0.076662
    123          1           0        7.135619    0.504732    0.997635
    124          1           0        9.857285    0.357930   -0.320310
    125          1           0        8.509096    2.175115    1.222989
    126          1           0        9.955297    2.345393    0.479816
    127          1           0        9.891288    1.507014    2.155337
    128          1           0        9.040745   -1.822502    1.371876
    129          1           0        9.879903   -0.743567    2.448472
    130          1           0       10.953623   -1.433722   -0.248247
    131          1           0       11.124878   -2.574055    1.059247
    132          1           0       12.682931   -1.456992    2.154309
    133          1           0       11.954030    0.158442    1.692469
    134          1           0       13.316594   -1.382999   -0.423716
    135          1           0       15.083929   -1.688458    1.061426
    136          1           0       14.692713   -0.148857    1.983818
    137          1           0       15.536185   -0.108574    0.468997
    138          1           0       12.331485    1.323009   -0.095957
    139          1           0       12.772291    0.316553   -1.565441
    140          1           0       13.879309    1.384661   -0.677333
 ---------------------------------------------------------------------

 SCF Done:  E(RwB97XD) =  -3007.88055565     A.U. after   20 cycles

 Excitation energies and oscillator strengths:

 Excited State   1:      Singlet-A      1.7248 eV  718.83 nm  f=0.3331  <S**2>=0.000
     245 -> 248        0.20252
     246 -> 247        0.67704
     245 <- 248        0.11498
 This state for optimization and/or second-order correction.
 Total Energy, E(TD-HF/TD-DFT) =  -3007.81717047
 Copying the excited state density for this state as the 1-particle RhoCI density.

 Excited State   2:      Singlet-A      2.2200 eV  558.50 nm  f=0.0460  <S**2>=0.000
     245 -> 247        0.59905
     246 -> 248       -0.35989

 Excited State   3:      Singlet-A      3.3884 eV  365.90 nm  f=0.5403  <S**2>=0.000
     243 -> 247       -0.10828
     244 -> 247        0.26647
     245 -> 247        0.30817
     246 -> 248        0.55780
     245 <- 247       -0.10415

 Excited State   4:      Singlet-A      3.5022 eV  354.02 nm  f=0.1842  <S**2>=0.000
     241 -> 247       -0.21285
     244 -> 247        0.59605
     245 -> 247       -0.15891
     246 -> 248       -0.19404

 Excited State   5:      Singlet-A      3.6041 eV  344.01 nm  f=0.0044  <S**2>=0.000
     239 -> 247        0.14205
     239 -> 249       -0.16146
     240 -> 247        0.38326
     240 -> 248        0.16867
     240 -> 249       -0.29478
     240 -> 251        0.14299
     241 -> 247       -0.19562
     241 -> 249        0.13550
     243 -> 247       -0.18744
     244 -> 247       -0.10446

 The electronic state is 1-A.
 Alpha  occ. eigenvalues --  -46.95972 -19.30029 -19.29374 -19.25175 -19.24292
 Alpha  occ. eigenvalues --  -19.24254 -19.23232 -14.47049 -14.46864 -14.45293
 Alpha  occ. eigenvalues --  -14.43764 -10.43752 -10.42714 -10.39428 -10.38191
 Alpha  occ. eigenvalues --  -10.36341 -10.36235 -10.35803 -10.35630 -10.35622
 Alpha  occ. eigenvalues --  -10.35284 -10.35236 -10.34726 -10.33872 -10.32947
 Alpha  occ. eigenvalues --  -10.32858 -10.32614 -10.32475 -10.32457 -10.32365
 Alpha  occ. eigenvalues --  -10.32250 -10.32126 -10.32060 -10.31960 -10.31755
 Alpha  occ. eigenvalues --  -10.31744 -10.31608 -10.31489 -10.31275 -10.31111
 Alpha  occ. eigenvalues --  -10.30975 -10.30927 -10.30852 -10.30528 -10.30482
 Alpha  occ. eigenvalues --  -10.30124 -10.30080 -10.30064 -10.29872 -10.29789
 Alpha  occ. eigenvalues --  -10.29649 -10.29523 -10.29457 -10.29329 -10.29160
 Alpha  occ. eigenvalues --  -10.29057 -10.29008 -10.28895 -10.28599 -10.28494
 Alpha  occ. eigenvalues --  -10.28420 -10.28297 -10.28196 -10.28102 -10.28076
 Alpha  occ. eigenvalues --  -10.28071  -3.21876  -1.95440  -1.95002  -1.94839
 Alpha  occ. eigenvalues --   -1.17615  -1.17221  -1.12929  -1.12678  -1.09344
 Alpha  occ. eigenvalues --   -1.09212  -1.07041  -1.06015  -1.05548  -1.03246
 Alpha  occ. eigenvalues --   -0.94664  -0.92142  -0.91378  -0.91063  -0.91015
 Alpha  occ. eigenvalues --   -0.90468  -0.90227  -0.90020  -0.89309  -0.89097
 Alpha  occ. eigenvalues --   -0.88266  -0.87131  -0.85907  -0.85544  -0.85184
 Alpha  occ. eigenvalues --   -0.84586  -0.84236  -0.83342  -0.82625  -0.82110
 Alpha  occ. eigenvalues --   -0.81465  -0.80509  -0.79685  -0.79536  -0.78280
 Alpha  occ. eigenvalues --   -0.77720  -0.77528  -0.77428  -0.76723  -0.75949
 Alpha  occ. eigenvalues --   -0.75250  -0.74951  -0.74393  -0.73052  -0.71404
 Alpha  occ. eigenvalues --   -0.71133  -0.70350  -0.69717  -0.68759  -0.68124
 Alpha  occ. eigenvalues --   -0.67734  -0.67327  -0.67010  -0.66784  -0.65354
 Alpha  occ. eigenvalues --   -0.65124  -0.64866  -0.64742  -0.64660  -0.62291
 Alpha  occ. eigenvalues --   -0.61922  -0.61554  -0.61144  -0.60558  -0.59632
 Alpha  occ. eigenvalues --   -0.59398  -0.59092  -0.58291  -0.57753  -0.57290
 Alpha  occ. eigenvalues --   -0.56955  -0.56548  -0.56399  -0.55975  -0.55862
 Alpha  occ. eigenvalues --   -0.55687  -0.55363  -0.55294  -0.55213  -0.54935
 Alpha  occ. eigenvalues --   -0.54642  -0.54417  -0.54364  -0.53999  -0.53677
 Alpha  occ. eigenvalues --   -0.53414  -0.53373  -0.53300  -0.52564  -0.52509
 Alpha  occ. eigenvalues --   -0.52400  -0.52136  -0.52006  -0.51964  -0.51328
 Alpha  occ. eigenvalues --   -0.51259  -0.51114  -0.51040  -0.50942  -0.50791
 Alpha  occ. eigenvalues --   -0.50711  -0.50274  -0.50113  -0.49769  -0.49579
 Alpha  occ. eigenvalues --   -0.49183  -0.49056  -0.49005  -0.48764  -0.48524
 Alpha  occ. eigenvalues --   -0.48308  -0.48245  -0.48054  -0.47899  -0.47719
 Alpha  occ. eigenvalues --   -0.47605  -0.47408  -0.47233  -0.47020  -0.46866
 Alpha  occ. eigenvalues --   -0.46648  -0.46485  -0.46372  -0.46209  -0.45990
 Alpha  occ. eigenvalues --   -0.45847  -0.45719  -0.45566  -0.45327  -0.45201
 Alpha  occ. eigenvalues --   -0.44982  -0.44866  -0.44627  -0.44494  -0.44224
 Alpha  occ. eigenvalues --   -0.43967  -0.43839  -0.43724  -0.43523  -0.43400
 Alpha  occ. eigenvalues --   -0.43185  -0.42835  -0.42428  -0.42160  -0.41947
 Alpha  occ. eigenvalues --   -0.41733  -0.41230  -0.40935  -0.40829  -0.40746
 Alpha  occ. eigenvalues --   -0.40600  -0.40184  -0.40179  -0.39733  -0.39395
 Alpha  occ. eigenvalues --   -0.39336  -0.39028  -0.38371  -0.38216  -0.38129
 Alpha  occ. eigenvalues --   -0.38081  -0.37775  -0.37234  -0.36537  -0.36456
 Alpha  occ. eigenvalues --   -0.35859  -0.35749  -0.35659  -0.34431  -0.33791
 Alpha  occ. eigenvalues --   -0.33279  -0.32282  -0.32149  -0.31394  -0.26411
 Alpha  occ. eigenvalues --   -0.23202
 Alpha virt. eigenvalues --   -0.06835  -0.01084   0.02051   0.04364   0.04474
 Alpha virt. eigenvalues --    0.05811   0.06696   0.07576   0.08615   0.09634
 Alpha virt. eigenvalues --    0.10404   0.11273   0.11626   0.12289   0.12537

 Mulliken charges:
               1
     1  Mg   0.957577
     2  C   -0.046777
     3  C   -0.115054
     4  C   -0.069161
     5  C   -0.050677
     6  N   -0.361480
     7  C   -0.006962
     8  C   -0.070216
     9  C   -0.092915
    10  C    0.025803
    11  C    0.012554
    12  C    0.010190
    13  C   -0.012637
    14  C    0.207782
    15  O   -0.246334
    16  O   -0.365146
    17  N   -0.482677
    18  C    0.219458
    19  C   -0.187095
    20  C    0.017896
    21  C    0.127099
    22  C    0.122366
    23  C   -0.014601
    24  O   -0.248375
    25  C    0.010157
    26  N   -0.308639
    27  C    0.087201
    28  C   -0.061791
    29  C   -0.086395
    30  C    0.007097
    31  C    0.012449
    32  C    0.010682
    33  C   -0.067558
    34  N   -0.456248
    35  C    0.113897
    36  C   -0.184924
    37  C   -0.041651
    38  C    0.183813
    39  C    0.077255
    40  C    0.093372
    41  O   -0.178145
    42  C   -0.056327
    43  C    0.284509
    44  O   -0.250878
    45  O   -0.384149
    46  C    0.144187
    47  C    0.210999
    48  C   -0.101808
    49  C   -0.160451
    50  C    0.002722
    51  C    0.003317
    52  C   -0.027326
    53  C    0.011778
    54  C   -0.168749
    55  C   -0.025008
    56  C    0.034450
    57  C   -0.079852
    58  C    0.021495
    59  C   -0.180731
    60  C    0.014154
    61  C    0.038060
    62  C   -0.067493
    63  C    0.011965
    64  C   -0.214969
    65  C   -0.003289
    66  C   -0.009711
    67  H    0.005320
    68  H   -0.052746
    69  H    0.005479
    70  H    0.039727
    71  H    0.028838
    72  H    0.041495
    73  H    0.046632
    74  H    0.037197
    75  H    0.047376
    76  H    0.031639
    77  H    0.063118
    78  H    0.056485
    79  H    0.056990
    80  H    0.031119
    81  H    0.058463
    82  H    0.063637
    83  H    0.068853
    84  H    0.053131
    85  H    0.022788
    86  H    0.041370
    87  H    0.039316
    88  H    0.025472
    89  H    0.037101
    90  H    0.050342
    91  H    0.032756
    92  H    0.032899
    93  H    0.036690
    94  H    0.043720
    95  H    0.055672
    96  H    0.059809
    97  H    0.041521
    98  H    0.066219
    99  H    0.041846
   100  H    0.055150
   101  H    0.055915
   102  H    0.045403
   103  H    0.050807
   104  H    0.024389
   105  H    0.040845
   106  H    0.046711
   107  H    0.052082
   108  H    0.041535
   109  H    0.018867
   110  H    0.021678
   111  H    0.036455
   112  H    0.019896
   113  H    0.016998
   114  H    0.024875
   115  H    0.017313
   116  H    0.023083
   117  H    0.031863
   118  H    0.020692
   119  H    0.006420
   120  H    0.023589
   121  H    0.013715
   122  H    0.006689
   123  H    0.021554
   124  H    0.017053
   125  H    0.010711
   126  H    0.034053
   127  H    0.039826
   128  H    0.016419
   129  H    0.014486
   130  H    0.012652
   131  H    0.016251
   132  H    0.025286
   133  H    0.011298
   134  H    0.020327
   135  H    0.038320
   136  H    0.033166
   137  H    0.018498
   138  H    0.016119
   139  H    0.040559
   140  H    0.020091
 Sum of Mulliken charges =  -0.00000

 Dipole moment (field-independent basis, Debye):
    X=              2.0179    Y=              8.3220    Z=              1.3995  Tot=              8.6768
 Quadrupole moment (field-independent basis, Debye-Ang):
   XX=           -414.1885   YY=           -417.1123   ZZ=           -394.6773
   XY=            -50.5014   XZ=            -34.4548   YZ=            -35.9473

 Normal termination of Gaussian 16 at Fri Apr 29 18:18:06 2022.
