 Gaussian 16, Revision A.03,
 Gaussian 16:  ES64L-G16RevA.03 25-Dec-2016

 --------------------
 #p ZINDO=(nstates=5)
 --------------------

 -----------------------------
 step_401_chromophore_26 ZINDO
 -----------------------------
 Symbolic Z-matrix:
 Charge =  0 Multiplicity = 1

                         Standard orientation:
 ---------------------------------------------------------------------
 Center     Atomic      Atomic             Coordinates (Angstroms)
 Number     Number       Type             X           Y           Z
 ---------------------------------------------------------------------
      1         12           0       -3.876867    1.282585    0.782042
      2          6           0       -4.973147   -1.901253   -0.168419
      3          6           0       -2.269989   -0.105976    3.425778
      4          6           0       -2.234924    4.136069    1.166102
      5          6           0       -5.230723    2.496320   -2.424378
      6          7           0       -3.458530   -0.808182    1.341342
      7          6           0       -4.025872   -1.950451    0.817573
      8          6           0       -3.816861   -3.166647    1.785113
      9          6           0       -3.306537   -2.431281    3.043890
     10          6           0       -2.889934   -1.056614    2.562459
     11          6           0       -4.345179   -2.334101    4.232034
     12          6           0       -2.858620   -4.195283    1.210244
     13          6           0       -1.951492   -3.898755   -0.066957
     14          6           0       -0.675677   -4.795188   -0.330083
     15          8           0       -0.648765   -5.961935   -0.627218
     16          8           0        0.444715   -4.012258   -0.236003
     17          7           0       -2.580212    1.988191    2.165434
     18          6           0       -2.064665    1.276297    3.188621
     19          6           0       -1.213667    2.126497    4.000904
     20          6           0       -0.984233    3.277758    3.317354
     21          6           0       -1.933169    3.213666    2.176608
     22          6           0       -0.624241    1.662051    5.312427
     23          6           0       -0.094382    4.379297    3.653055
     24          8           0        0.497874    4.293873    4.728123
     25          6           0        0.087888    5.638831    2.870296
     26          7           0       -3.745841    3.135107   -0.505001
     27          6           0       -3.049784    4.176408   -0.006370
     28          6           0       -3.343267    5.348644   -0.945874
     29          6           0       -4.180240    4.861680   -2.198971
     30          6           0       -4.395173    3.401685   -1.659888
     31          6           0       -3.969271    6.520461   -0.204428
     32          6           0       -3.443289    4.812821   -3.621833
     33          6           0       -4.317817    5.358441   -4.745222
     34          7           0       -4.889694    0.474539   -0.902210
     35          6           0       -5.499488    1.133804   -2.061575
     36          6           0       -6.297743    0.147147   -2.757198
     37          6           0       -6.053837   -1.095584   -2.083531
     38          6           0       -5.275635   -0.817107   -0.917882
     39          6           0       -7.061747    0.430383   -4.033727
     40          6           0       -6.381630   -2.478008   -2.052608
     41          8           0       -7.035256   -3.159012   -2.790367
     42          6           0       -5.766777   -3.071364   -0.706418
     43          6           0       -6.712505   -3.705420    0.256914
     44          8           0       -6.832786   -4.929507    0.436417
     45          8           0       -7.454691   -2.736947    0.952124
     46          6           0       -7.939790   -3.136400    2.261180
     47          6           0        1.762096   -4.639530   -0.598198
     48          6           0        2.892600   -3.509694   -0.627274
     49          6           0        3.270726   -2.803143   -1.740363
     50          6           0        2.445043   -2.796855   -3.050205
     51          6           0        4.540819   -1.939494   -1.715912
     52          6           0        4.278277   -0.407272   -1.803676
     53          6           0        4.644381    0.152922   -3.225037
     54          6           0        6.049531    0.851992   -3.251461
     55          6           0        6.524995    1.117242   -4.714233
     56          6           0        7.209422    0.189604   -2.427408
     57          6           0        7.474426    1.026629   -1.126536
     58          6           0        7.778127    0.195177    0.172913
     59          6           0        9.221028    0.281442    0.561997
     60          6           0        9.464197    1.652326    1.162756
     61          6           0        9.703680   -0.957518    1.393614
     62          6           0       11.000256   -1.513677    0.837757
     63          6           0       12.312920   -0.813270    1.356763
     64          6           0       13.367563   -0.587510    0.320147
     65          6           0       14.763233   -0.648573    1.017297
     66          6           0       13.061332    0.671048   -0.576381
     67          1           0       -1.913683   -0.665649    4.293132
     68          1           0       -1.653797    5.038572    1.370391
     69          1           0       -5.832423    2.873249   -3.253655
     70          1           0       -4.754684   -3.662502    2.031886
     71          1           0       -2.371821   -2.857150    3.410283
     72          1           0       -4.138845   -1.608186    5.018326
     73          1           0       -4.320656   -3.303865    4.727210
     74          1           0       -5.339790   -2.111656    3.844661
     75          1           0       -3.487828   -5.044706    0.943853
     76          1           0       -2.248219   -4.690863    1.964365
     77          1           0       -1.649148   -2.851886   -0.056638
     78          1           0       -2.522568   -4.062150   -0.980480
     79          1           0        0.451467    1.830236    5.275141
     80          1           0       -0.849532    0.603927    5.450745
     81          1           0       -0.971143    2.358176    6.075835
     82          1           0       -0.825367    6.231815    2.926342
     83          1           0        0.359441    5.526137    1.820530
     84          1           0        0.814869    6.248627    3.405315
     85          1           0       -2.394840    5.709351   -1.344790
     86          1           0       -5.176146    5.304936   -2.184689
     87          1           0       -4.995527    6.284800    0.077158
     88          1           0       -4.027468    7.368520   -0.885506
     89          1           0       -3.366685    6.975543    0.581946
     90          1           0       -3.122750    3.808710   -3.898069
     91          1           0       -2.535143    5.414125   -3.570951
     92          1           0       -3.905232    6.315663   -5.061552
     93          1           0       -5.348449    5.619867   -4.506600
     94          1           0       -4.269964    4.670210   -5.589325
     95          1           0       -7.895807   -0.271217   -4.072690
     96          1           0       -6.425253    0.143174   -4.870634
     97          1           0       -7.420961    1.457033   -4.105770
     98          1           0       -5.031943   -3.803619   -1.038650
     99          1           0       -7.257320   -3.736995    2.863468
    100          1           0       -8.808898   -3.781610    2.138088
    101          1           0       -8.185057   -2.226684    2.807749
    102          1           0        1.709959   -5.119462   -1.574758
    103          1           0        1.988808   -5.502703    0.027640
    104          1           0        3.571035   -3.409124    0.219976
    105          1           0        1.486275   -3.271226   -2.838883
    106          1           0        3.022607   -3.347317   -3.793751
    107          1           0        2.095020   -1.891614   -3.545423
    108          1           0        5.170123   -2.254627   -2.548285
    109          1           0        5.145411   -2.040994   -0.814290
    110          1           0        4.939699   -0.012844   -1.032010
    111          1           0        3.278008   -0.146164   -1.457518
    112          1           0        3.904310    0.902756   -3.504520
    113          1           0        4.615935   -0.588293   -4.023279
    114          1           0        5.885597    1.837786   -2.816262
    115          1           0        5.785167    1.655626   -5.306286
    116          1           0        6.653213    0.182071   -5.259567
    117          1           0        7.434527    1.704501   -4.843426
    118          1           0        8.113740    0.129607   -3.033467
    119          1           0        6.998692   -0.852552   -2.189682
    120          1           0        6.719522    1.793141   -0.957930
    121          1           0        8.327192    1.663646   -1.360016
    122          1           0        7.425333   -0.805630   -0.076662
    123          1           0        7.135619    0.504732    0.997635
    124          1           0        9.857285    0.357930   -0.320310
    125          1           0        8.509096    2.175115    1.222989
    126          1           0        9.955297    2.345393    0.479816
    127          1           0        9.891288    1.507014    2.155337
    128          1           0        9.040745   -1.822502    1.371876
    129          1           0        9.879903   -0.743567    2.448472
    130          1           0       10.953623   -1.433722   -0.248247
    131          1           0       11.124878   -2.574055    1.059247
    132          1           0       12.682931   -1.456992    2.154309
    133          1           0       11.954030    0.158442    1.692469
    134          1           0       13.316594   -1.382999   -0.423716
    135          1           0       15.083929   -1.688458    1.061426
    136          1           0       14.692713   -0.148857    1.983818
    137          1           0       15.536185   -0.108574    0.468997
    138          1           0       12.331485    1.323009   -0.095957
    139          1           0       12.772291    0.316553   -1.565441
    140          1           0       13.879309    1.384661   -0.677333
 ---------------------------------------------------------------------

 SCF Done:  E(RZINDO/S) =  -474.092946462     A.U. after   19 cycles

 Excitation energies and oscillator strengths:

 Excited State   1:      Singlet-A      1.3528 eV  916.49 nm  f=0.5199  <S**2>=0.000
     175 ->178        -0.18581
     176 ->177         0.66413
 This state for optimization and/or second-order correction.
 Total Energy, E(CIS/TDA) =  -474.043231635
 Copying the excited state density for this state as the 1-particle RhoCI density.

 Excited State   2:      Singlet-A      1.9007 eV  652.31 nm  f=0.0025  <S**2>=0.000
     175 ->177         0.47421
     176 ->178         0.49563

 Excited State   3:      Singlet-A      2.8462 eV  435.61 nm  f=0.0001  <S**2>=0.000
     167 ->177         0.11421
     167 ->179        -0.17476
     167 ->181         0.10502
     168 ->177         0.26615
     168 ->178        -0.16851
     168 ->179        -0.37481
     168 ->181         0.22090
     168 ->186         0.17280
     169 ->177         0.12161
     169 ->179        -0.14454

 Excited State   4:      Singlet-A      2.9310 eV  423.01 nm  f=0.9312  <S**2>=0.000
     175 ->177        -0.38783
     176 ->178         0.41848
     176 ->179         0.28713
     176 ->180         0.12810
     176 ->181         0.11788

 Excited State   5:      Singlet-A      3.0018 eV  413.04 nm  f=0.3051  <S**2>=0.000
     171 ->177         0.10360
     171 ->179         0.12232
     171 ->181         0.12809
     175 ->177         0.23398
     176 ->178        -0.17638
     176 ->179         0.44332
     176 ->180        -0.22191
     176 ->181         0.15878
     176 ->182        -0.12793

 The electronic state is 1-A.
 Alpha  occ. eigenvalues --   -1.84020  -1.82636  -1.78912  -1.72058  -1.70055
 Alpha  occ. eigenvalues --   -1.69422  -1.66922  -1.62334  -1.61291  -1.58319
 Alpha  occ. eigenvalues --   -1.54373  -1.49174  -1.47806  -1.46763  -1.45632
 Alpha  occ. eigenvalues --   -1.44925  -1.43131  -1.40416  -1.38837  -1.37867
 Alpha  occ. eigenvalues --   -1.36858  -1.33089  -1.32105  -1.31126  -1.29151
 Alpha  occ. eigenvalues --   -1.27443  -1.26897  -1.22566  -1.19816  -1.18854
 Alpha  occ. eigenvalues --   -1.16871  -1.16101  -1.14719  -1.13832  -1.13770
 Alpha  occ. eigenvalues --   -1.12453  -1.11163  -1.10103  -1.06294  -1.04172
 Alpha  occ. eigenvalues --   -1.02987  -1.01717  -1.00224  -0.98220  -0.98045
 Alpha  occ. eigenvalues --   -0.96200  -0.94525  -0.93267  -0.92974  -0.92157
 Alpha  occ. eigenvalues --   -0.91046  -0.90400  -0.89783  -0.88613  -0.87124
 Alpha  occ. eigenvalues --   -0.85886  -0.84878  -0.83695  -0.82753  -0.80702
 Alpha  occ. eigenvalues --   -0.80347  -0.79239  -0.78236  -0.77883  -0.77056
 Alpha  occ. eigenvalues --   -0.76352  -0.76014  -0.75328  -0.74304  -0.73622
 Alpha  occ. eigenvalues --   -0.73142  -0.72377  -0.72137  -0.71239  -0.70578
 Alpha  occ. eigenvalues --   -0.69805  -0.69475  -0.68546  -0.68531  -0.68131
 Alpha  occ. eigenvalues --   -0.67486  -0.67135  -0.66338  -0.66064  -0.65865
 Alpha  occ. eigenvalues --   -0.65369  -0.64961  -0.64247  -0.64060  -0.63551
 Alpha  occ. eigenvalues --   -0.62842  -0.62802  -0.62506  -0.62173  -0.61719
 Alpha  occ. eigenvalues --   -0.61583  -0.61390  -0.60905  -0.60588  -0.60535
 Alpha  occ. eigenvalues --   -0.60200  -0.59584  -0.59255  -0.59036  -0.58513
 Alpha  occ. eigenvalues --   -0.58027  -0.57624  -0.57296  -0.56787  -0.56341
 Alpha  occ. eigenvalues --   -0.56166  -0.55927  -0.55594  -0.55402  -0.55065
 Alpha  occ. eigenvalues --   -0.54767  -0.54634  -0.54140  -0.53298  -0.53182
 Alpha  occ. eigenvalues --   -0.52721  -0.52484  -0.52274  -0.51944  -0.51747
 Alpha  occ. eigenvalues --   -0.51493  -0.51344  -0.51260  -0.50955  -0.50594
 Alpha  occ. eigenvalues --   -0.50254  -0.50111  -0.49499  -0.49335  -0.49179
 Alpha  occ. eigenvalues --   -0.49018  -0.48604  -0.48502  -0.48013  -0.47886
 Alpha  occ. eigenvalues --   -0.47751  -0.47473  -0.47282  -0.47030  -0.46944
 Alpha  occ. eigenvalues --   -0.46481  -0.46412  -0.46138  -0.45884  -0.45818
 Alpha  occ. eigenvalues --   -0.45449  -0.45035  -0.44915  -0.44626  -0.43767
 Alpha  occ. eigenvalues --   -0.43583  -0.43567  -0.43190  -0.42738  -0.42363
 Alpha  occ. eigenvalues --   -0.42181  -0.42058  -0.41811  -0.39435  -0.38862
 Alpha  occ. eigenvalues --   -0.38682  -0.37405  -0.36559  -0.35361  -0.34912
 Alpha  occ. eigenvalues --   -0.34121  -0.33005  -0.32872  -0.31933  -0.27279
 Alpha  occ. eigenvalues --   -0.22153
 Alpha virt. eigenvalues --   -0.08268  -0.03356  -0.01186   0.00669   0.00884
 Alpha virt. eigenvalues --    0.01934   0.02142   0.02694   0.04124   0.04324
 Alpha virt. eigenvalues --    0.05991   0.06198   0.07111   0.07417   0.07648

 Mulliken charges:
               1
     1  Mg   0.432988
     2  C   -0.017262
     3  C   -0.101742
     4  C   -0.091101
     5  C   -0.063144
     6  N   -0.293798
     7  C    0.083869
     8  C    0.011254
     9  C    0.009597
    10  C    0.158259
    11  C   -0.047453
    12  C   -0.021304
    13  C    0.003341
    14  C    0.464893
    15  O   -0.501067
    16  O   -0.275275
    17  N   -0.325170
    18  C    0.151111
    19  C    0.069563
    20  C   -0.023260
    21  C    0.125433
    22  C   -0.041497
    23  C    0.333718
    24  O   -0.527634
    25  C   -0.024976
    26  N   -0.257613
    27  C    0.156821
    28  C    0.020443
    29  C   -0.013157
    30  C    0.080838
    31  C   -0.049370
    32  C   -0.020531
    33  C   -0.057302
    34  N   -0.343692
    35  C    0.042225
    36  C    0.022876
    37  C   -0.072541
    38  C    0.119097
    39  C   -0.038757
    40  C    0.334805
    41  O   -0.515650
    42  C    0.047235
    43  C    0.490913
    44  O   -0.513182
    45  O   -0.275361
    46  C    0.078987
    47  C    0.100253
    48  C   -0.106365
    49  C    0.011674
    50  C   -0.047604
    51  C   -0.020935
    52  C   -0.034979
    53  C   -0.028493
    54  C   -0.011512
    55  C   -0.060614
    56  C   -0.031990
    57  C   -0.045141
    58  C   -0.025860
    59  C   -0.003406
    60  C   -0.060604
    61  C   -0.032567
    62  C   -0.044851
    63  C   -0.033391
    64  C   -0.009849
    65  C   -0.056533
    66  C   -0.063141
    67  H    0.033973
    68  H    0.013303
    69  H    0.037449
    70  H    0.039831
    71  H    0.025780
    72  H    0.024138
    73  H    0.019143
    74  H    0.027258
    75  H    0.022559
    76  H    0.024785
    77  H    0.035485
    78  H    0.043441
    79  H    0.042903
    80  H    0.029685
    81  H    0.047161
    82  H    0.038125
    83  H    0.039471
    84  H    0.035735
    85  H    0.020974
    86  H    0.042163
    87  H    0.028225
    88  H    0.007617
    89  H    0.023491
    90  H    0.031422
    91  H    0.018265
    92  H    0.012169
    93  H    0.024598
    94  H    0.021808
    95  H    0.029737
    96  H    0.034861
    97  H    0.027968
    98  H    0.051483
    99  H    0.038376
   100  H    0.044955
   101  H    0.031518
   102  H    0.044630
   103  H    0.048403
   104  H    0.032629
   105  H    0.021912
   106  H    0.028544
   107  H    0.032266
   108  H    0.027160
   109  H    0.019404
   110  H    0.019365
   111  H    0.024244
   112  H    0.012228
   113  H    0.025056
   114  H    0.017331
   115  H    0.007755
   116  H    0.014834
   117  H    0.019105
   118  H    0.018977
   119  H    0.022416
   120  H    0.020424
   121  H    0.011494
   122  H    0.009108
   123  H    0.018444
   124  H    0.020953
   125  H    0.011215
   126  H    0.023081
   127  H    0.026703
   128  H    0.016101
   129  H    0.018907
   130  H    0.015035
   131  H    0.010160
   132  H    0.019678
   133  H    0.022501
   134  H    0.014670
   135  H    0.022995
   136  H    0.021936
   137  H    0.011601
   138  H    0.019291
   139  H    0.023796
   140  H    0.015275
 Sum of Mulliken charges =  -0.00000

 Dipole moment (field-independent basis, Debye):
    X=              3.6045    Y=             10.7207    Z=              3.3839  Tot=             11.8058
 N-N= 4.481217898728D+03 E-N= 0.000000000000D+00  KE=-9.635720423102D+03
 Leave Link  601 at Fri Apr 29 18:31:38 2022, MaxMem=  6710886400 cpu:               0.8 elap:               0.0
 (Enter /sw/apps/gaussian-16.0/g16/l9999.exe)
 1\1\GINC-BP1-COMPUTE162\SP\RZINDO CIS\STO-3G\C55H74Mg1N4O6\OF15641\29-
 Apr-2022\0\\#p ZINDO=(nstates=5)\\step_401_chromophore_26 ZINDO\\0,1\M
 g,0,-8.811,18.182,43.356\C,0,-5.353,17.651,43.308\C,0,-8.281,21.431,42
 .542\C,0,-12.036,18.432,42.633\C,0,-9.174,14.53,43.7\N,0,-7.012,19.284
 ,42.717\C,0,-5.699,18.87,42.792\C,0,-4.725,20.094,42.682\C,0,-5.729,21
 .258,42.833\C,0,-7.092,20.645,42.585\C,0,-5.681,22.01,44.223\C,0,-3.94
 3,20.086,41.38\C,0,-4.317,19.125,40.164\C,0,-3.79,19.476,38.715\O,0,-2

 Normal termination of Gaussian 16 at Fri Apr 29 18:31:38 2022.
