 Gaussian 16, Revision A.03,
 Gaussian 16:  ES64L-G16RevA.03 25-Dec-2016

 ------------------------------
 #p blyp/Def2SVP td=(nstates=5)
 ------------------------------

 -------------------------------------------------
 step_301_chromophore_4 TDDFT with blyp functional
 -------------------------------------------------
 Symbolic Z-matrix:
 Charge =  0 Multiplicity = 1

                         Standard orientation:
 ---------------------------------------------------------------------
 Center     Atomic      Atomic             Coordinates (Angstroms)
 Number     Number       Type             X           Y           Z
 ---------------------------------------------------------------------
      1         12           0        6.164150    0.500106    0.138101
      2          6           0        3.833146   -1.978145   -0.024899
      3          6           0        3.682184    2.843883   -0.149232
      4          6           0        8.542058    2.933535   -0.196247
      5          6           0        8.673699   -1.918472    0.058551
      6          7           0        3.989321    0.417316    0.057871
      7          6           0        3.224710   -0.694732    0.084690
      8          6           0        1.687505   -0.463490   -0.032005
      9          6           0        1.636215    1.077388   -0.102764
     10          6           0        3.158166    1.510466   -0.024316
     11          6           0        0.831941    1.726154   -1.238359
     12          6           0        0.864503   -1.119205    1.161611
     13          6           0       -0.514819   -0.496356    1.421532
     14          6           0       -1.660511   -1.522646    1.546545
     15          8           0       -2.060817   -1.995587    2.579858
     16          8           0       -2.260001   -1.722056    0.349471
     17          7           0        6.119733    2.631578   -0.017979
     18          6           0        4.978910    3.364123   -0.164623
     19          6           0        5.317848    4.767879   -0.177205
     20          6           0        6.725712    4.871144   -0.156707
     21          6           0        7.245961    3.465497   -0.166147
     22          6           0        4.388820    5.960671   -0.104676
     23          6           0        7.585793    6.079798   -0.283341
     24          8           0        8.790882    6.049486   -0.061541
     25          6           0        6.949441    7.503322   -0.612317
     26          7           0        8.280010    0.537832   -0.081392
     27          6           0        9.016610    1.658119   -0.168013
     28          6           0       10.494453    1.286827   -0.283615
     29          6           0       10.535750   -0.152156    0.115997
     30          6           0        9.055947   -0.585869    0.015913
     31          6           0       11.172280    1.527066   -1.707293
     32          6           0       11.159053   -0.427631    1.540320
     33          6           0       11.676525   -1.848342    1.723873
     34          7           0        6.295876   -1.564663    0.230605
     35          6           0        7.339373   -2.381805    0.092755
     36          6           0        6.857512   -3.766015    0.056002
     37          6           0        5.511198   -3.617228    0.025932
     38          6           0        5.234901   -2.258583    0.047716
     39          6           0        7.626645   -5.045796   -0.107672
     40          6           0        4.300814   -4.439450    0.022248
     41          8           0        4.153741   -5.627243    0.191441
     42          6           0        3.193545   -3.376623   -0.019981
     43          6           0        2.239128   -3.729448   -1.128914
     44          8           0        2.517069   -3.605871   -2.318970
     45          8           0        1.086552   -4.218718   -0.472134
     46          6           0        0.127027   -4.627108   -1.517605
     47          6           0       -3.296312   -2.753420    0.313661
     48          6           0       -4.701310   -2.100489    0.314552
     49          6           0       -5.903745   -2.646802    0.544210
     50          6           0       -6.110341   -4.150354    0.477593
     51          6           0       -7.158926   -1.838340    0.425790
     52          6           0       -7.509552   -1.172540   -0.991063
     53          6           0       -7.996300    0.315961   -0.871608
     54          6           0       -9.515742    0.419300   -0.694714
     55          6           0      -10.350885    0.895396   -1.958762
     56          6           0       -9.856568    1.365066    0.518420
     57          6           0      -11.202495    1.020287    1.130212
     58          6           0      -12.010936    2.201745    1.712858
     59          6           0      -13.386161    1.800028    2.267540
     60          6           0      -13.420370    2.253125    3.678068
     61          6           0      -14.542505    2.261239    1.392262
     62          6           0      -15.151841    1.112071    0.552702
     63          6           0      -15.464833    1.431468   -0.915892
     64          6           0      -14.607641    0.580323   -1.914252
     65          6           0      -14.207220    1.415821   -3.124111
     66          6           0      -15.367302   -0.729817   -2.251707
     67          1           0        2.949517    3.652756   -0.105057
     68          1           0        9.280691    3.724399   -0.345393
     69          1           0        9.403736   -2.725786   -0.027537
     70          1           0        1.371491   -0.890125   -0.984458
     71          1           0        1.192297    1.538570    0.779255
     72          1           0        1.479281    2.287684   -1.911124
     73          1           0        0.110740    2.413627   -0.796671
     74          1           0        0.266354    1.077432   -1.907431
     75          1           0        1.506209   -1.009205    2.036960
     76          1           0        0.639612   -2.165236    0.957394
     77          1           0       -0.767140    0.106455    0.548751
     78          1           0       -0.347815    0.192657    2.249358
     79          1           0        3.476460    5.687551    0.425104
     80          1           0        4.203838    6.289448   -1.126815
     81          1           0        4.689128    6.821693    0.491225
     82          1           0        6.125020    7.339354   -1.306614
     83          1           0        7.806575    8.156952   -0.776765
     84          1           0        6.575366    7.809870    0.363719
     85          1           0       10.967981    1.934490    0.455136
     86          1           0       11.137348   -0.786972   -0.535091
     87          1           0       11.298028    2.573589   -1.986072
     88          1           0       10.647447    0.985246   -2.493362
     89          1           0       12.173236    1.096321   -1.749091
     90          1           0       10.379824   -0.313072    2.294851
     91          1           0       11.923626    0.287408    1.844754
     92          1           0       10.854752   -2.453474    2.106503
     93          1           0       12.465389   -1.770830    2.472493
     94          1           0       11.998030   -2.209278    0.747277
     95          1           0        8.666302   -4.949173   -0.419036
     96          1           0        7.197586   -5.746872   -0.824547
     97          1           0        7.610124   -5.553407    0.856495
     98          1           0        2.631384   -3.409361    0.913084
     99          1           0        0.622665   -4.896170   -2.449601
    100          1           0       -0.665490   -3.889861   -1.644767
    101          1           0       -0.368883   -5.562334   -1.254796
    102          1           0       -3.200472   -3.419612    1.171094
    103          1           0       -3.123917   -3.339481   -0.588224
    104          1           0       -4.696173   -1.040976    0.057136
    105          1           0       -5.194286   -4.738958    0.451740
    106          1           0       -6.761629   -4.412327   -0.356351
    107          1           0       -6.565068   -4.376708    1.442149
    108          1           0       -7.173182   -1.113133    1.239848
    109          1           0       -8.028353   -2.409818    0.752774
    110          1           0       -8.398007   -1.716955   -1.310564
    111          1           0       -6.686423   -1.343988   -1.684468
    112          1           0       -7.640642    0.696669   -1.829128
    113          1           0       -7.447707    0.833360   -0.085218
    114          1           0       -9.993563   -0.529379   -0.448452
    115          1           0      -10.846650    0.064829   -2.462344
    116          1           0       -9.587971    1.352673   -2.587824
    117          1           0      -10.980411    1.743766   -1.693976
    118          1           0       -9.813471    2.426742    0.273185
    119          1           0       -9.138659    1.175152    1.317024
    120          1           0      -11.044304    0.323651    1.953828
    121          1           0      -11.758430    0.443709    0.391161
    122          1           0      -12.152303    2.825691    0.830513
    123          1           0      -11.430484    2.746923    2.457101
    124          1           0      -13.368806    0.710461    2.272049
    125          1           0      -14.114680    1.642766    4.256146
    126          1           0      -13.524791    3.314663    3.900919
    127          1           0      -12.443533    1.958872    4.063088
    128          1           0      -14.353941    3.139243    0.775191
    129          1           0      -15.332559    2.519636    2.096701
    130          1           0      -16.095443    0.756690    0.965571
    131          1           0      -14.502602    0.246615    0.683730
    132          1           0      -15.525269    2.482086   -1.201926
    133          1           0      -16.514645    1.148019   -0.996710
    134          1           0      -13.676895    0.338064   -1.402391
    135          1           0      -13.147581    1.668432   -3.076073
    136          1           0      -14.721817    2.368456   -3.249107
    137          1           0      -14.202518    0.967387   -4.118276
    138          1           0      -16.410143   -0.735832   -1.936083
    139          1           0      -14.691535   -1.525931   -1.936956
    140          1           0      -15.381976   -0.872655   -3.332027
 ---------------------------------------------------------------------

 SCF Done:  E(RB-LYP) =  -3007.38480707     A.U. after   20 cycles

 Excitation energies and oscillator strengths:

 Excited State   1:      Singlet-A      1.8443 eV  672.27 nm  f=0.3045  <S**2>=0.000
     245 -> 248       -0.20074
     246 -> 247        0.68482
     246 <- 247       -0.14332
 This state for optimization and/or second-order correction.
 Total Energy, E(TD-HF/TD-DFT) =  -3007.31703152
 Copying the excited state density for this state as the 1-particle RhoCI density.

 Excited State   2:      Singlet-A      1.9319 eV  641.78 nm  f=0.0057  <S**2>=0.000
     244 -> 247        0.69243
     245 -> 247        0.12614

 Excited State   3:      Singlet-A      2.0483 eV  605.29 nm  f=0.0694  <S**2>=0.000
     244 -> 247       -0.13155
     245 -> 247        0.63049
     246 -> 248        0.26028

 Excited State   4:      Singlet-A      2.1663 eV  572.32 nm  f=0.0024  <S**2>=0.000
     243 -> 247        0.70218

 Excited State   5:      Singlet-A      2.3810 eV  520.73 nm  f=0.0000  <S**2>=0.000
     242 -> 247        0.70710

 The electronic state is 1-A.
 Alpha  occ. eigenvalues --  -46.27373 -18.83519 -18.82789 -18.78258 -18.76738
 Alpha  occ. eigenvalues --  -18.76317 -18.75465 -14.04162 -14.02891 -14.00952
 Alpha  occ. eigenvalues --  -14.00846 -10.04680 -10.04320  -9.99724  -9.99698
 Alpha  occ. eigenvalues --   -9.98604  -9.97554  -9.97474  -9.97035  -9.96285
 Alpha  occ. eigenvalues --   -9.95998  -9.95787  -9.95606  -9.95256  -9.94961
 Alpha  occ. eigenvalues --   -9.94937  -9.94077  -9.93961  -9.93832  -9.93752
 Alpha  occ. eigenvalues --   -9.93690  -9.93414  -9.93309  -9.93307  -9.93195
 Alpha  occ. eigenvalues --   -9.93031  -9.92982  -9.92736  -9.92725  -9.92717
 Alpha  occ. eigenvalues --   -9.92662  -9.92586  -9.92428  -9.92327  -9.92306
 Alpha  occ. eigenvalues --   -9.92283  -9.92188  -9.92024  -9.92000  -9.91993
 Alpha  occ. eigenvalues --   -9.91829  -9.91770  -9.91601  -9.91563  -9.91493
 Alpha  occ. eigenvalues --   -9.91072  -9.91039  -9.90917  -9.90744  -9.90738
 Alpha  occ. eigenvalues --   -9.90692  -9.90590  -9.90568  -9.90424  -9.90345
 Alpha  occ. eigenvalues --   -9.90033  -2.91962  -1.72409  -1.71806  -1.71695
 Alpha  occ. eigenvalues --   -0.99099  -0.97392  -0.92442  -0.91225  -0.90921
 Alpha  occ. eigenvalues --   -0.90691  -0.89214  -0.86384  -0.86202  -0.84337
 Alpha  occ. eigenvalues --   -0.75580  -0.73780  -0.73498  -0.73153  -0.72335
 Alpha  occ. eigenvalues --   -0.72043  -0.71576  -0.71144  -0.70913  -0.70538
 Alpha  occ. eigenvalues --   -0.70135  -0.69483  -0.68081  -0.67586  -0.67228
 Alpha  occ. eigenvalues --   -0.66429  -0.65832  -0.65188  -0.65051  -0.64206
 Alpha  occ. eigenvalues --   -0.63775  -0.62677  -0.62499  -0.61589  -0.60869
 Alpha  occ. eigenvalues --   -0.60635  -0.60290  -0.60098  -0.59633  -0.59280
 Alpha  occ. eigenvalues --   -0.58726  -0.57878  -0.57061  -0.55912  -0.54456
 Alpha  occ. eigenvalues --   -0.54194  -0.53813  -0.52902  -0.52350  -0.51652
 Alpha  occ. eigenvalues --   -0.51560  -0.50946  -0.50766  -0.50697  -0.50326
 Alpha  occ. eigenvalues --   -0.49804  -0.49631  -0.48868  -0.48606  -0.46824
 Alpha  occ. eigenvalues --   -0.46315  -0.46229  -0.45893  -0.45702  -0.45050
 Alpha  occ. eigenvalues --   -0.44718  -0.44166  -0.43505  -0.42633  -0.42201
 Alpha  occ. eigenvalues --   -0.41936  -0.41825  -0.41510  -0.41443  -0.41156
 Alpha  occ. eigenvalues --   -0.41072  -0.40615  -0.40449  -0.40217  -0.40135
 Alpha  occ. eigenvalues --   -0.40067  -0.39691  -0.39444  -0.39164  -0.39147
 Alpha  occ. eigenvalues --   -0.38953  -0.38784  -0.38751  -0.38564  -0.38515
 Alpha  occ. eigenvalues --   -0.38365  -0.38195  -0.37915  -0.37499  -0.37434
 Alpha  occ. eigenvalues --   -0.37146  -0.37078  -0.36900  -0.36790  -0.36736
 Alpha  occ. eigenvalues --   -0.36592  -0.36325  -0.36105  -0.35967  -0.35611
 Alpha  occ. eigenvalues --   -0.35480  -0.35311  -0.35203  -0.34959  -0.34816
 Alpha  occ. eigenvalues --   -0.34716  -0.34238  -0.34226  -0.34074  -0.34030
 Alpha  occ. eigenvalues --   -0.33962  -0.33695  -0.33570  -0.33519  -0.33337
 Alpha  occ. eigenvalues --   -0.33146  -0.32961  -0.32749  -0.32461  -0.32377
 Alpha  occ. eigenvalues --   -0.32140  -0.32035  -0.31892  -0.31742  -0.31616
 Alpha  occ. eigenvalues --   -0.31528  -0.31282  -0.31127  -0.30971  -0.30730
 Alpha  occ. eigenvalues --   -0.30496  -0.30298  -0.30075  -0.29925  -0.29711
 Alpha  occ. eigenvalues --   -0.29578  -0.29475  -0.29428  -0.29315  -0.29205
 Alpha  occ. eigenvalues --   -0.28936  -0.28688  -0.28588  -0.28541  -0.28213
 Alpha  occ. eigenvalues --   -0.28000  -0.27479  -0.27226  -0.26873  -0.26656
 Alpha  occ. eigenvalues --   -0.26270  -0.26199  -0.26138  -0.25938  -0.25728
 Alpha  occ. eigenvalues --   -0.25582  -0.25397  -0.24577  -0.24046  -0.23926
 Alpha  occ. eigenvalues --   -0.23801  -0.23106  -0.22027  -0.21825  -0.21346
 Alpha  occ. eigenvalues --   -0.20536  -0.20142  -0.19242  -0.18422  -0.17283
 Alpha  occ. eigenvalues --   -0.15824
 Alpha virt. eigenvalues --   -0.11392  -0.06859  -0.06131  -0.04695  -0.03416
 Alpha virt. eigenvalues --   -0.02754  -0.02389  -0.01945  -0.01405   0.00133
 Alpha virt. eigenvalues --    0.01237   0.01618   0.01760   0.02340   0.02715

 Mulliken charges:
               1
     1  Mg   0.692998
     2  C    0.016802
     3  C   -0.085381
     4  C   -0.034841
     5  C   -0.088272
     6  N   -0.214769
     7  C   -0.072678
     8  C    0.012628
     9  C    0.027067
    10  C    0.022521
    11  C    0.122614
    12  C    0.051987
    13  C    0.160510
    14  C    0.063360
    15  O   -0.168315
    16  O   -0.263184
    17  N   -0.293938
    18  C    0.142574
    19  C   -0.136943
    20  C    0.087437
    21  C    0.064867
    22  C    0.152704
    23  C   -0.124123
    24  O   -0.172179
    25  C    0.141534
    26  N   -0.217882
    27  C    0.038524
    28  C    0.075752
    29  C    0.011894
    30  C    0.074718
    31  C    0.113990
    32  C    0.060394
    33  C    0.087751
    34  N   -0.187877
    35  C    0.057480
    36  C   -0.176836
    37  C    0.066221
    38  C    0.060651
    39  C    0.165049
    40  C   -0.013597
    41  O   -0.107819
    42  C    0.024946
    43  C    0.142029
    44  O   -0.173835
    45  O   -0.283923
    46  C    0.192782
    47  C    0.296190
    48  C   -0.108097
    49  C   -0.131749
    50  C    0.132934
    51  C    0.113502
    52  C    0.054068
    53  C    0.144466
    54  C   -0.105403
    55  C    0.101039
    56  C    0.106536
    57  C    0.004146
    58  C    0.113985
    59  C   -0.068297
    60  C    0.118992
    61  C    0.172696
    62  C    0.045162
    63  C    0.095513
    64  C   -0.088424
    65  C    0.091595
    66  C    0.130821
    67  H   -0.072838
    68  H   -0.048890
    69  H   -0.063693
    70  H   -0.004548
    71  H   -0.019912
    72  H   -0.008010
    73  H   -0.013086
    74  H   -0.003669
    75  H   -0.015172
    76  H    0.018765
    77  H   -0.019615
    78  H   -0.004799
    79  H   -0.008552
    80  H    0.013124
    81  H   -0.005278
    82  H    0.005675
    83  H   -0.005842
    84  H    0.004764
    85  H   -0.030485
    86  H   -0.042245
    87  H    0.002163
    88  H   -0.011690
    89  H   -0.013972
    90  H   -0.031217
    91  H   -0.019822
    92  H    0.000136
    93  H   -0.007882
    94  H   -0.011448
    95  H   -0.019144
    96  H    0.007751
    97  H    0.004021
    98  H    0.008349
    99  H    0.026126
   100  H    0.018583
   101  H    0.007392
   102  H    0.016468
   103  H    0.001438
   104  H   -0.033701
   105  H   -0.021769
   106  H    0.011550
   107  H   -0.005635
   108  H   -0.022331
   109  H   -0.049335
   110  H   -0.025330
   111  H   -0.019150
   112  H   -0.036429
   113  H   -0.021073
   114  H   -0.028652
   115  H    0.004700
   116  H   -0.030166
   117  H    0.005381
   118  H   -0.031425
   119  H   -0.038554
   120  H   -0.036891
   121  H   -0.021847
   122  H   -0.046151
   123  H   -0.035817
   124  H   -0.042548
   125  H   -0.029046
   126  H   -0.009289
   127  H   -0.031785
   128  H   -0.029316
   129  H   -0.052042
   130  H   -0.039363
   131  H   -0.032676
   132  H   -0.035250
   133  H   -0.046982
   134  H   -0.020348
   135  H   -0.030466
   136  H   -0.018696
   137  H   -0.032031
   138  H   -0.003210
   139  H   -0.018627
   140  H   -0.033708
 Sum of Mulliken charges =  -0.00000

 Dipole moment (field-independent basis, Debye):
    X=             -2.8476    Y=              1.7910    Z=             -1.0460  Tot=              3.5228
 Quadrupole moment (field-independent basis, Debye-Ang):
   XX=           -389.4785   YY=           -423.0401   ZZ=           -415.5048
   XY=             -6.5481   XZ=              9.7799   YZ=              4.9068

 Normal termination of Gaussian 16 at Fri Apr 29 14:07:47 2022.
