 Gaussian 16, Revision A.03,
 Gaussian 16:  ES64L-G16RevA.03 25-Dec-2016

 -----------------------------------
 #p cam-b3lyp/Def2SVP td=(nstates=5)
 -----------------------------------

 ------------------------------------------------------
 step_301_chromophore_4 TDDFT with cam-b3lyp functional
 ------------------------------------------------------
 Symbolic Z-matrix:
 Charge =  0 Multiplicity = 1

                         Standard orientation:
 ---------------------------------------------------------------------
 Center     Atomic      Atomic             Coordinates (Angstroms)
 Number     Number       Type             X           Y           Z
 ---------------------------------------------------------------------
      1         12           0        6.164150    0.500106    0.138101
      2          6           0        3.833146   -1.978145   -0.024899
      3          6           0        3.682184    2.843883   -0.149232
      4          6           0        8.542058    2.933535   -0.196247
      5          6           0        8.673699   -1.918472    0.058551
      6          7           0        3.989321    0.417316    0.057871
      7          6           0        3.224710   -0.694732    0.084690
      8          6           0        1.687505   -0.463490   -0.032005
      9          6           0        1.636215    1.077388   -0.102764
     10          6           0        3.158166    1.510466   -0.024316
     11          6           0        0.831941    1.726154   -1.238359
     12          6           0        0.864503   -1.119205    1.161611
     13          6           0       -0.514819   -0.496356    1.421532
     14          6           0       -1.660511   -1.522646    1.546545
     15          8           0       -2.060817   -1.995587    2.579858
     16          8           0       -2.260001   -1.722056    0.349471
     17          7           0        6.119733    2.631578   -0.017979
     18          6           0        4.978910    3.364123   -0.164623
     19          6           0        5.317848    4.767879   -0.177205
     20          6           0        6.725712    4.871144   -0.156707
     21          6           0        7.245961    3.465497   -0.166147
     22          6           0        4.388820    5.960671   -0.104676
     23          6           0        7.585793    6.079798   -0.283341
     24          8           0        8.790882    6.049486   -0.061541
     25          6           0        6.949441    7.503322   -0.612317
     26          7           0        8.280010    0.537832   -0.081392
     27          6           0        9.016610    1.658119   -0.168013
     28          6           0       10.494453    1.286827   -0.283615
     29          6           0       10.535750   -0.152156    0.115997
     30          6           0        9.055947   -0.585869    0.015913
     31          6           0       11.172280    1.527066   -1.707293
     32          6           0       11.159053   -0.427631    1.540320
     33          6           0       11.676525   -1.848342    1.723873
     34          7           0        6.295876   -1.564663    0.230605
     35          6           0        7.339373   -2.381805    0.092755
     36          6           0        6.857512   -3.766015    0.056002
     37          6           0        5.511198   -3.617228    0.025932
     38          6           0        5.234901   -2.258583    0.047716
     39          6           0        7.626645   -5.045796   -0.107672
     40          6           0        4.300814   -4.439450    0.022248
     41          8           0        4.153741   -5.627243    0.191441
     42          6           0        3.193545   -3.376623   -0.019981
     43          6           0        2.239128   -3.729448   -1.128914
     44          8           0        2.517069   -3.605871   -2.318970
     45          8           0        1.086552   -4.218718   -0.472134
     46          6           0        0.127027   -4.627108   -1.517605
     47          6           0       -3.296312   -2.753420    0.313661
     48          6           0       -4.701310   -2.100489    0.314552
     49          6           0       -5.903745   -2.646802    0.544210
     50          6           0       -6.110341   -4.150354    0.477593
     51          6           0       -7.158926   -1.838340    0.425790
     52          6           0       -7.509552   -1.172540   -0.991063
     53          6           0       -7.996300    0.315961   -0.871608
     54          6           0       -9.515742    0.419300   -0.694714
     55          6           0      -10.350885    0.895396   -1.958762
     56          6           0       -9.856568    1.365066    0.518420
     57          6           0      -11.202495    1.020287    1.130212
     58          6           0      -12.010936    2.201745    1.712858
     59          6           0      -13.386161    1.800028    2.267540
     60          6           0      -13.420370    2.253125    3.678068
     61          6           0      -14.542505    2.261239    1.392262
     62          6           0      -15.151841    1.112071    0.552702
     63          6           0      -15.464833    1.431468   -0.915892
     64          6           0      -14.607641    0.580323   -1.914252
     65          6           0      -14.207220    1.415821   -3.124111
     66          6           0      -15.367302   -0.729817   -2.251707
     67          1           0        2.949517    3.652756   -0.105057
     68          1           0        9.280691    3.724399   -0.345393
     69          1           0        9.403736   -2.725786   -0.027537
     70          1           0        1.371491   -0.890125   -0.984458
     71          1           0        1.192297    1.538570    0.779255
     72          1           0        1.479281    2.287684   -1.911124
     73          1           0        0.110740    2.413627   -0.796671
     74          1           0        0.266354    1.077432   -1.907431
     75          1           0        1.506209   -1.009205    2.036960
     76          1           0        0.639612   -2.165236    0.957394
     77          1           0       -0.767140    0.106455    0.548751
     78          1           0       -0.347815    0.192657    2.249358
     79          1           0        3.476460    5.687551    0.425104
     80          1           0        4.203838    6.289448   -1.126815
     81          1           0        4.689128    6.821693    0.491225
     82          1           0        6.125020    7.339354   -1.306614
     83          1           0        7.806575    8.156952   -0.776765
     84          1           0        6.575366    7.809870    0.363719
     85          1           0       10.967981    1.934490    0.455136
     86          1           0       11.137348   -0.786972   -0.535091
     87          1           0       11.298028    2.573589   -1.986072
     88          1           0       10.647447    0.985246   -2.493362
     89          1           0       12.173236    1.096321   -1.749091
     90          1           0       10.379824   -0.313072    2.294851
     91          1           0       11.923626    0.287408    1.844754
     92          1           0       10.854752   -2.453474    2.106503
     93          1           0       12.465389   -1.770830    2.472493
     94          1           0       11.998030   -2.209278    0.747277
     95          1           0        8.666302   -4.949173   -0.419036
     96          1           0        7.197586   -5.746872   -0.824547
     97          1           0        7.610124   -5.553407    0.856495
     98          1           0        2.631384   -3.409361    0.913084
     99          1           0        0.622665   -4.896170   -2.449601
    100          1           0       -0.665490   -3.889861   -1.644767
    101          1           0       -0.368883   -5.562334   -1.254796
    102          1           0       -3.200472   -3.419612    1.171094
    103          1           0       -3.123917   -3.339481   -0.588224
    104          1           0       -4.696173   -1.040976    0.057136
    105          1           0       -5.194286   -4.738958    0.451740
    106          1           0       -6.761629   -4.412327   -0.356351
    107          1           0       -6.565068   -4.376708    1.442149
    108          1           0       -7.173182   -1.113133    1.239848
    109          1           0       -8.028353   -2.409818    0.752774
    110          1           0       -8.398007   -1.716955   -1.310564
    111          1           0       -6.686423   -1.343988   -1.684468
    112          1           0       -7.640642    0.696669   -1.829128
    113          1           0       -7.447707    0.833360   -0.085218
    114          1           0       -9.993563   -0.529379   -0.448452
    115          1           0      -10.846650    0.064829   -2.462344
    116          1           0       -9.587971    1.352673   -2.587824
    117          1           0      -10.980411    1.743766   -1.693976
    118          1           0       -9.813471    2.426742    0.273185
    119          1           0       -9.138659    1.175152    1.317024
    120          1           0      -11.044304    0.323651    1.953828
    121          1           0      -11.758430    0.443709    0.391161
    122          1           0      -12.152303    2.825691    0.830513
    123          1           0      -11.430484    2.746923    2.457101
    124          1           0      -13.368806    0.710461    2.272049
    125          1           0      -14.114680    1.642766    4.256146
    126          1           0      -13.524791    3.314663    3.900919
    127          1           0      -12.443533    1.958872    4.063088
    128          1           0      -14.353941    3.139243    0.775191
    129          1           0      -15.332559    2.519636    2.096701
    130          1           0      -16.095443    0.756690    0.965571
    131          1           0      -14.502602    0.246615    0.683730
    132          1           0      -15.525269    2.482086   -1.201926
    133          1           0      -16.514645    1.148019   -0.996710
    134          1           0      -13.676895    0.338064   -1.402391
    135          1           0      -13.147581    1.668432   -3.076073
    136          1           0      -14.721817    2.368456   -3.249107
    137          1           0      -14.202518    0.967387   -4.118276
    138          1           0      -16.410143   -0.735832   -1.936083
    139          1           0      -14.691535   -1.525931   -1.936956
    140          1           0      -15.381976   -0.872655   -3.332027
 ---------------------------------------------------------------------

 SCF Done:  E(RCAM-B3LYP) =  -3007.18542316     A.U. after   17 cycles

 Excitation energies and oscillator strengths:

 Excited State   1:      Singlet-A      1.7457 eV  710.24 nm  f=0.3848  <S**2>=0.000
     245 -> 248        0.18927
     246 -> 247        0.68369
     245 <- 248        0.10939
 This state for optimization and/or second-order correction.
 Total Energy, E(TD-HF/TD-DFT) =  -3007.12127133
 Copying the excited state density for this state as the 1-particle RhoCI density.

 Excited State   2:      Singlet-A      2.2589 eV  548.88 nm  f=0.0917  <S**2>=0.000
     245 -> 247        0.62983
     246 -> 248       -0.31293

 Excited State   3:      Singlet-A      3.4794 eV  356.34 nm  f=0.2505  <S**2>=0.000
     243 -> 247        0.51527
     245 -> 247        0.17438
     246 -> 248        0.43305

 Excited State   4:      Singlet-A      3.6021 eV  344.20 nm  f=0.0041  <S**2>=0.000
     242 -> 247        0.53926
     242 -> 248        0.12400
     242 -> 249       -0.32926
     242 -> 250       -0.21481

 Excited State   5:      Singlet-A      3.6113 eV  343.32 nm  f=0.5444  <S**2>=0.000
     241 -> 247       -0.16375
     243 -> 247        0.45573
     245 -> 247       -0.24623
     246 -> 248       -0.43787

 The electronic state is 1-A.
 Alpha  occ. eigenvalues --  -46.88884 -19.26591 -19.25677 -19.21482 -19.19738
 Alpha  occ. eigenvalues --  -19.19520 -19.18764 -14.43129 -14.41638 -14.39443
 Alpha  occ. eigenvalues --  -14.39181 -10.40342 -10.39548 -10.35051 -10.34969
 Alpha  occ. eigenvalues --  -10.32711 -10.32114 -10.31645 -10.31487 -10.30552
 Alpha  occ. eigenvalues --  -10.30551 -10.30182 -10.29978 -10.29322 -10.29052
 Alpha  occ. eigenvalues --  -10.29047 -10.28716 -10.28197 -10.28163 -10.27740
 Alpha  occ. eigenvalues --  -10.27733 -10.27696 -10.27403 -10.27363 -10.27236
 Alpha  occ. eigenvalues --  -10.27174 -10.27140 -10.26838 -10.26832 -10.26641
 Alpha  occ. eigenvalues --  -10.26491 -10.26362 -10.26306 -10.26166 -10.25970
 Alpha  occ. eigenvalues --  -10.25961 -10.25908 -10.25821 -10.25794 -10.25711
 Alpha  occ. eigenvalues --  -10.25700 -10.25550 -10.25451 -10.25131 -10.25095
 Alpha  occ. eigenvalues --  -10.24752 -10.24688 -10.24583 -10.24387 -10.24351
 Alpha  occ. eigenvalues --  -10.24317 -10.24246 -10.24186 -10.23995 -10.23977
 Alpha  occ. eigenvalues --  -10.23940  -3.17379  -1.92304  -1.91804  -1.91703
 Alpha  occ. eigenvalues --   -1.17606  -1.16000  -1.10873  -1.09716  -1.08972
 Alpha  occ. eigenvalues --   -1.08601  -1.06885  -1.04091  -1.03811  -1.01909
 Alpha  occ. eigenvalues --   -0.92722  -0.90656  -0.90346  -0.89976  -0.89019
 Alpha  occ. eigenvalues --   -0.88740  -0.88154  -0.87749  -0.87546  -0.87161
 Alpha  occ. eigenvalues --   -0.86722  -0.85862  -0.84331  -0.83746  -0.83323
 Alpha  occ. eigenvalues --   -0.82435  -0.81819  -0.81103  -0.80918  -0.80061
 Alpha  occ. eigenvalues --   -0.79813  -0.78322  -0.78290  -0.77048  -0.76284
 Alpha  occ. eigenvalues --   -0.75992  -0.75669  -0.75356  -0.74935  -0.74528
 Alpha  occ. eigenvalues --   -0.73798  -0.72891  -0.71992  -0.70764  -0.69063
 Alpha  occ. eigenvalues --   -0.68776  -0.68369  -0.67408  -0.66752  -0.65781
 Alpha  occ. eigenvalues --   -0.65602  -0.64952  -0.64937  -0.64807  -0.64380
 Alpha  occ. eigenvalues --   -0.63666  -0.63586  -0.62778  -0.62434  -0.60516
 Alpha  occ. eigenvalues --   -0.59865  -0.59739  -0.59441  -0.59258  -0.58500
 Alpha  occ. eigenvalues --   -0.58300  -0.57646  -0.56643  -0.55941  -0.55292
 Alpha  occ. eigenvalues --   -0.55220  -0.54906  -0.54816  -0.54659  -0.54074
 Alpha  occ. eigenvalues --   -0.53848  -0.53289  -0.53200  -0.53096  -0.52895
 Alpha  occ. eigenvalues --   -0.52671  -0.52515  -0.51959  -0.51903  -0.51648
 Alpha  occ. eigenvalues --   -0.51496  -0.51267  -0.51112  -0.51024  -0.50818
 Alpha  occ. eigenvalues --   -0.50729  -0.50617  -0.50375  -0.49978  -0.49952
 Alpha  occ. eigenvalues --   -0.49621  -0.49394  -0.49354  -0.49195  -0.49145
 Alpha  occ. eigenvalues --   -0.48888  -0.48690  -0.48313  -0.48076  -0.47771
 Alpha  occ. eigenvalues --   -0.47516  -0.47419  -0.47156  -0.47128  -0.46776
 Alpha  occ. eigenvalues --   -0.46479  -0.46271  -0.46042  -0.46000  -0.45970
 Alpha  occ. eigenvalues --   -0.45763  -0.45708  -0.45498  -0.45257  -0.44984
 Alpha  occ. eigenvalues --   -0.44943  -0.44590  -0.44333  -0.44260  -0.44052
 Alpha  occ. eigenvalues --   -0.43919  -0.43693  -0.43569  -0.43290  -0.43015
 Alpha  occ. eigenvalues --   -0.42987  -0.42967  -0.42739  -0.42620  -0.42362
 Alpha  occ. eigenvalues --   -0.42034  -0.41641  -0.41362  -0.41310  -0.41005
 Alpha  occ. eigenvalues --   -0.40754  -0.40661  -0.40529  -0.40491  -0.40313
 Alpha  occ. eigenvalues --   -0.40081  -0.39701  -0.39542  -0.39461  -0.39174
 Alpha  occ. eigenvalues --   -0.38891  -0.38383  -0.38075  -0.37789  -0.37708
 Alpha  occ. eigenvalues --   -0.37690  -0.37458  -0.37053  -0.36921  -0.36614
 Alpha  occ. eigenvalues --   -0.36238  -0.35945  -0.35354  -0.35118  -0.34670
 Alpha  occ. eigenvalues --   -0.34380  -0.34009  -0.33229  -0.31365  -0.31155
 Alpha  occ. eigenvalues --   -0.30776  -0.30612  -0.29947  -0.29771  -0.24039
 Alpha  occ. eigenvalues --   -0.21081
 Alpha virt. eigenvalues --   -0.08377  -0.01757   0.00464   0.02344   0.03352
 Alpha virt. eigenvalues --    0.04364   0.04456   0.04957   0.05489   0.06563
 Alpha virt. eigenvalues --    0.07865   0.08223   0.08618   0.08769   0.09229

 Mulliken charges:
               1
     1  Mg   0.826778
     2  C    0.004093
     3  C   -0.098224
     4  C   -0.055504
     5  C   -0.092274
     6  N   -0.286004
     7  C   -0.030871
     8  C   -0.035930
     9  C   -0.027496
    10  C    0.044013
    11  C    0.058128
    12  C    0.008211
    13  C    0.089990
    14  C    0.141024
    15  O   -0.208983
    16  O   -0.327275
    17  N   -0.378718
    18  C    0.150373
    19  C   -0.140543
    20  C    0.019528
    21  C    0.090808
    22  C    0.089217
    23  C   -0.047667
    24  O   -0.212572
    25  C    0.063955
    26  N   -0.293672
    27  C    0.061937
    28  C    0.011723
    29  C   -0.045671
    30  C    0.092520
    31  C    0.060826
    32  C    0.011655
    33  C    0.023529
    34  N   -0.279471
    35  C    0.058961
    36  C   -0.172497
    37  C   -0.012153
    38  C    0.088676
    39  C    0.112720
    40  C    0.086089
    41  O   -0.145578
    42  C   -0.053459
    43  C    0.225453
    44  O   -0.211081
    45  O   -0.347010
    46  C    0.155769
    47  C    0.266408
    48  C   -0.127286
    49  C   -0.154756
    50  C    0.069485
    51  C    0.058101
    52  C    0.000039
    53  C    0.087091
    54  C   -0.159383
    55  C    0.046585
    56  C    0.053749
    57  C   -0.037739
    58  C    0.061017
    59  C   -0.127539
    60  C    0.057727
    61  C    0.109709
    62  C   -0.002011
    63  C    0.038070
    64  C   -0.144312
    65  C    0.035816
    66  C    0.069495
    67  H   -0.038044
    68  H   -0.009628
    69  H   -0.028396
    70  H    0.027921
    71  H    0.014493
    72  H    0.020084
    73  H    0.011347
    74  H    0.022384
    75  H    0.016664
    76  H    0.044855
    77  H    0.013681
    78  H    0.028752
    79  H    0.019488
    80  H    0.040577
    81  H    0.023566
    82  H    0.031862
    83  H    0.030528
    84  H    0.031946
    85  H    0.006119
    86  H   -0.006845
    87  H    0.025798
    88  H    0.012640
    89  H    0.010283
    90  H   -0.001852
    91  H    0.007842
    92  H    0.022623
    93  H    0.017194
    94  H    0.009444
    95  H    0.005791
    96  H    0.034051
    97  H    0.030417
    98  H    0.052447
    99  H    0.053314
   100  H    0.036864
   101  H    0.030590
   102  H    0.047970
   103  H    0.025922
   104  H   -0.001219
   105  H    0.002303
   106  H    0.034271
   107  H    0.018897
   108  H    0.006535
   109  H   -0.017893
   110  H    0.002167
   111  H    0.010109
   112  H   -0.005847
   113  H    0.006950
   114  H    0.000910
   115  H    0.026185
   116  H   -0.005066
   117  H    0.024110
   118  H   -0.002898
   119  H   -0.009907
   120  H   -0.010060
   121  H   -0.001624
   122  H   -0.019534
   123  H   -0.005732
   124  H   -0.008690
   125  H   -0.002657
   126  H    0.015461
   127  H   -0.006970
   128  H   -0.000419
   129  H   -0.019099
   130  H   -0.009512
   131  H   -0.007263
   132  H   -0.006248
   133  H   -0.016981
   134  H    0.006013
   135  H   -0.008994
   136  H    0.005290
   137  H   -0.006162
   138  H    0.019812
   139  H    0.005619
   140  H   -0.008131
 Sum of Mulliken charges =  -0.00000

 Dipole moment (field-independent basis, Debye):
    X=             -3.0526    Y=              2.4404    Z=             -1.2259  Tot=              4.0959
 Quadrupole moment (field-independent basis, Debye-Ang):
   XX=           -390.1470   YY=           -417.3790   ZZ=           -416.0408
   XY=             -3.2821   XZ=              9.6188   YZ=              5.1019

 Normal termination of Gaussian 16 at Fri Apr 29 13:14:15 2022.
