 Gaussian 16, Revision A.03,
 Gaussian 16:  ES64L-G16RevA.03 25-Dec-2016

 ---------------------------------
 #p PBE1PBE/Def2SVP td=(nstates=5)
 ---------------------------------

 ----------------------------------------------------
 step_301_chromophore_4 TDDFT with PBE1PBE functional
 ----------------------------------------------------
 Symbolic Z-matrix:
 Charge =  0 Multiplicity = 1

                         Standard orientation:
 ---------------------------------------------------------------------
 Center     Atomic      Atomic             Coordinates (Angstroms)
 Number     Number       Type             X           Y           Z
 ---------------------------------------------------------------------
      1         12           0        6.164150    0.500106    0.138101
      2          6           0        3.833146   -1.978145   -0.024899
      3          6           0        3.682184    2.843883   -0.149232
      4          6           0        8.542058    2.933535   -0.196247
      5          6           0        8.673699   -1.918472    0.058551
      6          7           0        3.989321    0.417316    0.057871
      7          6           0        3.224710   -0.694732    0.084690
      8          6           0        1.687505   -0.463490   -0.032005
      9          6           0        1.636215    1.077388   -0.102764
     10          6           0        3.158166    1.510466   -0.024316
     11          6           0        0.831941    1.726154   -1.238359
     12          6           0        0.864503   -1.119205    1.161611
     13          6           0       -0.514819   -0.496356    1.421532
     14          6           0       -1.660511   -1.522646    1.546545
     15          8           0       -2.060817   -1.995587    2.579858
     16          8           0       -2.260001   -1.722056    0.349471
     17          7           0        6.119733    2.631578   -0.017979
     18          6           0        4.978910    3.364123   -0.164623
     19          6           0        5.317848    4.767879   -0.177205
     20          6           0        6.725712    4.871144   -0.156707
     21          6           0        7.245961    3.465497   -0.166147
     22          6           0        4.388820    5.960671   -0.104676
     23          6           0        7.585793    6.079798   -0.283341
     24          8           0        8.790882    6.049486   -0.061541
     25          6           0        6.949441    7.503322   -0.612317
     26          7           0        8.280010    0.537832   -0.081392
     27          6           0        9.016610    1.658119   -0.168013
     28          6           0       10.494453    1.286827   -0.283615
     29          6           0       10.535750   -0.152156    0.115997
     30          6           0        9.055947   -0.585869    0.015913
     31          6           0       11.172280    1.527066   -1.707293
     32          6           0       11.159053   -0.427631    1.540320
     33          6           0       11.676525   -1.848342    1.723873
     34          7           0        6.295876   -1.564663    0.230605
     35          6           0        7.339373   -2.381805    0.092755
     36          6           0        6.857512   -3.766015    0.056002
     37          6           0        5.511198   -3.617228    0.025932
     38          6           0        5.234901   -2.258583    0.047716
     39          6           0        7.626645   -5.045796   -0.107672
     40          6           0        4.300814   -4.439450    0.022248
     41          8           0        4.153741   -5.627243    0.191441
     42          6           0        3.193545   -3.376623   -0.019981
     43          6           0        2.239128   -3.729448   -1.128914
     44          8           0        2.517069   -3.605871   -2.318970
     45          8           0        1.086552   -4.218718   -0.472134
     46          6           0        0.127027   -4.627108   -1.517605
     47          6           0       -3.296312   -2.753420    0.313661
     48          6           0       -4.701310   -2.100489    0.314552
     49          6           0       -5.903745   -2.646802    0.544210
     50          6           0       -6.110341   -4.150354    0.477593
     51          6           0       -7.158926   -1.838340    0.425790
     52          6           0       -7.509552   -1.172540   -0.991063
     53          6           0       -7.996300    0.315961   -0.871608
     54          6           0       -9.515742    0.419300   -0.694714
     55          6           0      -10.350885    0.895396   -1.958762
     56          6           0       -9.856568    1.365066    0.518420
     57          6           0      -11.202495    1.020287    1.130212
     58          6           0      -12.010936    2.201745    1.712858
     59          6           0      -13.386161    1.800028    2.267540
     60          6           0      -13.420370    2.253125    3.678068
     61          6           0      -14.542505    2.261239    1.392262
     62          6           0      -15.151841    1.112071    0.552702
     63          6           0      -15.464833    1.431468   -0.915892
     64          6           0      -14.607641    0.580323   -1.914252
     65          6           0      -14.207220    1.415821   -3.124111
     66          6           0      -15.367302   -0.729817   -2.251707
     67          1           0        2.949517    3.652756   -0.105057
     68          1           0        9.280691    3.724399   -0.345393
     69          1           0        9.403736   -2.725786   -0.027537
     70          1           0        1.371491   -0.890125   -0.984458
     71          1           0        1.192297    1.538570    0.779255
     72          1           0        1.479281    2.287684   -1.911124
     73          1           0        0.110740    2.413627   -0.796671
     74          1           0        0.266354    1.077432   -1.907431
     75          1           0        1.506209   -1.009205    2.036960
     76          1           0        0.639612   -2.165236    0.957394
     77          1           0       -0.767140    0.106455    0.548751
     78          1           0       -0.347815    0.192657    2.249358
     79          1           0        3.476460    5.687551    0.425104
     80          1           0        4.203838    6.289448   -1.126815
     81          1           0        4.689128    6.821693    0.491225
     82          1           0        6.125020    7.339354   -1.306614
     83          1           0        7.806575    8.156952   -0.776765
     84          1           0        6.575366    7.809870    0.363719
     85          1           0       10.967981    1.934490    0.455136
     86          1           0       11.137348   -0.786972   -0.535091
     87          1           0       11.298028    2.573589   -1.986072
     88          1           0       10.647447    0.985246   -2.493362
     89          1           0       12.173236    1.096321   -1.749091
     90          1           0       10.379824   -0.313072    2.294851
     91          1           0       11.923626    0.287408    1.844754
     92          1           0       10.854752   -2.453474    2.106503
     93          1           0       12.465389   -1.770830    2.472493
     94          1           0       11.998030   -2.209278    0.747277
     95          1           0        8.666302   -4.949173   -0.419036
     96          1           0        7.197586   -5.746872   -0.824547
     97          1           0        7.610124   -5.553407    0.856495
     98          1           0        2.631384   -3.409361    0.913084
     99          1           0        0.622665   -4.896170   -2.449601
    100          1           0       -0.665490   -3.889861   -1.644767
    101          1           0       -0.368883   -5.562334   -1.254796
    102          1           0       -3.200472   -3.419612    1.171094
    103          1           0       -3.123917   -3.339481   -0.588224
    104          1           0       -4.696173   -1.040976    0.057136
    105          1           0       -5.194286   -4.738958    0.451740
    106          1           0       -6.761629   -4.412327   -0.356351
    107          1           0       -6.565068   -4.376708    1.442149
    108          1           0       -7.173182   -1.113133    1.239848
    109          1           0       -8.028353   -2.409818    0.752774
    110          1           0       -8.398007   -1.716955   -1.310564
    111          1           0       -6.686423   -1.343988   -1.684468
    112          1           0       -7.640642    0.696669   -1.829128
    113          1           0       -7.447707    0.833360   -0.085218
    114          1           0       -9.993563   -0.529379   -0.448452
    115          1           0      -10.846650    0.064829   -2.462344
    116          1           0       -9.587971    1.352673   -2.587824
    117          1           0      -10.980411    1.743766   -1.693976
    118          1           0       -9.813471    2.426742    0.273185
    119          1           0       -9.138659    1.175152    1.317024
    120          1           0      -11.044304    0.323651    1.953828
    121          1           0      -11.758430    0.443709    0.391161
    122          1           0      -12.152303    2.825691    0.830513
    123          1           0      -11.430484    2.746923    2.457101
    124          1           0      -13.368806    0.710461    2.272049
    125          1           0      -14.114680    1.642766    4.256146
    126          1           0      -13.524791    3.314663    3.900919
    127          1           0      -12.443533    1.958872    4.063088
    128          1           0      -14.353941    3.139243    0.775191
    129          1           0      -15.332559    2.519636    2.096701
    130          1           0      -16.095443    0.756690    0.965571
    131          1           0      -14.502602    0.246615    0.683730
    132          1           0      -15.525269    2.482086   -1.201926
    133          1           0      -16.514645    1.148019   -0.996710
    134          1           0      -13.676895    0.338064   -1.402391
    135          1           0      -13.147581    1.668432   -3.076073
    136          1           0      -14.721817    2.368456   -3.249107
    137          1           0      -14.202518    0.967387   -4.118276
    138          1           0      -16.410143   -0.735832   -1.936083
    139          1           0      -14.691535   -1.525931   -1.936956
    140          1           0      -15.381976   -0.872655   -3.332027
 ---------------------------------------------------------------------

 SCF Done:  E(RPBE1PBE) =  -3005.37348622     A.U. after   15 cycles

 Excitation energies and oscillator strengths:

 Excited State   1:      Singlet-A      1.8980 eV  653.22 nm  f=0.3745  <S**2>=0.000
     245 -> 248       -0.18225
     246 -> 247        0.69054
     246 <- 247       -0.10233
 This state for optimization and/or second-order correction.
 Total Energy, E(TD-HF/TD-DFT) =  -3005.30373473
 Copying the excited state density for this state as the 1-particle RhoCI density.

 Excited State   2:      Singlet-A      2.2671 eV  546.88 nm  f=0.0941  <S**2>=0.000
     245 -> 247        0.64335
     246 -> 248        0.28545

 Excited State   3:      Singlet-A      3.0598 eV  405.21 nm  f=0.0001  <S**2>=0.000
     242 -> 247       -0.12967
     243 -> 247        0.65960
     243 -> 249        0.16531

 Excited State   4:      Singlet-A      3.1866 eV  389.08 nm  f=0.0037  <S**2>=0.000
     242 -> 247        0.66861
     243 -> 247        0.12996
     246 -> 248       -0.15119

 Excited State   5:      Singlet-A      3.2084 eV  386.44 nm  f=0.0019  <S**2>=0.000
     241 -> 247        0.66551
     241 -> 249       -0.16805
     241 -> 250        0.10588

 The electronic state is 1-A.
 Alpha  occ. eigenvalues --  -46.92291 -19.27258 -19.26386 -19.21699 -19.20025
 Alpha  occ. eigenvalues --  -19.19761 -19.18927 -14.42621 -14.41192 -14.39103
 Alpha  occ. eigenvalues --  -14.38800 -10.37358 -10.36604 -10.32153 -10.32137
 Alpha  occ. eigenvalues --  -10.30141 -10.29839 -10.29298 -10.28867 -10.28373
 Alpha  occ. eigenvalues --  -10.28201 -10.27835 -10.27585 -10.27128 -10.26858
 Alpha  occ. eigenvalues --  -10.26825 -10.26276 -10.26006 -10.25912 -10.25386
 Alpha  occ. eigenvalues --  -10.25365 -10.25211 -10.25012 -10.25007 -10.24954
 Alpha  occ. eigenvalues --  -10.24823 -10.24733 -10.24708 -10.24472 -10.24315
 Alpha  occ. eigenvalues --  -10.24107 -10.23939 -10.23765 -10.23553 -10.23471
 Alpha  occ. eigenvalues --  -10.23463 -10.23389 -10.23380 -10.23375 -10.23333
 Alpha  occ. eigenvalues --  -10.23287 -10.23189 -10.23046 -10.22560 -10.22550
 Alpha  occ. eigenvalues --  -10.22356 -10.22327 -10.22118 -10.21933 -10.21924
 Alpha  occ. eigenvalues --  -10.21807 -10.21755 -10.21728 -10.21708 -10.21354
 Alpha  occ. eigenvalues --  -10.21329  -3.14368  -1.87236  -1.86712  -1.86614
 Alpha  occ. eigenvalues --   -1.12453  -1.10725  -1.05651  -1.04398  -1.03781
 Alpha  occ. eigenvalues --   -1.03497  -1.01708  -0.98702  -0.98446  -0.96527
 Alpha  occ. eigenvalues --   -0.87102  -0.84765  -0.84512  -0.84138  -0.83332
 Alpha  occ. eigenvalues --   -0.82864  -0.82484  -0.81894  -0.81850  -0.81430
 Alpha  occ. eigenvalues --   -0.81044  -0.80132  -0.78507  -0.78080  -0.77593
 Alpha  occ. eigenvalues --   -0.76650  -0.76037  -0.75350  -0.75238  -0.74199
 Alpha  occ. eigenvalues --   -0.73981  -0.72600  -0.72526  -0.71393  -0.70620
 Alpha  occ. eigenvalues --   -0.70152  -0.69760  -0.69673  -0.69083  -0.68707
 Alpha  occ. eigenvalues --   -0.68109  -0.67352  -0.66440  -0.65084  -0.63560
 Alpha  occ. eigenvalues --   -0.63037  -0.62737  -0.61839  -0.60987  -0.60201
 Alpha  occ. eigenvalues --   -0.60015  -0.59531  -0.59404  -0.59124  -0.58547
 Alpha  occ. eigenvalues --   -0.58117  -0.57769  -0.57022  -0.56987  -0.55097
 Alpha  occ. eigenvalues --   -0.54412  -0.54136  -0.53976  -0.53843  -0.52932
 Alpha  occ. eigenvalues --   -0.52778  -0.52196  -0.51265  -0.50463  -0.49887
 Alpha  occ. eigenvalues --   -0.49777  -0.49444  -0.49376  -0.49022  -0.48567
 Alpha  occ. eigenvalues --   -0.48378  -0.47841  -0.47674  -0.47556  -0.47377
 Alpha  occ. eigenvalues --   -0.47161  -0.46991  -0.46543  -0.46467  -0.46151
 Alpha  occ. eigenvalues --   -0.46001  -0.45842  -0.45695  -0.45592  -0.45454
 Alpha  occ. eigenvalues --   -0.45384  -0.45164  -0.45018  -0.44549  -0.44515
 Alpha  occ. eigenvalues --   -0.44142  -0.43990  -0.43931  -0.43767  -0.43667
 Alpha  occ. eigenvalues --   -0.43446  -0.43263  -0.42989  -0.42729  -0.42377
 Alpha  occ. eigenvalues --   -0.42160  -0.42060  -0.41855  -0.41778  -0.41371
 Alpha  occ. eigenvalues --   -0.41057  -0.41033  -0.40773  -0.40654  -0.40556
 Alpha  occ. eigenvalues --   -0.40432  -0.40372  -0.40285  -0.39988  -0.39712
 Alpha  occ. eigenvalues --   -0.39701  -0.39397  -0.39062  -0.38983  -0.38836
 Alpha  occ. eigenvalues --   -0.38666  -0.38485  -0.38308  -0.38103  -0.37915
 Alpha  occ. eigenvalues --   -0.37816  -0.37742  -0.37570  -0.37449  -0.37102
 Alpha  occ. eigenvalues --   -0.36879  -0.36457  -0.36198  -0.36052  -0.35866
 Alpha  occ. eigenvalues --   -0.35589  -0.35536  -0.35382  -0.35321  -0.35078
 Alpha  occ. eigenvalues --   -0.34996  -0.34481  -0.34458  -0.34322  -0.34062
 Alpha  occ. eigenvalues --   -0.33667  -0.33163  -0.32839  -0.32772  -0.32695
 Alpha  occ. eigenvalues --   -0.32503  -0.32491  -0.32049  -0.31698  -0.31687
 Alpha  occ. eigenvalues --   -0.31153  -0.30836  -0.30255  -0.30020  -0.29854
 Alpha  occ. eigenvalues --   -0.29290  -0.28895  -0.28822  -0.26967  -0.26420
 Alpha  occ. eigenvalues --   -0.26081  -0.25541  -0.25341  -0.25053  -0.20971
 Alpha  occ. eigenvalues --   -0.18733
 Alpha virt. eigenvalues --   -0.10912  -0.05232  -0.03798  -0.02098  -0.00352
 Alpha virt. eigenvalues --    0.00260   0.00557   0.00766   0.01085   0.02876
 Alpha virt. eigenvalues --    0.04095   0.04608   0.04730   0.05253   0.05713

 Mulliken charges:
               1
     1  Mg   0.976482
     2  C    0.018732
     3  C   -0.090614
     4  C   -0.055006
     5  C   -0.076302
     6  N   -0.393015
     7  C    0.041645
     8  C   -0.110107
     9  C   -0.101090
    10  C    0.083702
    11  C    0.001574
    12  C   -0.041925
    13  C    0.010223
    14  C    0.208450
    15  O   -0.242748
    16  O   -0.358719
    17  N   -0.488118
    18  C    0.169553
    19  C   -0.172284
    20  C   -0.028693
    21  C    0.127219
    22  C    0.029458
    23  C    0.007365
    24  O   -0.247891
    25  C   -0.016866
    26  N   -0.403450
    27  C    0.100378
    28  C   -0.070349
    29  C   -0.122887
    30  C    0.128735
    31  C    0.002562
    32  C   -0.042603
    33  C   -0.051821
    34  N   -0.416894
    35  C    0.077568
    36  C   -0.186577
    37  C   -0.061025
    38  C    0.129614
    39  C    0.061427
    40  C    0.183282
    41  O   -0.194444
    42  C   -0.160113
    43  C    0.304921
    44  O   -0.245113
    45  O   -0.376806
    46  C    0.099742
    47  C    0.223152
    48  C   -0.133053
    49  C   -0.201979
    50  C    0.002865
    51  C    0.004478
    52  C   -0.069427
    53  C    0.032617
    54  C   -0.243841
    55  C   -0.012767
    56  C   -0.001215
    57  C   -0.105415
    58  C    0.008047
    59  C   -0.216200
    60  C   -0.007104
    61  C    0.054860
    62  C   -0.060104
    63  C   -0.014681
    64  C   -0.250449
    65  C   -0.022806
    66  C    0.011279
    67  H   -0.004416
    68  H    0.022781
    69  H    0.004433
    70  H    0.066480
    71  H    0.052893
    72  H    0.048025
    73  H    0.037602
    74  H    0.048529
    75  H    0.049373
    76  H    0.082671
    77  H    0.051063
    78  H    0.060610
    79  H    0.045948
    80  H    0.068719
    81  H    0.050602
    82  H    0.059417
    83  H    0.058035
    84  H    0.060298
    85  H    0.043160
    86  H    0.030279
    87  H    0.053081
    88  H    0.040799
    89  H    0.038707
    90  H    0.032465
    91  H    0.040058
    92  H    0.050596
    93  H    0.045988
    94  H    0.036393
    95  H    0.032436
    96  H    0.061055
    97  H    0.058807
    98  H    0.090618
    99  H    0.074320
   100  H    0.060357
   101  H    0.052576
   102  H    0.073338
   103  H    0.052964
   104  H    0.029423
   105  H    0.029603
   106  H    0.061685
   107  H    0.047862
   108  H    0.038906
   109  H    0.014104
   110  H    0.036569
   111  H    0.041428
   112  H    0.027065
   113  H    0.037886
   114  H    0.037796
   115  H    0.052357
   116  H    0.023358
   117  H    0.051364
   118  H    0.029193
   119  H    0.024361
   120  H    0.023999
   121  H    0.035791
   122  H    0.015277
   123  H    0.026155
   124  H    0.029690
   125  H    0.026692
   126  H    0.043096
   127  H    0.022729
   128  H    0.029768
   129  H    0.016268
   130  H    0.022859
   131  H    0.023318
   132  H    0.024202
   133  H    0.016450
   134  H    0.052363
   135  H    0.021921
   136  H    0.031783
   137  H    0.020802
   138  H    0.045182
   139  H    0.032390
   140  H    0.019822
 Sum of Mulliken charges =  -0.00000

 Dipole moment (field-independent basis, Debye):
    X=             -2.9797    Y=              2.2351    Z=             -1.1877  Tot=              3.9096
 Quadrupole moment (field-independent basis, Debye-Ang):
   XX=           -383.1836   YY=           -415.1686   ZZ=           -413.6898
   XY=             -5.1538   XZ=              9.9677   YZ=              5.1240

 Normal termination of Gaussian 16 at Fri Apr 29 13:30:21 2022.
