 Gaussian 16, Revision A.03,
 Gaussian 16:  ES64L-G16RevA.03 25-Dec-2016

 --------------------------------
 #p wB97XD/Def2SVP td=(nstates=5)
 --------------------------------

 ---------------------------------------------------
 step_301_chromophore_4 TDDFT with wB97XD functional
 ---------------------------------------------------
 Symbolic Z-matrix:
 Charge =  0 Multiplicity = 1

                         Standard orientation:
 ---------------------------------------------------------------------
 Center     Atomic      Atomic             Coordinates (Angstroms)
 Number     Number       Type             X           Y           Z
 ---------------------------------------------------------------------
      1         12           0        6.164150    0.500106    0.138101
      2          6           0        3.833146   -1.978145   -0.024899
      3          6           0        3.682184    2.843883   -0.149232
      4          6           0        8.542058    2.933535   -0.196247
      5          6           0        8.673699   -1.918472    0.058551
      6          7           0        3.989321    0.417316    0.057871
      7          6           0        3.224710   -0.694732    0.084690
      8          6           0        1.687505   -0.463490   -0.032005
      9          6           0        1.636215    1.077388   -0.102764
     10          6           0        3.158166    1.510466   -0.024316
     11          6           0        0.831941    1.726154   -1.238359
     12          6           0        0.864503   -1.119205    1.161611
     13          6           0       -0.514819   -0.496356    1.421532
     14          6           0       -1.660511   -1.522646    1.546545
     15          8           0       -2.060817   -1.995587    2.579858
     16          8           0       -2.260001   -1.722056    0.349471
     17          7           0        6.119733    2.631578   -0.017979
     18          6           0        4.978910    3.364123   -0.164623
     19          6           0        5.317848    4.767879   -0.177205
     20          6           0        6.725712    4.871144   -0.156707
     21          6           0        7.245961    3.465497   -0.166147
     22          6           0        4.388820    5.960671   -0.104676
     23          6           0        7.585793    6.079798   -0.283341
     24          8           0        8.790882    6.049486   -0.061541
     25          6           0        6.949441    7.503322   -0.612317
     26          7           0        8.280010    0.537832   -0.081392
     27          6           0        9.016610    1.658119   -0.168013
     28          6           0       10.494453    1.286827   -0.283615
     29          6           0       10.535750   -0.152156    0.115997
     30          6           0        9.055947   -0.585869    0.015913
     31          6           0       11.172280    1.527066   -1.707293
     32          6           0       11.159053   -0.427631    1.540320
     33          6           0       11.676525   -1.848342    1.723873
     34          7           0        6.295876   -1.564663    0.230605
     35          6           0        7.339373   -2.381805    0.092755
     36          6           0        6.857512   -3.766015    0.056002
     37          6           0        5.511198   -3.617228    0.025932
     38          6           0        5.234901   -2.258583    0.047716
     39          6           0        7.626645   -5.045796   -0.107672
     40          6           0        4.300814   -4.439450    0.022248
     41          8           0        4.153741   -5.627243    0.191441
     42          6           0        3.193545   -3.376623   -0.019981
     43          6           0        2.239128   -3.729448   -1.128914
     44          8           0        2.517069   -3.605871   -2.318970
     45          8           0        1.086552   -4.218718   -0.472134
     46          6           0        0.127027   -4.627108   -1.517605
     47          6           0       -3.296312   -2.753420    0.313661
     48          6           0       -4.701310   -2.100489    0.314552
     49          6           0       -5.903745   -2.646802    0.544210
     50          6           0       -6.110341   -4.150354    0.477593
     51          6           0       -7.158926   -1.838340    0.425790
     52          6           0       -7.509552   -1.172540   -0.991063
     53          6           0       -7.996300    0.315961   -0.871608
     54          6           0       -9.515742    0.419300   -0.694714
     55          6           0      -10.350885    0.895396   -1.958762
     56          6           0       -9.856568    1.365066    0.518420
     57          6           0      -11.202495    1.020287    1.130212
     58          6           0      -12.010936    2.201745    1.712858
     59          6           0      -13.386161    1.800028    2.267540
     60          6           0      -13.420370    2.253125    3.678068
     61          6           0      -14.542505    2.261239    1.392262
     62          6           0      -15.151841    1.112071    0.552702
     63          6           0      -15.464833    1.431468   -0.915892
     64          6           0      -14.607641    0.580323   -1.914252
     65          6           0      -14.207220    1.415821   -3.124111
     66          6           0      -15.367302   -0.729817   -2.251707
     67          1           0        2.949517    3.652756   -0.105057
     68          1           0        9.280691    3.724399   -0.345393
     69          1           0        9.403736   -2.725786   -0.027537
     70          1           0        1.371491   -0.890125   -0.984458
     71          1           0        1.192297    1.538570    0.779255
     72          1           0        1.479281    2.287684   -1.911124
     73          1           0        0.110740    2.413627   -0.796671
     74          1           0        0.266354    1.077432   -1.907431
     75          1           0        1.506209   -1.009205    2.036960
     76          1           0        0.639612   -2.165236    0.957394
     77          1           0       -0.767140    0.106455    0.548751
     78          1           0       -0.347815    0.192657    2.249358
     79          1           0        3.476460    5.687551    0.425104
     80          1           0        4.203838    6.289448   -1.126815
     81          1           0        4.689128    6.821693    0.491225
     82          1           0        6.125020    7.339354   -1.306614
     83          1           0        7.806575    8.156952   -0.776765
     84          1           0        6.575366    7.809870    0.363719
     85          1           0       10.967981    1.934490    0.455136
     86          1           0       11.137348   -0.786972   -0.535091
     87          1           0       11.298028    2.573589   -1.986072
     88          1           0       10.647447    0.985246   -2.493362
     89          1           0       12.173236    1.096321   -1.749091
     90          1           0       10.379824   -0.313072    2.294851
     91          1           0       11.923626    0.287408    1.844754
     92          1           0       10.854752   -2.453474    2.106503
     93          1           0       12.465389   -1.770830    2.472493
     94          1           0       11.998030   -2.209278    0.747277
     95          1           0        8.666302   -4.949173   -0.419036
     96          1           0        7.197586   -5.746872   -0.824547
     97          1           0        7.610124   -5.553407    0.856495
     98          1           0        2.631384   -3.409361    0.913084
     99          1           0        0.622665   -4.896170   -2.449601
    100          1           0       -0.665490   -3.889861   -1.644767
    101          1           0       -0.368883   -5.562334   -1.254796
    102          1           0       -3.200472   -3.419612    1.171094
    103          1           0       -3.123917   -3.339481   -0.588224
    104          1           0       -4.696173   -1.040976    0.057136
    105          1           0       -5.194286   -4.738958    0.451740
    106          1           0       -6.761629   -4.412327   -0.356351
    107          1           0       -6.565068   -4.376708    1.442149
    108          1           0       -7.173182   -1.113133    1.239848
    109          1           0       -8.028353   -2.409818    0.752774
    110          1           0       -8.398007   -1.716955   -1.310564
    111          1           0       -6.686423   -1.343988   -1.684468
    112          1           0       -7.640642    0.696669   -1.829128
    113          1           0       -7.447707    0.833360   -0.085218
    114          1           0       -9.993563   -0.529379   -0.448452
    115          1           0      -10.846650    0.064829   -2.462344
    116          1           0       -9.587971    1.352673   -2.587824
    117          1           0      -10.980411    1.743766   -1.693976
    118          1           0       -9.813471    2.426742    0.273185
    119          1           0       -9.138659    1.175152    1.317024
    120          1           0      -11.044304    0.323651    1.953828
    121          1           0      -11.758430    0.443709    0.391161
    122          1           0      -12.152303    2.825691    0.830513
    123          1           0      -11.430484    2.746923    2.457101
    124          1           0      -13.368806    0.710461    2.272049
    125          1           0      -14.114680    1.642766    4.256146
    126          1           0      -13.524791    3.314663    3.900919
    127          1           0      -12.443533    1.958872    4.063088
    128          1           0      -14.353941    3.139243    0.775191
    129          1           0      -15.332559    2.519636    2.096701
    130          1           0      -16.095443    0.756690    0.965571
    131          1           0      -14.502602    0.246615    0.683730
    132          1           0      -15.525269    2.482086   -1.201926
    133          1           0      -16.514645    1.148019   -0.996710
    134          1           0      -13.676895    0.338064   -1.402391
    135          1           0      -13.147581    1.668432   -3.076073
    136          1           0      -14.721817    2.368456   -3.249107
    137          1           0      -14.202518    0.967387   -4.118276
    138          1           0      -16.410143   -0.735832   -1.936083
    139          1           0      -14.691535   -1.525931   -1.936956
    140          1           0      -15.381976   -0.872655   -3.332027
 ---------------------------------------------------------------------

 SCF Done:  E(RwB97XD) =  -3007.88374500     A.U. after   20 cycles

 Excitation energies and oscillator strengths:

 Excited State   1:      Singlet-A      1.6883 eV  734.39 nm  f=0.3824  <S**2>=0.000
     245 -> 248        0.19464
     246 -> 247        0.68158
     245 <- 248        0.11862
 This state for optimization and/or second-order correction.
 Total Energy, E(TD-HF/TD-DFT) =  -3007.82170282
 Copying the excited state density for this state as the 1-particle RhoCI density.

 Excited State   2:      Singlet-A      2.2035 eV  562.67 nm  f=0.0892  <S**2>=0.000
     245 -> 247        0.62826
     246 -> 248       -0.31468

 Excited State   3:      Singlet-A      3.4884 eV  355.41 nm  f=0.2828  <S**2>=0.000
     243 -> 247        0.49478
     245 -> 247        0.18022
     246 -> 248        0.44904

 Excited State   4:      Singlet-A      3.6167 eV  342.81 nm  f=0.0066  <S**2>=0.000
     242 -> 247        0.52395
     242 -> 248        0.12650
     242 -> 249       -0.35364
     242 -> 250       -0.23138

 Excited State   5:      Singlet-A      3.6352 eV  341.06 nm  f=0.5220  <S**2>=0.000
     241 -> 247       -0.17459
     243 -> 247        0.46927
     245 -> 247       -0.24076
     246 -> 248       -0.41770

 The electronic state is 1-A.
 Alpha  occ. eigenvalues --  -46.95233 -19.31836 -19.30940 -19.26432 -19.24704
 Alpha  occ. eigenvalues --  -19.24570 -19.23803 -14.47744 -14.46233 -14.44072
 Alpha  occ. eigenvalues --  -14.43743 -10.44223 -10.43386 -10.39044 -10.38985
 Alpha  occ. eigenvalues --  -10.36630 -10.36192 -10.35524 -10.35387 -10.34643
 Alpha  occ. eigenvalues --  -10.34560 -10.34201 -10.34031 -10.33317 -10.33121
 Alpha  occ. eigenvalues --  -10.33105 -10.32892 -10.32334 -10.32152 -10.31794
 Alpha  occ. eigenvalues --  -10.31732 -10.31638 -10.31485 -10.31337 -10.31337
 Alpha  occ. eigenvalues --  -10.31291 -10.31173 -10.30875 -10.30817 -10.30663
 Alpha  occ. eigenvalues --  -10.30370 -10.30364 -10.30208 -10.30114 -10.29836
 Alpha  occ. eigenvalues --  -10.29786 -10.29772 -10.29771 -10.29705 -10.29655
 Alpha  occ. eigenvalues --  -10.29654 -10.29582 -10.29398 -10.28979 -10.28917
 Alpha  occ. eigenvalues --  -10.28690 -10.28646 -10.28505 -10.28297 -10.28277
 Alpha  occ. eigenvalues --  -10.28173 -10.28134 -10.28099 -10.28018 -10.27799
 Alpha  occ. eigenvalues --  -10.27763  -3.21161  -1.94778  -1.94255  -1.94157
 Alpha  occ. eigenvalues --   -1.19820  -1.18164  -1.13113  -1.11945  -1.11180
 Alpha  occ. eigenvalues --   -1.10830  -1.08935  -1.06110  -1.05812  -1.03973
 Alpha  occ. eigenvalues --   -0.94706  -0.92431  -0.92167  -0.91796  -0.90920
 Alpha  occ. eigenvalues --   -0.90526  -0.90048  -0.89526  -0.89482  -0.89106
 Alpha  occ. eigenvalues --   -0.88673  -0.87776  -0.86165  -0.85680  -0.85195
 Alpha  occ. eigenvalues --   -0.84296  -0.83690  -0.83014  -0.82871  -0.81948
 Alpha  occ. eigenvalues --   -0.81709  -0.80292  -0.80196  -0.78977  -0.78227
 Alpha  occ. eigenvalues --   -0.77831  -0.77457  -0.77262  -0.76753  -0.76369
 Alpha  occ. eigenvalues --   -0.75720  -0.74883  -0.73975  -0.72708  -0.71062
 Alpha  occ. eigenvalues --   -0.70662  -0.70311  -0.69400  -0.68617  -0.67734
 Alpha  occ. eigenvalues --   -0.67505  -0.66952  -0.66849  -0.66766  -0.66209
 Alpha  occ. eigenvalues --   -0.65617  -0.65419  -0.64614  -0.64433  -0.62498
 Alpha  occ. eigenvalues --   -0.61853  -0.61650  -0.61403  -0.61267  -0.60429
 Alpha  occ. eigenvalues --   -0.60242  -0.59637  -0.58632  -0.57873  -0.57322
 Alpha  occ. eigenvalues --   -0.57167  -0.56849  -0.56781  -0.56524  -0.55977
 Alpha  occ. eigenvalues --   -0.55766  -0.55208  -0.55098  -0.54987  -0.54822
 Alpha  occ. eigenvalues --   -0.54572  -0.54436  -0.53895  -0.53855  -0.53583
 Alpha  occ. eigenvalues --   -0.53364  -0.53182  -0.53018  -0.52907  -0.52729
 Alpha  occ. eigenvalues --   -0.52640  -0.52520  -0.52327  -0.51936  -0.51871
 Alpha  occ. eigenvalues --   -0.51560  -0.51325  -0.51240  -0.51092  -0.51072
 Alpha  occ. eigenvalues --   -0.50760  -0.50567  -0.50249  -0.49990  -0.49733
 Alpha  occ. eigenvalues --   -0.49421  -0.49327  -0.49094  -0.49070  -0.48636
 Alpha  occ. eigenvalues --   -0.48323  -0.48216  -0.47991  -0.47897  -0.47819
 Alpha  occ. eigenvalues --   -0.47633  -0.47621  -0.47459  -0.47174  -0.46896
 Alpha  occ. eigenvalues --   -0.46868  -0.46536  -0.46247  -0.46146  -0.45946
 Alpha  occ. eigenvalues --   -0.45857  -0.45613  -0.45514  -0.45204  -0.44946
 Alpha  occ. eigenvalues --   -0.44918  -0.44858  -0.44710  -0.44536  -0.44240
 Alpha  occ. eigenvalues --   -0.43987  -0.43607  -0.43289  -0.43188  -0.42930
 Alpha  occ. eigenvalues --   -0.42635  -0.42550  -0.42430  -0.42393  -0.42169
 Alpha  occ. eigenvalues --   -0.41976  -0.41561  -0.41410  -0.41386  -0.41044
 Alpha  occ. eigenvalues --   -0.40729  -0.40220  -0.39916  -0.39795  -0.39646
 Alpha  occ. eigenvalues --   -0.39535  -0.39430  -0.39070  -0.38754  -0.38680
 Alpha  occ. eigenvalues --   -0.38096  -0.37792  -0.37343  -0.36947  -0.36666
 Alpha  occ. eigenvalues --   -0.36212  -0.35950  -0.35501  -0.33560  -0.33165
 Alpha  occ. eigenvalues --   -0.32938  -0.32570  -0.32150  -0.31808  -0.25977
 Alpha  occ. eigenvalues --   -0.22897
 Alpha virt. eigenvalues --   -0.06727   0.00139   0.02508   0.04430   0.06329
 Alpha virt. eigenvalues --    0.06611   0.06993   0.07240   0.07855   0.09224
 Alpha virt. eigenvalues --    0.10778   0.11201   0.11565   0.12057   0.12523

 Mulliken charges:
               1
     1  Mg   0.966839
     2  C    0.004803
     3  C   -0.106155
     4  C   -0.068763
     5  C   -0.095613
     6  N   -0.359129
     7  C    0.009671
     8  C   -0.084348
     9  C   -0.076304
    10  C    0.069478
    11  C    0.009072
    12  C   -0.027226
    13  C    0.029211
    14  C    0.198467
    15  O   -0.240252
    16  O   -0.357851
    17  N   -0.458039
    18  C    0.164215
    19  C   -0.159245
    20  C   -0.021575
    21  C    0.117263
    22  C    0.041003
    23  C   -0.001266
    24  O   -0.242786
    25  C    0.002231
    26  N   -0.368441
    27  C    0.084772
    28  C   -0.044025
    29  C   -0.091720
    30  C    0.114067
    31  C    0.013108
    32  C   -0.031885
    33  C   -0.034377
    34  N   -0.373510
    35  C    0.070755
    36  C   -0.184054
    37  C   -0.057002
    38  C    0.115473
    39  C    0.070554
    40  C    0.163409
    41  O   -0.183575
    42  C   -0.116898
    43  C    0.283847
    44  O   -0.240598
    45  O   -0.376517
    46  C    0.116159
    47  C    0.239412
    48  C   -0.145765
    49  C   -0.185208
    50  C    0.017390
    51  C    0.016570
    52  C   -0.046745
    53  C    0.045267
    54  C   -0.211893
    55  C    0.000196
    56  C    0.013458
    57  C   -0.076736
    58  C    0.022845
    59  C   -0.183184
    60  C    0.006677
    61  C    0.064434
    62  C   -0.041565
    63  C   -0.000656
    64  C   -0.209040
    65  C   -0.008213
    66  C    0.021996
    67  H   -0.012789
    68  H    0.017593
    69  H   -0.003477
    70  H    0.055552
    71  H    0.040573
    72  H    0.041861
    73  H    0.032984
    74  H    0.044305
    75  H    0.042812
    76  H    0.066184
    77  H    0.039660
    78  H    0.056479
    79  H    0.041954
    80  H    0.064242
    81  H    0.045261
    82  H    0.052164
    83  H    0.057155
    84  H    0.053594
    85  H    0.033969
    86  H    0.016854
    87  H    0.048195
    88  H    0.034430
    89  H    0.032371
    90  H    0.023183
    91  H    0.032344
    92  H    0.043470
    93  H    0.041413
    94  H    0.029276
    95  H    0.027411
    96  H    0.056756
    97  H    0.053658
    98  H    0.081827
    99  H    0.069997
   100  H    0.056425
   101  H    0.048552
   102  H    0.068143
   103  H    0.048355
   104  H    0.025271
   105  H    0.024381
   106  H    0.056030
   107  H    0.041347
   108  H    0.029922
   109  H    0.006785
   110  H    0.025686
   111  H    0.033939
   112  H    0.019285
   113  H    0.028939
   114  H    0.022533
   115  H    0.047885
   116  H    0.016336
   117  H    0.041415
   118  H    0.020612
   119  H    0.014385
   120  H    0.014193
   121  H    0.015222
   122  H    0.002144
   123  H    0.017837
   124  H    0.015337
   125  H    0.021307
   126  H    0.038090
   127  H    0.013918
   128  H    0.021971
   129  H    0.008012
   130  H    0.016491
   131  H    0.010302
   132  H    0.015797
   133  H    0.006540
   134  H    0.030247
   135  H    0.011597
   136  H    0.025726
   137  H    0.015031
   138  H    0.039622
   139  H    0.027499
   140  H    0.013153
 Sum of Mulliken charges =  -0.00000

 Dipole moment (field-independent basis, Debye):
    X=             -3.1112    Y=              2.5288    Z=             -1.2521  Tot=              4.2002
 Quadrupole moment (field-independent basis, Debye-Ang):
   XX=           -384.8948   YY=           -412.7502   ZZ=           -413.4066
   XY=             -3.0879   XZ=              9.8696   YZ=              5.1449

 Normal termination of Gaussian 16 at Fri Apr 29 13:57:27 2022.
