 Gaussian 16, Revision A.03,
 Gaussian 16:  ES64L-G16RevA.03 25-Dec-2016

 --------------------
 #p ZINDO=(nstates=5)
 --------------------

 ----------------------------
 step_301_chromophore_4 ZINDO
 ----------------------------
 Symbolic Z-matrix:
 Charge =  0 Multiplicity = 1

                         Standard orientation:
 ---------------------------------------------------------------------
 Center     Atomic      Atomic             Coordinates (Angstroms)
 Number     Number       Type             X           Y           Z
 ---------------------------------------------------------------------
      1         12           0        6.164150    0.500106    0.138101
      2          6           0        3.833146   -1.978145   -0.024899
      3          6           0        3.682184    2.843883   -0.149232
      4          6           0        8.542058    2.933535   -0.196247
      5          6           0        8.673699   -1.918472    0.058551
      6          7           0        3.989321    0.417316    0.057871
      7          6           0        3.224710   -0.694732    0.084690
      8          6           0        1.687505   -0.463490   -0.032005
      9          6           0        1.636215    1.077388   -0.102764
     10          6           0        3.158166    1.510466   -0.024316
     11          6           0        0.831941    1.726154   -1.238359
     12          6           0        0.864503   -1.119205    1.161611
     13          6           0       -0.514819   -0.496356    1.421532
     14          6           0       -1.660511   -1.522646    1.546545
     15          8           0       -2.060817   -1.995587    2.579858
     16          8           0       -2.260001   -1.722056    0.349471
     17          7           0        6.119733    2.631578   -0.017979
     18          6           0        4.978910    3.364123   -0.164623
     19          6           0        5.317848    4.767879   -0.177205
     20          6           0        6.725712    4.871144   -0.156707
     21          6           0        7.245961    3.465497   -0.166147
     22          6           0        4.388820    5.960671   -0.104676
     23          6           0        7.585793    6.079798   -0.283341
     24          8           0        8.790882    6.049486   -0.061541
     25          6           0        6.949441    7.503322   -0.612317
     26          7           0        8.280010    0.537832   -0.081392
     27          6           0        9.016610    1.658119   -0.168013
     28          6           0       10.494453    1.286827   -0.283615
     29          6           0       10.535750   -0.152156    0.115997
     30          6           0        9.055947   -0.585869    0.015913
     31          6           0       11.172280    1.527066   -1.707293
     32          6           0       11.159053   -0.427631    1.540320
     33          6           0       11.676525   -1.848342    1.723873
     34          7           0        6.295876   -1.564663    0.230605
     35          6           0        7.339373   -2.381805    0.092755
     36          6           0        6.857512   -3.766015    0.056002
     37          6           0        5.511198   -3.617228    0.025932
     38          6           0        5.234901   -2.258583    0.047716
     39          6           0        7.626645   -5.045796   -0.107672
     40          6           0        4.300814   -4.439450    0.022248
     41          8           0        4.153741   -5.627243    0.191441
     42          6           0        3.193545   -3.376623   -0.019981
     43          6           0        2.239128   -3.729448   -1.128914
     44          8           0        2.517069   -3.605871   -2.318970
     45          8           0        1.086552   -4.218718   -0.472134
     46          6           0        0.127027   -4.627108   -1.517605
     47          6           0       -3.296312   -2.753420    0.313661
     48          6           0       -4.701310   -2.100489    0.314552
     49          6           0       -5.903745   -2.646802    0.544210
     50          6           0       -6.110341   -4.150354    0.477593
     51          6           0       -7.158926   -1.838340    0.425790
     52          6           0       -7.509552   -1.172540   -0.991063
     53          6           0       -7.996300    0.315961   -0.871608
     54          6           0       -9.515742    0.419300   -0.694714
     55          6           0      -10.350885    0.895396   -1.958762
     56          6           0       -9.856568    1.365066    0.518420
     57          6           0      -11.202495    1.020287    1.130212
     58          6           0      -12.010936    2.201745    1.712858
     59          6           0      -13.386161    1.800028    2.267540
     60          6           0      -13.420370    2.253125    3.678068
     61          6           0      -14.542505    2.261239    1.392262
     62          6           0      -15.151841    1.112071    0.552702
     63          6           0      -15.464833    1.431468   -0.915892
     64          6           0      -14.607641    0.580323   -1.914252
     65          6           0      -14.207220    1.415821   -3.124111
     66          6           0      -15.367302   -0.729817   -2.251707
     67          1           0        2.949517    3.652756   -0.105057
     68          1           0        9.280691    3.724399   -0.345393
     69          1           0        9.403736   -2.725786   -0.027537
     70          1           0        1.371491   -0.890125   -0.984458
     71          1           0        1.192297    1.538570    0.779255
     72          1           0        1.479281    2.287684   -1.911124
     73          1           0        0.110740    2.413627   -0.796671
     74          1           0        0.266354    1.077432   -1.907431
     75          1           0        1.506209   -1.009205    2.036960
     76          1           0        0.639612   -2.165236    0.957394
     77          1           0       -0.767140    0.106455    0.548751
     78          1           0       -0.347815    0.192657    2.249358
     79          1           0        3.476460    5.687551    0.425104
     80          1           0        4.203838    6.289448   -1.126815
     81          1           0        4.689128    6.821693    0.491225
     82          1           0        6.125020    7.339354   -1.306614
     83          1           0        7.806575    8.156952   -0.776765
     84          1           0        6.575366    7.809870    0.363719
     85          1           0       10.967981    1.934490    0.455136
     86          1           0       11.137348   -0.786972   -0.535091
     87          1           0       11.298028    2.573589   -1.986072
     88          1           0       10.647447    0.985246   -2.493362
     89          1           0       12.173236    1.096321   -1.749091
     90          1           0       10.379824   -0.313072    2.294851
     91          1           0       11.923626    0.287408    1.844754
     92          1           0       10.854752   -2.453474    2.106503
     93          1           0       12.465389   -1.770830    2.472493
     94          1           0       11.998030   -2.209278    0.747277
     95          1           0        8.666302   -4.949173   -0.419036
     96          1           0        7.197586   -5.746872   -0.824547
     97          1           0        7.610124   -5.553407    0.856495
     98          1           0        2.631384   -3.409361    0.913084
     99          1           0        0.622665   -4.896170   -2.449601
    100          1           0       -0.665490   -3.889861   -1.644767
    101          1           0       -0.368883   -5.562334   -1.254796
    102          1           0       -3.200472   -3.419612    1.171094
    103          1           0       -3.123917   -3.339481   -0.588224
    104          1           0       -4.696173   -1.040976    0.057136
    105          1           0       -5.194286   -4.738958    0.451740
    106          1           0       -6.761629   -4.412327   -0.356351
    107          1           0       -6.565068   -4.376708    1.442149
    108          1           0       -7.173182   -1.113133    1.239848
    109          1           0       -8.028353   -2.409818    0.752774
    110          1           0       -8.398007   -1.716955   -1.310564
    111          1           0       -6.686423   -1.343988   -1.684468
    112          1           0       -7.640642    0.696669   -1.829128
    113          1           0       -7.447707    0.833360   -0.085218
    114          1           0       -9.993563   -0.529379   -0.448452
    115          1           0      -10.846650    0.064829   -2.462344
    116          1           0       -9.587971    1.352673   -2.587824
    117          1           0      -10.980411    1.743766   -1.693976
    118          1           0       -9.813471    2.426742    0.273185
    119          1           0       -9.138659    1.175152    1.317024
    120          1           0      -11.044304    0.323651    1.953828
    121          1           0      -11.758430    0.443709    0.391161
    122          1           0      -12.152303    2.825691    0.830513
    123          1           0      -11.430484    2.746923    2.457101
    124          1           0      -13.368806    0.710461    2.272049
    125          1           0      -14.114680    1.642766    4.256146
    126          1           0      -13.524791    3.314663    3.900919
    127          1           0      -12.443533    1.958872    4.063088
    128          1           0      -14.353941    3.139243    0.775191
    129          1           0      -15.332559    2.519636    2.096701
    130          1           0      -16.095443    0.756690    0.965571
    131          1           0      -14.502602    0.246615    0.683730
    132          1           0      -15.525269    2.482086   -1.201926
    133          1           0      -16.514645    1.148019   -0.996710
    134          1           0      -13.676895    0.338064   -1.402391
    135          1           0      -13.147581    1.668432   -3.076073
    136          1           0      -14.721817    2.368456   -3.249107
    137          1           0      -14.202518    0.967387   -4.118276
    138          1           0      -16.410143   -0.735832   -1.936083
    139          1           0      -14.691535   -1.525931   -1.936956
    140          1           0      -15.381976   -0.872655   -3.332027
 ---------------------------------------------------------------------

 SCF Done:  E(RZINDO/S) =  -474.493122911     A.U. after   20 cycles

 Excitation energies and oscillator strengths:

 Excited State   1:      Singlet-A      1.2705 eV  975.87 nm  f=0.5967  <S**2>=0.000
     175 ->178        -0.19865
     176 ->177         0.66172
 This state for optimization and/or second-order correction.
 Total Energy, E(CIS/TDA) =  -474.446432905
 Copying the excited state density for this state as the 1-particle RhoCI density.

 Excited State   2:      Singlet-A      1.9259 eV  643.79 nm  f=0.0149  <S**2>=0.000
     175 ->177         0.52228
     176 ->178         0.45443

 Excited State   3:      Singlet-A      3.0009 eV  413.16 nm  f=0.0205  <S**2>=0.000
     168 ->177         0.28553
     168 ->179        -0.35876
     168 ->180         0.31017
     168 ->182        -0.12883
     168 ->186        -0.20091
     168 ->187        -0.14637
     168 ->188         0.10410
     169 ->179         0.10688

 Excited State   4:      Singlet-A      3.0086 eV  412.09 nm  f=0.4425  <S**2>=0.000
     170 ->177         0.11944
     170 ->179         0.12678
     170 ->180         0.10903
     175 ->177        -0.26389
     176 ->178         0.33585
     176 ->179         0.40452
     176 ->182        -0.10724

 Excited State   5:      Singlet-A      3.0416 eV  407.62 nm  f=0.3128  <S**2>=0.000
     169 ->177        -0.20005
     169 ->179        -0.25589
     169 ->180        -0.16177
     169 ->182         0.16366
     169 ->186        -0.14135
     170 ->177        -0.15804
     170 ->179        -0.19457
     170 ->180        -0.13680
     170 ->182         0.13257
     170 ->186        -0.11616
     175 ->177        -0.20481
     176 ->178         0.25257

 The electronic state is 1-A.
 Alpha  occ. eigenvalues --   -1.89321  -1.81596  -1.79145  -1.74757  -1.71798
 Alpha  occ. eigenvalues --   -1.71044  -1.66758  -1.60290  -1.59190  -1.58025
 Alpha  occ. eigenvalues --   -1.55413  -1.51947  -1.49379  -1.48701  -1.47544
 Alpha  occ. eigenvalues --   -1.46046  -1.45096  -1.40380  -1.38960  -1.38875
 Alpha  occ. eigenvalues --   -1.36100  -1.33978  -1.33459  -1.32453  -1.29358
 Alpha  occ. eigenvalues --   -1.26880  -1.25405  -1.21485  -1.20073  -1.18001
 Alpha  occ. eigenvalues --   -1.17725  -1.16822  -1.15065  -1.13538  -1.13032
 Alpha  occ. eigenvalues --   -1.12030  -1.11859  -1.10090  -1.05642  -1.03860
 Alpha  occ. eigenvalues --   -1.02965  -1.01903  -0.99119  -0.97505  -0.96948
 Alpha  occ. eigenvalues --   -0.96449  -0.95160  -0.94208  -0.93027  -0.92640
 Alpha  occ. eigenvalues --   -0.90714  -0.90056  -0.89306  -0.88148  -0.86962
 Alpha  occ. eigenvalues --   -0.86607  -0.84255  -0.83361  -0.82463  -0.80476
 Alpha  occ. eigenvalues --   -0.79534  -0.79348  -0.78312  -0.77056  -0.76831
 Alpha  occ. eigenvalues --   -0.76031  -0.75536  -0.74985  -0.74390  -0.73948
 Alpha  occ. eigenvalues --   -0.72825  -0.72016  -0.71784  -0.71259  -0.70649
 Alpha  occ. eigenvalues --   -0.69581  -0.69175  -0.68824  -0.68282  -0.68078
 Alpha  occ. eigenvalues --   -0.67407  -0.67122  -0.66628  -0.66205  -0.66113
 Alpha  occ. eigenvalues --   -0.65886  -0.65169  -0.64873  -0.64543  -0.63499
 Alpha  occ. eigenvalues --   -0.63278  -0.63145  -0.62493  -0.62203  -0.61614
 Alpha  occ. eigenvalues --   -0.61364  -0.61320  -0.61191  -0.60564  -0.60207
 Alpha  occ. eigenvalues --   -0.60045  -0.58803  -0.58690  -0.58523  -0.58305
 Alpha  occ. eigenvalues --   -0.57771  -0.57163  -0.57046  -0.56545  -0.56272
 Alpha  occ. eigenvalues --   -0.56105  -0.55882  -0.55571  -0.54988  -0.54689
 Alpha  occ. eigenvalues --   -0.54469  -0.54144  -0.53677  -0.53212  -0.52773
 Alpha  occ. eigenvalues --   -0.52409  -0.52093  -0.51900  -0.51771  -0.51397
 Alpha  occ. eigenvalues --   -0.51046  -0.50930  -0.50620  -0.50233  -0.49959
 Alpha  occ. eigenvalues --   -0.49789  -0.49726  -0.49137  -0.49063  -0.48592
 Alpha  occ. eigenvalues --   -0.48310  -0.48145  -0.48042  -0.47872  -0.47805
 Alpha  occ. eigenvalues --   -0.47434  -0.47327  -0.47285  -0.46956  -0.46840
 Alpha  occ. eigenvalues --   -0.46500  -0.46439  -0.46361  -0.46106  -0.45949
 Alpha  occ. eigenvalues --   -0.45564  -0.45145  -0.44802  -0.44415  -0.44011
 Alpha  occ. eigenvalues --   -0.43670  -0.43147  -0.42851  -0.42677  -0.42619
 Alpha  occ. eigenvalues --   -0.42124  -0.41795  -0.41701  -0.39495  -0.38772
 Alpha  occ. eigenvalues --   -0.38587  -0.37350  -0.35340  -0.35048  -0.34740
 Alpha  occ. eigenvalues --   -0.33244  -0.33019  -0.32636  -0.32111  -0.26799
 Alpha  occ. eigenvalues --   -0.21671
 Alpha virt. eigenvalues --   -0.08252  -0.02250  -0.00425   0.00940   0.02034
 Alpha virt. eigenvalues --    0.02344   0.02625   0.03041   0.04369   0.05028
 Alpha virt. eigenvalues --    0.06291   0.06572   0.07177   0.07397   0.08115

 Mulliken charges:
               1
     1  Mg   0.424880
     2  C   -0.061998
     3  C   -0.079010
     4  C   -0.055063
     5  C   -0.068671
     6  N   -0.263758
     7  C    0.103670
     8  C    0.004774
     9  C    0.012859
    10  C    0.113608
    11  C   -0.050162
    12  C   -0.023635
    13  C    0.000216
    14  C    0.475186
    15  O   -0.511748
    16  O   -0.270676
    17  N   -0.338042
    18  C    0.124264
    19  C    0.019819
    20  C   -0.042984
    21  C    0.129005
    22  C   -0.044328
    23  C    0.314568
    24  O   -0.524066
    25  C   -0.044102
    26  N   -0.270289
    27  C    0.152907
    28  C    0.011830
    29  C    0.004706
    30  C    0.113560
    31  C   -0.051496
    32  C   -0.034657
    33  C   -0.059492
    34  N   -0.283985
    35  C    0.089860
    36  C    0.023818
    37  C   -0.047475
    38  C    0.119473
    39  C   -0.037113
    40  C    0.338185
    41  O   -0.506879
    42  C    0.051679
    43  C    0.485997
    44  O   -0.508708
    45  O   -0.260487
    46  C    0.066546
    47  C    0.106994
    48  C   -0.079215
    49  C   -0.004405
    50  C   -0.043689
    51  C   -0.027976
    52  C   -0.038679
    53  C   -0.028602
    54  C   -0.014478
    55  C   -0.066062
    56  C   -0.037385
    57  C   -0.038873
    58  C   -0.038117
    59  C   -0.002777
    60  C   -0.051793
    61  C   -0.031592
    62  C   -0.038338
    63  C   -0.038724
    64  C   -0.004186
    65  C   -0.060520
    66  C   -0.060752
    67  H    0.016817
    68  H    0.035902
    69  H    0.032199
    70  H    0.040253
    71  H    0.028442
    72  H    0.021843
    73  H    0.016190
    74  H    0.024269
    75  H    0.030634
    76  H    0.034059
    77  H    0.028486
    78  H    0.042865
    79  H    0.019011
    80  H    0.035165
    81  H    0.030515
    82  H    0.045510
    83  H    0.050836
    84  H    0.036447
    85  H    0.028803
    86  H    0.024570
    87  H    0.026373
    88  H    0.022669
    89  H    0.014999
    90  H    0.014609
    91  H    0.021387
    92  H    0.022315
    93  H    0.021552
    94  H    0.024318
    95  H    0.018860
    96  H    0.034165
    97  H    0.033042
    98  H    0.049908
    99  H    0.053931
   100  H    0.038979
   101  H    0.028482
   102  H    0.058320
   103  H    0.038884
   104  H    0.026861
   105  H    0.019683
   106  H    0.033773
   107  H    0.024214
   108  H    0.021581
   109  H    0.010272
   110  H    0.017772
   111  H    0.028438
   112  H    0.015337
   113  H    0.026356
   114  H    0.022587
   115  H    0.029733
   116  H    0.013537
   117  H    0.026217
   118  H    0.022657
   119  H    0.010581
   120  H    0.009605
   121  H    0.018533
   122  H    0.010269
   123  H    0.025039
   124  H    0.021626
   125  H    0.009775
   126  H    0.027059
   127  H    0.006240
   128  H    0.028337
   129  H    0.009274
   130  H    0.012852
   131  H    0.019870
   132  H    0.024108
   133  H    0.008348
   134  H    0.022591
   135  H    0.007270
   136  H    0.018728
   137  H    0.015114
   138  H    0.034343
   139  H    0.022002
   140  H    0.010392
 Sum of Mulliken charges =  -0.00000

 Dipole moment (field-independent basis, Debye):
    X=             -3.7106    Y=              4.7514    Z=             -1.8418  Tot=              6.3037
 N-N= 4.232666814789D+03 E-N= 0.000000000000D+00  KE=-9.139505769884D+03
 Leave Link  601 at Fri Apr 29 14:07:54 2022, MaxMem=  6710886400 cpu:               0.8 elap:               0.1
 (Enter /sw/apps/gaussian-16.0/g16/l9999.exe)
 1\1\GINC-BP1-COMPUTE162\SP\RZINDO CIS\STO-3G\C55H74Mg1N4O6\OF15641\29-
 Apr-2022\0\\#p ZINDO=(nstates=5)\\step_301_chromophore_4 ZINDO\\0,1\Mg
 ,0,8.77,3.338,27.83\C,0,10.115,2.013,30.665\C,0,7.221,5.753,29.702\C,0
 ,7.045,4.341,25.054\C,0,10.063,0.655,26.018\N,0,8.791,3.881,29.939\C,0
 ,9.471,3.257,30.924\C,0,9.269,3.834,32.358\C,0,8.319,5.013,32.059\C,0,
 8.105,4.938,30.491\C,0,7.032,5.137,32.887\C,0,10.636,4.224,33.073\C,0,
 10.511,5.266,34.194\C,0,11.228,4.877,35.504\O,0,12.351,5.195,35.803\O,

 Normal termination of Gaussian 16 at Fri Apr 29 14:07:54 2022.
