 Gaussian 16, Revision A.03,
 Gaussian 16:  ES64L-G16RevA.03 25-Dec-2016

 ------------------------------
 #p blyp/Def2SVP td=(nstates=5)
 ------------------------------

 --------------------------------------------------
 step_101_chromophore_10 TDDFT with blyp functional
 --------------------------------------------------
 Symbolic Z-matrix:
 Charge =  0 Multiplicity = 1

                         Standard orientation:
 ---------------------------------------------------------------------
 Center     Atomic      Atomic             Coordinates (Angstroms)
 Number     Number       Type             X           Y           Z
 ---------------------------------------------------------------------
      1         12           0        6.057145    0.336554   -0.212223
      2          6           0        3.689282   -2.145473   -0.287414
      3          6           0        3.546948    2.612814   -1.161000
      4          6           0        8.312283    2.798025    0.080326
      5          6           0        8.439559   -2.006079    0.539585
      6          7           0        3.925582    0.147895   -0.726539
      7          6           0        3.128639   -0.957951   -0.602386
      8          6           0        1.636692   -0.574714   -0.691836
      9          6           0        1.675023    0.937078   -1.084972
     10          6           0        3.142108    1.267230   -0.897732
     11          6           0        1.077358    1.261663   -2.481100
     12          6           0        0.817420   -0.679271    0.615994
     13          6           0       -0.613041   -0.283517    0.574218
     14          6           0       -1.633626   -1.351839    0.870775
     15          8           0       -1.804927   -1.905579    1.938400
     16          8           0       -2.474059   -1.568023   -0.186347
     17          7           0        5.939143    2.366681   -0.625723
     18          6           0        4.849504    3.119203   -0.964528
     19          6           0        5.252737    4.541969   -1.060646
     20          6           0        6.528744    4.663789   -0.413505
     21          6           0        7.026722    3.243468   -0.317520
     22          6           0        4.472959    5.584992   -1.747656
     23          6           0        7.321671    5.935209    0.073941
     24          8           0        8.414545    5.891741    0.570140
     25          6           0        6.621083    7.281306   -0.024000
     26          7           0        8.059076    0.380424    0.318265
     27          6           0        8.779571    1.522439    0.349872
     28          6           0       10.268258    1.180351    0.619428
     29          6           0       10.250430   -0.278953    1.055572
     30          6           0        8.876562   -0.689976    0.633063
     31          6           0       11.122021    1.509755   -0.651195
     32          6           0       10.387902   -0.495750    2.606967
     33          6           0        9.230976    0.143835    3.447062
     34          7           0        6.183667   -1.740425   -0.002509
     35          6           0        7.189614   -2.573414    0.289920
     36          6           0        6.707574   -3.908630    0.315992
     37          6           0        5.339569   -3.837147    0.194524
     38          6           0        5.063972   -2.476465   -0.046692
     39          6           0        7.569561   -5.086646    0.380839
     40          6           0        4.116292   -4.557858    0.225539
     41          8           0        3.995968   -5.733806    0.392148
     42          6           0        2.939632   -3.480396    0.001896
     43          6           0        2.029134   -3.961948   -1.155183
     44          8           0        2.303262   -4.144756   -2.291626
     45          8           0        0.761881   -3.947949   -0.574470
     46          6           0       -0.312717   -3.907913   -1.524875
     47          6           0       -3.569041   -2.530189   -0.079883
     48          6           0       -4.914205   -1.869695   -0.099160
     49          6           0       -6.090005   -2.480715    0.264610
     50          6           0       -6.365297   -3.945822    0.559462
     51          6           0       -7.248807   -1.596658    0.044551
     52          6           0       -7.808562   -1.370608   -1.442266
     53          6           0       -8.069949    0.111003   -1.807753
     54          6           0       -9.514899    0.642273   -1.483803
     55          6           0      -10.392920    0.782744   -2.730384
     56          6           0       -9.518068    1.999062   -0.656296
     57          6           0       -9.351261    1.630749    0.847229
     58          6           0      -10.544550    1.031303    1.582512
     59          6           0      -11.512435    2.066421    2.344172
     60          6           0      -10.870041    2.471320    3.619955
     61          6           0      -12.924731    1.332075    2.652857
     62          6           0      -14.213407    1.792178    1.868930
     63          6           0      -14.779639    0.754157    0.920121
     64          6           0      -15.001985    1.262663   -0.541034
     65          6           0      -16.226962    0.547476   -1.165316
     66          6           0      -13.679409    0.882557   -1.271701
     67          1           0        2.727538    3.300594   -1.380114
     68          1           0        9.072051    3.567841    0.223717
     69          1           0        9.257832   -2.717647    0.672712
     70          1           0        1.191684   -1.126081   -1.520289
     71          1           0        1.150808    1.462183   -0.286067
     72          1           0        1.846125    1.819915   -3.015838
     73          1           0        0.154835    1.837502   -2.410534
     74          1           0        0.716434    0.352677   -2.962164
     75          1           0        1.378443   -0.097403    1.346406
     76          1           0        0.835627   -1.733934    0.890066
     77          1           0       -0.937504    0.233517   -0.329064
     78          1           0       -0.718540    0.513106    1.311038
     79          1           0        3.599976    5.129287   -2.213187
     80          1           0        5.093515    6.180724   -2.416729
     81          1           0        3.984645    6.275305   -1.060414
     82          1           0        5.687620    7.288305    0.538364
     83          1           0        6.392885    7.556083   -1.053587
     84          1           0        7.211261    8.088702    0.410535
     85          1           0       10.621715    1.834233    1.416290
     86          1           0       10.924422   -0.897452    0.463003
     87          1           0       11.359485    2.568939   -0.553505
     88          1           0       10.542295    1.397280   -1.568009
     89          1           0       12.081910    0.993611   -0.660106
     90          1           0       11.263578    0.072336    2.918507
     91          1           0       10.426380   -1.534779    2.932279
     92          1           0        8.296347   -0.349952    3.178349
     93          1           0        9.104952    1.201790    3.220418
     94          1           0        9.418713    0.005251    4.511973
     95          1           0        8.575706   -4.865211    0.734021
     96          1           0        7.705688   -5.354596   -0.667613
     97          1           0        7.202872   -5.880215    1.031520
     98          1           0        2.354850   -3.657061    0.903734
     99          1           0       -1.221497   -3.445784   -1.139517
    100          1           0       -0.510439   -4.865400   -2.007250
    101          1           0       -0.079404   -3.158149   -2.280517
    102          1           0       -3.485637   -3.153949    0.810428
    103          1           0       -3.463600   -3.221659   -0.915429
    104          1           0       -4.872676   -0.812642   -0.363285
    105          1           0       -5.544846   -4.648648    0.706761
    106          1           0       -7.028771   -4.271364   -0.241411
    107          1           0       -6.957052   -3.957923    1.474679
    108          1           0       -6.998265   -0.615801    0.448998
    109          1           0       -7.999593   -2.007558    0.719409
    110          1           0       -8.789576   -1.832323   -1.555831
    111          1           0       -7.203110   -1.823538   -2.227124
    112          1           0       -7.761321    0.196781   -2.849788
    113          1           0       -7.307527    0.735982   -1.342848
    114          1           0      -10.081765   -0.094758   -0.914208
    115          1           0      -11.293272    0.168039   -2.705667
    116          1           0       -9.908424    0.398539   -3.627739
    117          1           0      -10.798162    1.773416   -2.935399
    118          1           0      -10.351258    2.684080   -0.816618
    119          1           0       -8.684693    2.643101   -0.938325
    120          1           0       -9.156788    2.610688    1.284501
    121          1           0       -8.423951    1.068705    0.956740
    122          1           0      -10.196148    0.138591    2.102135
    123          1           0      -11.174368    0.549453    0.834144
    124          1           0      -11.755275    2.869075    1.647736
    125          1           0      -11.207862    3.480670    3.854399
    126          1           0       -9.787556    2.423649    3.501005
    127          1           0      -11.081662    1.789685    4.444197
    128          1           0      -13.216484    1.441797    3.697165
    129          1           0      -12.783941    0.257208    2.547052
    130          1           0      -14.086476    2.705899    1.289520
    131          1           0      -15.089672    1.972552    2.492104
    132          1           0      -15.707668    0.493454    1.428741
    133          1           0      -14.025624   -0.031362    0.940873
    134          1           0      -15.172538    2.337255   -0.607598
    135          1           0      -16.881062   -0.025941   -0.507462
    136          1           0      -15.919036   -0.124568   -1.966778
    137          1           0      -16.892815    1.311328   -1.565678
    138          1           0      -12.801695    0.740593   -0.640245
    139          1           0      -13.493469    1.790343   -1.845656
    140          1           0      -13.865986    0.023056   -1.916152
 ---------------------------------------------------------------------

 SCF Done:  E(RB-LYP) =  -3007.38221747     A.U. after   21 cycles

 Excitation energies and oscillator strengths:

 Excited State   1:      Singlet-A      1.8069 eV  686.15 nm  f=0.1921  <S**2>=0.000
     244 -> 247        0.34647
     245 -> 247        0.19686
     245 -> 248        0.14281
     246 -> 247        0.57206
     246 <- 247       -0.12433
 This state for optimization and/or second-order correction.
 Total Energy, E(TD-HF/TD-DFT) =  -3007.31581358
 Copying the excited state density for this state as the 1-particle RhoCI density.

 Excited State   2:      Singlet-A      1.8302 eV  677.43 nm  f=0.1239  <S**2>=0.000
     244 -> 247        0.51877
     245 -> 247        0.26371
     246 -> 247       -0.38963

 Excited State   3:      Singlet-A      2.0785 eV  596.51 nm  f=0.0685  <S**2>=0.000
     244 -> 247       -0.31798
     245 -> 247        0.56118
     246 -> 248       -0.24579
     246 -> 249       -0.11374

 Excited State   4:      Singlet-A      2.2533 eV  550.23 nm  f=0.0006  <S**2>=0.000
     243 -> 247        0.69924

 Excited State   5:      Singlet-A      2.2706 eV  546.03 nm  f=0.0000  <S**2>=0.000
     242 -> 247        0.70698

 The electronic state is 1-A.
 Alpha  occ. eigenvalues --  -46.26421 -18.82379 -18.81800 -18.77582 -18.76715
 Alpha  occ. eigenvalues --  -18.76643 -18.75139 -14.03479 -14.02862 -14.01516
 Alpha  occ. eigenvalues --  -14.00110 -10.04309 -10.03755 -10.00995  -9.98517
 Alpha  occ. eigenvalues --   -9.97888  -9.96998  -9.96767  -9.96756  -9.96228
 Alpha  occ. eigenvalues --   -9.96201  -9.96103  -9.95921  -9.94504  -9.94364
 Alpha  occ. eigenvalues --   -9.94094  -9.94020  -9.93819  -9.93773  -9.93696
 Alpha  occ. eigenvalues --   -9.93687  -9.93638  -9.93563  -9.93365  -9.93364
 Alpha  occ. eigenvalues --   -9.93291  -9.93213  -9.93195  -9.93174  -9.93155
 Alpha  occ. eigenvalues --   -9.92806  -9.92764  -9.92525  -9.92442  -9.92432
 Alpha  occ. eigenvalues --   -9.92348  -9.92327  -9.92290  -9.92176  -9.92072
 Alpha  occ. eigenvalues --   -9.92069  -9.92049  -9.91754  -9.91615  -9.91584
 Alpha  occ. eigenvalues --   -9.91560  -9.91340  -9.91301  -9.91110  -9.90825
 Alpha  occ. eigenvalues --   -9.90651  -9.90624  -9.90619  -9.90350  -9.90141
 Alpha  occ. eigenvalues --   -9.89761  -2.91132  -1.71574  -1.70997  -1.70849
 Alpha  occ. eigenvalues --   -0.98329  -0.98266  -0.93490  -0.92239  -0.91541
 Alpha  occ. eigenvalues --   -0.90039  -0.87231  -0.85990  -0.85746  -0.83914
 Alpha  occ. eigenvalues --   -0.74755  -0.74112  -0.73672  -0.72709  -0.72495
 Alpha  occ. eigenvalues --   -0.71880  -0.71444  -0.71173  -0.70640  -0.70568
 Alpha  occ. eigenvalues --   -0.70213  -0.69447  -0.67865  -0.67300  -0.67157
 Alpha  occ. eigenvalues --   -0.66451  -0.65882  -0.65684  -0.65233  -0.64712
 Alpha  occ. eigenvalues --   -0.64541  -0.63002  -0.62511  -0.61868  -0.61350
 Alpha  occ. eigenvalues --   -0.60414  -0.60074  -0.59734  -0.59567  -0.58681
 Alpha  occ. eigenvalues --   -0.58450  -0.57596  -0.56809  -0.55587  -0.54770
 Alpha  occ. eigenvalues --   -0.54159  -0.53818  -0.52746  -0.52498  -0.51440
 Alpha  occ. eigenvalues --   -0.51031  -0.50832  -0.50710  -0.50507  -0.50232
 Alpha  occ. eigenvalues --   -0.49621  -0.49346  -0.48619  -0.48317  -0.46928
 Alpha  occ. eigenvalues --   -0.46416  -0.46306  -0.45740  -0.45327  -0.44825
 Alpha  occ. eigenvalues --   -0.44212  -0.43436  -0.43069  -0.42585  -0.42398
 Alpha  occ. eigenvalues --   -0.42166  -0.42045  -0.41998  -0.41628  -0.41199
 Alpha  occ. eigenvalues --   -0.40854  -0.40572  -0.40408  -0.40273  -0.40154
 Alpha  occ. eigenvalues --   -0.40005  -0.39803  -0.39794  -0.39506  -0.39397
 Alpha  occ. eigenvalues --   -0.39333  -0.38877  -0.38664  -0.38499  -0.38293
 Alpha  occ. eigenvalues --   -0.38228  -0.37936  -0.37914  -0.37682  -0.37391
 Alpha  occ. eigenvalues --   -0.37342  -0.37187  -0.37069  -0.36729  -0.36685
 Alpha  occ. eigenvalues --   -0.36380  -0.36350  -0.36152  -0.35981  -0.35487
 Alpha  occ. eigenvalues --   -0.35452  -0.35270  -0.35085  -0.34869  -0.34762
 Alpha  occ. eigenvalues --   -0.34589  -0.34539  -0.34169  -0.34104  -0.33893
 Alpha  occ. eigenvalues --   -0.33826  -0.33701  -0.33524  -0.33361  -0.33202
 Alpha  occ. eigenvalues --   -0.33069  -0.32999  -0.32627  -0.32496  -0.32325
 Alpha  occ. eigenvalues --   -0.32221  -0.32052  -0.31908  -0.31636  -0.31551
 Alpha  occ. eigenvalues --   -0.31490  -0.31335  -0.31256  -0.31195  -0.30797
 Alpha  occ. eigenvalues --   -0.30717  -0.30418  -0.30312  -0.29989  -0.29784
 Alpha  occ. eigenvalues --   -0.29659  -0.29484  -0.29321  -0.29226  -0.29077
 Alpha  occ. eigenvalues --   -0.28983  -0.28733  -0.28431  -0.28375  -0.27762
 Alpha  occ. eigenvalues --   -0.27671  -0.27463  -0.27241  -0.26967  -0.26749
 Alpha  occ. eigenvalues --   -0.26503  -0.26401  -0.26375  -0.25916  -0.25459
 Alpha  occ. eigenvalues --   -0.25080  -0.24809  -0.24262  -0.23863  -0.23712
 Alpha  occ. eigenvalues --   -0.23678  -0.22818  -0.21964  -0.21850  -0.20730
 Alpha  occ. eigenvalues --   -0.20316  -0.19768  -0.19562  -0.18147  -0.17350
 Alpha  occ. eigenvalues --   -0.15693
 Alpha virt. eigenvalues --   -0.11424  -0.06833  -0.05954  -0.04294  -0.03153
 Alpha virt. eigenvalues --   -0.02884  -0.02236  -0.01859  -0.00805   0.00036
 Alpha virt. eigenvalues --    0.01072   0.01788   0.02363   0.02577   0.02899

 Mulliken charges:
               1
     1  Mg   0.686901
     2  C    0.088024
     3  C   -0.082189
     4  C   -0.040673
     5  C   -0.075878
     6  N   -0.222734
     7  C   -0.108176
     8  C    0.045158
     9  C   -0.023887
    10  C    0.011539
    11  C    0.148490
    12  C    0.110418
    13  C    0.168807
    14  C    0.055470
    15  O   -0.174174
    16  O   -0.279195
    17  N   -0.315280
    18  C    0.171422
    19  C   -0.160403
    20  C   -0.009320
    21  C    0.114695
    22  C    0.183422
    23  C   -0.039206
    24  O   -0.128801
    25  C    0.109110
    26  N   -0.233510
    27  C    0.021154
    28  C    0.005795
    29  C    0.107642
    30  C   -0.039434
    31  C    0.124744
    32  C    0.099889
    33  C    0.029191
    34  N   -0.217247
    35  C    0.116253
    36  C   -0.174566
    37  C    0.137208
    38  C    0.044747
    39  C    0.179860
    40  C   -0.103690
    41  O   -0.093641
    42  C   -0.009984
    43  C    0.099829
    44  O   -0.119746
    45  O   -0.283396
    46  C    0.223560
    47  C    0.301173
    48  C   -0.104589
    49  C   -0.149043
    50  C    0.147861
    51  C    0.117840
    52  C    0.089272
    53  C    0.093090
    54  C   -0.043348
    55  C    0.102453
    56  C    0.085363
    57  C    0.078241
    58  C    0.088229
    59  C   -0.041507
    60  C    0.148871
    61  C    0.087799
    62  C    0.062230
    63  C    0.079744
    64  C   -0.099141
    65  C    0.105584
    66  C    0.083285
    67  H   -0.053903
    68  H   -0.048130
    69  H   -0.078449
    70  H   -0.031924
    71  H   -0.025405
    72  H    0.002997
    73  H   -0.014512
    74  H   -0.007268
    75  H   -0.024807
    76  H    0.011041
    77  H   -0.024102
    78  H   -0.004016
    79  H   -0.018580
    80  H    0.017435
    81  H   -0.010593
    82  H    0.008223
    83  H    0.002950
    84  H   -0.008999
    85  H   -0.028430
    86  H   -0.036343
    87  H   -0.005952
    88  H    0.005221
    89  H   -0.004585
    90  H   -0.022387
    91  H   -0.011713
    92  H    0.008293
    93  H    0.000125
    94  H   -0.003695
    95  H   -0.031945
    96  H    0.009196
    97  H    0.010754
    98  H    0.012341
    99  H   -0.009983
   100  H    0.014499
   101  H   -0.010769
   102  H    0.010596
   103  H   -0.000146
   104  H   -0.030649
   105  H   -0.003170
   106  H    0.006060
   107  H   -0.002824
   108  H   -0.004488
   109  H   -0.043668
   110  H   -0.031460
   111  H   -0.030759
   112  H   -0.038165
   113  H   -0.039843
   114  H   -0.025786
   115  H   -0.020454
   116  H   -0.035822
   117  H   -0.017372
   118  H   -0.035200
   119  H   -0.038510
   120  H   -0.042696
   121  H   -0.042290
   122  H   -0.039557
   123  H   -0.055259
   124  H   -0.034957
   125  H   -0.014530
   126  H   -0.022660
   127  H   -0.017288
   128  H   -0.038351
   129  H   -0.029898
   130  H   -0.037823
   131  H   -0.038162
   132  H   -0.039129
   133  H   -0.031261
   134  H   -0.024928
   135  H   -0.015815
   136  H   -0.021594
   137  H   -0.022676
   138  H    0.001731
   139  H   -0.018748
   140  H   -0.000639
 Sum of Mulliken charges =  -0.00000

 Dipole moment (field-independent basis, Debye):
    X=             -2.4633    Y=              4.8090    Z=             -1.1450  Tot=              5.5231
 Quadrupole moment (field-independent basis, Debye-Ang):
   XX=           -368.7161   YY=           -424.6573   ZZ=           -413.8738
   XY=              4.8385   XZ=              7.0418   YZ=             -6.6734

 Normal termination of Gaussian 16 at Wed Apr 27 00:01:57 2022.
