 Gaussian 16, Revision A.03,
 Gaussian 16:  ES64L-G16RevA.03 25-Dec-2016

 -----------------------------------
 #p cam-b3lyp/Def2SVP td=(nstates=5)
 -----------------------------------

 -------------------------------------------------------
 step_101_chromophore_10 TDDFT with cam-b3lyp functional
 -------------------------------------------------------
 Symbolic Z-matrix:
 Charge =  0 Multiplicity = 1

                         Standard orientation:
 ---------------------------------------------------------------------
 Center     Atomic      Atomic             Coordinates (Angstroms)
 Number     Number       Type             X           Y           Z
 ---------------------------------------------------------------------
      1         12           0        6.057145    0.336554   -0.212223
      2          6           0        3.689282   -2.145473   -0.287414
      3          6           0        3.546948    2.612814   -1.161000
      4          6           0        8.312283    2.798025    0.080326
      5          6           0        8.439559   -2.006079    0.539585
      6          7           0        3.925582    0.147895   -0.726539
      7          6           0        3.128639   -0.957951   -0.602386
      8          6           0        1.636692   -0.574714   -0.691836
      9          6           0        1.675023    0.937078   -1.084972
     10          6           0        3.142108    1.267230   -0.897732
     11          6           0        1.077358    1.261663   -2.481100
     12          6           0        0.817420   -0.679271    0.615994
     13          6           0       -0.613041   -0.283517    0.574218
     14          6           0       -1.633626   -1.351839    0.870775
     15          8           0       -1.804927   -1.905579    1.938400
     16          8           0       -2.474059   -1.568023   -0.186347
     17          7           0        5.939143    2.366681   -0.625723
     18          6           0        4.849504    3.119203   -0.964528
     19          6           0        5.252737    4.541969   -1.060646
     20          6           0        6.528744    4.663789   -0.413505
     21          6           0        7.026722    3.243468   -0.317520
     22          6           0        4.472959    5.584992   -1.747656
     23          6           0        7.321671    5.935209    0.073941
     24          8           0        8.414545    5.891741    0.570140
     25          6           0        6.621083    7.281306   -0.024000
     26          7           0        8.059076    0.380424    0.318265
     27          6           0        8.779571    1.522439    0.349872
     28          6           0       10.268258    1.180351    0.619428
     29          6           0       10.250430   -0.278953    1.055572
     30          6           0        8.876562   -0.689976    0.633063
     31          6           0       11.122021    1.509755   -0.651195
     32          6           0       10.387902   -0.495750    2.606967
     33          6           0        9.230976    0.143835    3.447062
     34          7           0        6.183667   -1.740425   -0.002509
     35          6           0        7.189614   -2.573414    0.289920
     36          6           0        6.707574   -3.908630    0.315992
     37          6           0        5.339569   -3.837147    0.194524
     38          6           0        5.063972   -2.476465   -0.046692
     39          6           0        7.569561   -5.086646    0.380839
     40          6           0        4.116292   -4.557858    0.225539
     41          8           0        3.995968   -5.733806    0.392148
     42          6           0        2.939632   -3.480396    0.001896
     43          6           0        2.029134   -3.961948   -1.155183
     44          8           0        2.303262   -4.144756   -2.291626
     45          8           0        0.761881   -3.947949   -0.574470
     46          6           0       -0.312717   -3.907913   -1.524875
     47          6           0       -3.569041   -2.530189   -0.079883
     48          6           0       -4.914205   -1.869695   -0.099160
     49          6           0       -6.090005   -2.480715    0.264610
     50          6           0       -6.365297   -3.945822    0.559462
     51          6           0       -7.248807   -1.596658    0.044551
     52          6           0       -7.808562   -1.370608   -1.442266
     53          6           0       -8.069949    0.111003   -1.807753
     54          6           0       -9.514899    0.642273   -1.483803
     55          6           0      -10.392920    0.782744   -2.730384
     56          6           0       -9.518068    1.999062   -0.656296
     57          6           0       -9.351261    1.630749    0.847229
     58          6           0      -10.544550    1.031303    1.582512
     59          6           0      -11.512435    2.066421    2.344172
     60          6           0      -10.870041    2.471320    3.619955
     61          6           0      -12.924731    1.332075    2.652857
     62          6           0      -14.213407    1.792178    1.868930
     63          6           0      -14.779639    0.754157    0.920121
     64          6           0      -15.001985    1.262663   -0.541034
     65          6           0      -16.226962    0.547476   -1.165316
     66          6           0      -13.679409    0.882557   -1.271701
     67          1           0        2.727538    3.300594   -1.380114
     68          1           0        9.072051    3.567841    0.223717
     69          1           0        9.257832   -2.717647    0.672712
     70          1           0        1.191684   -1.126081   -1.520289
     71          1           0        1.150808    1.462183   -0.286067
     72          1           0        1.846125    1.819915   -3.015838
     73          1           0        0.154835    1.837502   -2.410534
     74          1           0        0.716434    0.352677   -2.962164
     75          1           0        1.378443   -0.097403    1.346406
     76          1           0        0.835627   -1.733934    0.890066
     77          1           0       -0.937504    0.233517   -0.329064
     78          1           0       -0.718540    0.513106    1.311038
     79          1           0        3.599976    5.129287   -2.213187
     80          1           0        5.093515    6.180724   -2.416729
     81          1           0        3.984645    6.275305   -1.060414
     82          1           0        5.687620    7.288305    0.538364
     83          1           0        6.392885    7.556083   -1.053587
     84          1           0        7.211261    8.088702    0.410535
     85          1           0       10.621715    1.834233    1.416290
     86          1           0       10.924422   -0.897452    0.463003
     87          1           0       11.359485    2.568939   -0.553505
     88          1           0       10.542295    1.397280   -1.568009
     89          1           0       12.081910    0.993611   -0.660106
     90          1           0       11.263578    0.072336    2.918507
     91          1           0       10.426380   -1.534779    2.932279
     92          1           0        8.296347   -0.349952    3.178349
     93          1           0        9.104952    1.201790    3.220418
     94          1           0        9.418713    0.005251    4.511973
     95          1           0        8.575706   -4.865211    0.734021
     96          1           0        7.705688   -5.354596   -0.667613
     97          1           0        7.202872   -5.880215    1.031520
     98          1           0        2.354850   -3.657061    0.903734
     99          1           0       -1.221497   -3.445784   -1.139517
    100          1           0       -0.510439   -4.865400   -2.007250
    101          1           0       -0.079404   -3.158149   -2.280517
    102          1           0       -3.485637   -3.153949    0.810428
    103          1           0       -3.463600   -3.221659   -0.915429
    104          1           0       -4.872676   -0.812642   -0.363285
    105          1           0       -5.544846   -4.648648    0.706761
    106          1           0       -7.028771   -4.271364   -0.241411
    107          1           0       -6.957052   -3.957923    1.474679
    108          1           0       -6.998265   -0.615801    0.448998
    109          1           0       -7.999593   -2.007558    0.719409
    110          1           0       -8.789576   -1.832323   -1.555831
    111          1           0       -7.203110   -1.823538   -2.227124
    112          1           0       -7.761321    0.196781   -2.849788
    113          1           0       -7.307527    0.735982   -1.342848
    114          1           0      -10.081765   -0.094758   -0.914208
    115          1           0      -11.293272    0.168039   -2.705667
    116          1           0       -9.908424    0.398539   -3.627739
    117          1           0      -10.798162    1.773416   -2.935399
    118          1           0      -10.351258    2.684080   -0.816618
    119          1           0       -8.684693    2.643101   -0.938325
    120          1           0       -9.156788    2.610688    1.284501
    121          1           0       -8.423951    1.068705    0.956740
    122          1           0      -10.196148    0.138591    2.102135
    123          1           0      -11.174368    0.549453    0.834144
    124          1           0      -11.755275    2.869075    1.647736
    125          1           0      -11.207862    3.480670    3.854399
    126          1           0       -9.787556    2.423649    3.501005
    127          1           0      -11.081662    1.789685    4.444197
    128          1           0      -13.216484    1.441797    3.697165
    129          1           0      -12.783941    0.257208    2.547052
    130          1           0      -14.086476    2.705899    1.289520
    131          1           0      -15.089672    1.972552    2.492104
    132          1           0      -15.707668    0.493454    1.428741
    133          1           0      -14.025624   -0.031362    0.940873
    134          1           0      -15.172538    2.337255   -0.607598
    135          1           0      -16.881062   -0.025941   -0.507462
    136          1           0      -15.919036   -0.124568   -1.966778
    137          1           0      -16.892815    1.311328   -1.565678
    138          1           0      -12.801695    0.740593   -0.640245
    139          1           0      -13.493469    1.790343   -1.845656
    140          1           0      -13.865986    0.023056   -1.916152
 ---------------------------------------------------------------------

 SCF Done:  E(RCAM-B3LYP) =  -3007.18711950     A.U. after   18 cycles

 Excitation energies and oscillator strengths:

 Excited State   1:      Singlet-A      1.7403 eV  712.45 nm  f=0.3726  <S**2>=0.000
     245 -> 248       -0.16837
     246 -> 247        0.68816
     245 <- 248       -0.10239
 This state for optimization and/or second-order correction.
 Total Energy, E(TD-HF/TD-DFT) =  -3007.12316620
 Copying the excited state density for this state as the 1-particle RhoCI density.

 Excited State   2:      Singlet-A      2.2968 eV  539.81 nm  f=0.0956  <S**2>=0.000
     245 -> 247        0.62829
     246 -> 248        0.30875

 Excited State   3:      Singlet-A      3.4076 eV  363.85 nm  f=0.0218  <S**2>=0.000
     241 -> 247        0.53707
     244 -> 247       -0.40741
     246 -> 248       -0.15502

 Excited State   4:      Singlet-A      3.4954 eV  354.71 nm  f=0.2820  <S**2>=0.000
     241 -> 247       -0.18248
     244 -> 247       -0.41988
     245 -> 247       -0.19792
     246 -> 248        0.46366

 Excited State   5:      Singlet-A      3.6248 eV  342.05 nm  f=0.3425  <S**2>=0.000
     241 -> 247        0.24269
     242 -> 247        0.39298
     242 -> 249        0.13339
     242 -> 250       -0.19458
     244 -> 247        0.18611
     245 -> 247       -0.19765
     246 -> 248        0.34422

 The electronic state is 1-A.
 Alpha  occ. eigenvalues --  -46.87918 -19.25218 -19.24623 -19.20600 -19.20407
 Alpha  occ. eigenvalues --  -19.19604 -19.17900 -14.42385 -14.41764 -14.40280
 Alpha  occ. eigenvalues --  -14.38250 -10.39548 -10.39065 -10.36658 -10.33411
 Alpha  occ. eigenvalues --  -10.31890 -10.31837 -10.31684 -10.31244 -10.30964
 Alpha  occ. eigenvalues --  -10.30924 -10.30268 -10.29874 -10.29806 -10.28743
 Alpha  occ. eigenvalues --  -10.28039 -10.27896 -10.27847 -10.27804 -10.27804
 Alpha  occ. eigenvalues --  -10.27699 -10.27660 -10.27658 -10.27643 -10.27563
 Alpha  occ. eigenvalues --  -10.27417 -10.27310 -10.27013 -10.26825 -10.26755
 Alpha  occ. eigenvalues --  -10.26733 -10.26673 -10.26564 -10.26554 -10.26268
 Alpha  occ. eigenvalues --  -10.26215 -10.26166 -10.26055 -10.26024 -10.26007
 Alpha  occ. eigenvalues --  -10.25807 -10.25782 -10.25450 -10.25284 -10.25113
 Alpha  occ. eigenvalues --  -10.25085 -10.25007 -10.24848 -10.24785 -10.24463
 Alpha  occ. eigenvalues --  -10.24302 -10.24230 -10.24155 -10.23957 -10.23791
 Alpha  occ. eigenvalues --  -10.23263  -3.16540  -1.91459  -1.90988  -1.90851
 Alpha  occ. eigenvalues --   -1.16797  -1.16746  -1.12404  -1.10327  -1.09415
 Alpha  occ. eigenvalues --   -1.07880  -1.04635  -1.03645  -1.03366  -1.01799
 Alpha  occ. eigenvalues --   -0.91634  -0.90979  -0.90518  -0.89499  -0.89160
 Alpha  occ. eigenvalues --   -0.88575  -0.88230  -0.87811  -0.87482  -0.87187
 Alpha  occ. eigenvalues --   -0.86455  -0.85871  -0.84075  -0.83344  -0.83308
 Alpha  occ. eigenvalues --   -0.82473  -0.82268  -0.81672  -0.81101  -0.80555
 Alpha  occ. eigenvalues --   -0.80351  -0.78606  -0.78517  -0.77349  -0.76707
 Alpha  occ. eigenvalues --   -0.75716  -0.75443  -0.74975  -0.74852  -0.73908
 Alpha  occ. eigenvalues --   -0.73462  -0.72525  -0.71730  -0.70405  -0.69293
 Alpha  occ. eigenvalues --   -0.68713  -0.68301  -0.67417  -0.66972  -0.65630
 Alpha  occ. eigenvalues --   -0.65231  -0.64978  -0.64724  -0.64335  -0.64287
 Alpha  occ. eigenvalues --   -0.63424  -0.63291  -0.62291  -0.62103  -0.60450
 Alpha  occ. eigenvalues --   -0.60246  -0.59971  -0.59210  -0.58771  -0.58252
 Alpha  occ. eigenvalues --   -0.57542  -0.56879  -0.56314  -0.55839  -0.55432
 Alpha  occ. eigenvalues --   -0.55219  -0.55183  -0.55121  -0.54713  -0.54302
 Alpha  occ. eigenvalues --   -0.53885  -0.53678  -0.53249  -0.53084  -0.52742
 Alpha  occ. eigenvalues --   -0.52636  -0.52543  -0.52299  -0.52250  -0.52040
 Alpha  occ. eigenvalues --   -0.51763  -0.51659  -0.51168  -0.50939  -0.50874
 Alpha  occ. eigenvalues --   -0.50625  -0.50458  -0.50214  -0.50102  -0.49987
 Alpha  occ. eigenvalues --   -0.49823  -0.49685  -0.49568  -0.49163  -0.49009
 Alpha  occ. eigenvalues --   -0.48698  -0.48529  -0.48358  -0.48081  -0.47991
 Alpha  occ. eigenvalues --   -0.47516  -0.47431  -0.47181  -0.46762  -0.46665
 Alpha  occ. eigenvalues --   -0.46613  -0.46277  -0.45960  -0.45855  -0.45668
 Alpha  occ. eigenvalues --   -0.45537  -0.45358  -0.45326  -0.45141  -0.44923
 Alpha  occ. eigenvalues --   -0.44819  -0.44643  -0.44459  -0.44267  -0.44197
 Alpha  occ. eigenvalues --   -0.43826  -0.43675  -0.43573  -0.43489  -0.43069
 Alpha  occ. eigenvalues --   -0.42905  -0.42787  -0.42745  -0.42528  -0.42231
 Alpha  occ. eigenvalues --   -0.41971  -0.41770  -0.41593  -0.41317  -0.41121
 Alpha  occ. eigenvalues --   -0.40954  -0.40878  -0.40634  -0.40434  -0.40388
 Alpha  occ. eigenvalues --   -0.39884  -0.39803  -0.39425  -0.39352  -0.38817
 Alpha  occ. eigenvalues --   -0.38643  -0.38261  -0.38070  -0.37961  -0.37723
 Alpha  occ. eigenvalues --   -0.37317  -0.37223  -0.37104  -0.37070  -0.36772
 Alpha  occ. eigenvalues --   -0.36324  -0.35294  -0.34751  -0.34747  -0.34645
 Alpha  occ. eigenvalues --   -0.34183  -0.34157  -0.32916  -0.32362  -0.31329
 Alpha  occ. eigenvalues --   -0.30271  -0.29685  -0.29194  -0.29189  -0.24326
 Alpha  occ. eigenvalues --   -0.20986
 Alpha virt. eigenvalues --   -0.08444  -0.01600   0.00391   0.02871   0.03696
 Alpha virt. eigenvalues --    0.04469   0.04661   0.05164   0.05970   0.06221
 Alpha virt. eigenvalues --    0.08228   0.08334   0.08742   0.08942   0.09084

 Mulliken charges:
               1
     1  Mg   0.823239
     2  C    0.056163
     3  C   -0.101515
     4  C   -0.063644
     5  C   -0.073709
     6  N   -0.292476
     7  C   -0.065445
     8  C    0.002922
     9  C   -0.087969
    10  C    0.042688
    11  C    0.088931
    12  C    0.056573
    13  C    0.093295
    14  C    0.139075
    15  O   -0.214184
    16  O   -0.345607
    17  N   -0.403396
    18  C    0.185822
    19  C   -0.161175
    20  C   -0.067558
    21  C    0.142698
    22  C    0.117985
    23  C    0.038357
    24  O   -0.165960
    25  C    0.028990
    26  N   -0.303868
    27  C    0.040845
    28  C   -0.050919
    29  C    0.044932
    30  C   -0.029568
    31  C    0.069856
    32  C    0.048314
    33  C   -0.028043
    34  N   -0.305914
    35  C    0.110473
    36  C   -0.175310
    37  C    0.058314
    38  C    0.075922
    39  C    0.128639
    40  C   -0.001251
    41  O   -0.136497
    42  C   -0.081221
    43  C    0.188050
    44  O   -0.155904
    45  O   -0.347028
    46  C    0.188482
    47  C    0.267004
    48  C   -0.122378
    49  C   -0.167313
    50  C    0.086216
    51  C    0.055072
    52  C    0.037109
    53  C    0.041713
    54  C   -0.104171
    55  C    0.046974
    56  C    0.039470
    57  C    0.021186
    58  C    0.038767
    59  C   -0.095522
    60  C    0.086958
    61  C    0.032364
    62  C    0.009942
    63  C    0.027676
    64  C   -0.157726
    65  C    0.046792
    66  C    0.036553
    67  H   -0.018997
    68  H   -0.007579
    69  H   -0.043485
    70  H   -0.001328
    71  H    0.009580
    72  H    0.028738
    73  H    0.010477
    74  H    0.019294
    75  H    0.006974
    76  H    0.040421
    77  H    0.010660
    78  H    0.030313
    79  H    0.011671
    80  H    0.044882
    81  H    0.019604
    82  H    0.036053
    83  H    0.029828
    84  H    0.027503
    85  H    0.007314
    86  H    0.001013
    87  H    0.017146
    88  H    0.030124
    89  H    0.020990
    90  H    0.004740
    91  H    0.016440
    92  H    0.030250
    93  H    0.019001
    94  H    0.021047
    95  H   -0.008456
    96  H    0.034255
    97  H    0.035480
    98  H    0.054147
    99  H    0.007185
   100  H    0.039248
   101  H    0.010935
   102  H    0.042517
   103  H    0.024219
   104  H    0.002721
   105  H    0.021975
   106  H    0.028908
   107  H    0.021610
   108  H    0.021699
   109  H   -0.015008
   110  H   -0.003987
   111  H   -0.000374
   112  H   -0.007161
   113  H   -0.012894
   114  H    0.003697
   115  H    0.001507
   116  H   -0.009320
   117  H    0.006265
   118  H   -0.008174
   119  H   -0.008920
   120  H   -0.013502
   121  H   -0.015410
   122  H   -0.009305
   123  H   -0.033273
   124  H   -0.004629
   125  H    0.010446
   126  H    0.001326
   127  H    0.007716
   128  H   -0.007383
   129  H   -0.001834
   130  H   -0.010967
   131  H   -0.007833
   132  H   -0.010025
   133  H   -0.004459
   134  H    0.006004
   135  H    0.008901
   136  H    0.001960
   137  H    0.001596
   138  H    0.012152
   139  H    0.003764
   140  H    0.020916
 Sum of Mulliken charges =  -0.00000

 Dipole moment (field-independent basis, Debye):
    X=             -2.5934    Y=              6.5260    Z=             -1.3957  Tot=              7.1597
 Quadrupole moment (field-independent basis, Debye-Ang):
   XX=           -367.3615   YY=           -419.4065   ZZ=           -414.4741
   XY=             13.8913   XZ=              7.1413   YZ=             -7.6934

 Normal termination of Gaussian 16 at Tue Apr 26 23:01:37 2022.
