 Gaussian 16, Revision A.03,
 Gaussian 16:  ES64L-G16RevA.03 25-Dec-2016

 ---------------------------------
 #p PBE1PBE/Def2SVP td=(nstates=5)
 ---------------------------------

 -----------------------------------------------------
 step_101_chromophore_10 TDDFT with PBE1PBE functional
 -----------------------------------------------------
 Symbolic Z-matrix:
 Charge =  0 Multiplicity = 1

                         Standard orientation:
 ---------------------------------------------------------------------
 Center     Atomic      Atomic             Coordinates (Angstroms)
 Number     Number       Type             X           Y           Z
 ---------------------------------------------------------------------
      1         12           0        6.057145    0.336554   -0.212223
      2          6           0        3.689282   -2.145473   -0.287414
      3          6           0        3.546948    2.612814   -1.161000
      4          6           0        8.312283    2.798025    0.080326
      5          6           0        8.439559   -2.006079    0.539585
      6          7           0        3.925582    0.147895   -0.726539
      7          6           0        3.128639   -0.957951   -0.602386
      8          6           0        1.636692   -0.574714   -0.691836
      9          6           0        1.675023    0.937078   -1.084972
     10          6           0        3.142108    1.267230   -0.897732
     11          6           0        1.077358    1.261663   -2.481100
     12          6           0        0.817420   -0.679271    0.615994
     13          6           0       -0.613041   -0.283517    0.574218
     14          6           0       -1.633626   -1.351839    0.870775
     15          8           0       -1.804927   -1.905579    1.938400
     16          8           0       -2.474059   -1.568023   -0.186347
     17          7           0        5.939143    2.366681   -0.625723
     18          6           0        4.849504    3.119203   -0.964528
     19          6           0        5.252737    4.541969   -1.060646
     20          6           0        6.528744    4.663789   -0.413505
     21          6           0        7.026722    3.243468   -0.317520
     22          6           0        4.472959    5.584992   -1.747656
     23          6           0        7.321671    5.935209    0.073941
     24          8           0        8.414545    5.891741    0.570140
     25          6           0        6.621083    7.281306   -0.024000
     26          7           0        8.059076    0.380424    0.318265
     27          6           0        8.779571    1.522439    0.349872
     28          6           0       10.268258    1.180351    0.619428
     29          6           0       10.250430   -0.278953    1.055572
     30          6           0        8.876562   -0.689976    0.633063
     31          6           0       11.122021    1.509755   -0.651195
     32          6           0       10.387902   -0.495750    2.606967
     33          6           0        9.230976    0.143835    3.447062
     34          7           0        6.183667   -1.740425   -0.002509
     35          6           0        7.189614   -2.573414    0.289920
     36          6           0        6.707574   -3.908630    0.315992
     37          6           0        5.339569   -3.837147    0.194524
     38          6           0        5.063972   -2.476465   -0.046692
     39          6           0        7.569561   -5.086646    0.380839
     40          6           0        4.116292   -4.557858    0.225539
     41          8           0        3.995968   -5.733806    0.392148
     42          6           0        2.939632   -3.480396    0.001896
     43          6           0        2.029134   -3.961948   -1.155183
     44          8           0        2.303262   -4.144756   -2.291626
     45          8           0        0.761881   -3.947949   -0.574470
     46          6           0       -0.312717   -3.907913   -1.524875
     47          6           0       -3.569041   -2.530189   -0.079883
     48          6           0       -4.914205   -1.869695   -0.099160
     49          6           0       -6.090005   -2.480715    0.264610
     50          6           0       -6.365297   -3.945822    0.559462
     51          6           0       -7.248807   -1.596658    0.044551
     52          6           0       -7.808562   -1.370608   -1.442266
     53          6           0       -8.069949    0.111003   -1.807753
     54          6           0       -9.514899    0.642273   -1.483803
     55          6           0      -10.392920    0.782744   -2.730384
     56          6           0       -9.518068    1.999062   -0.656296
     57          6           0       -9.351261    1.630749    0.847229
     58          6           0      -10.544550    1.031303    1.582512
     59          6           0      -11.512435    2.066421    2.344172
     60          6           0      -10.870041    2.471320    3.619955
     61          6           0      -12.924731    1.332075    2.652857
     62          6           0      -14.213407    1.792178    1.868930
     63          6           0      -14.779639    0.754157    0.920121
     64          6           0      -15.001985    1.262663   -0.541034
     65          6           0      -16.226962    0.547476   -1.165316
     66          6           0      -13.679409    0.882557   -1.271701
     67          1           0        2.727538    3.300594   -1.380114
     68          1           0        9.072051    3.567841    0.223717
     69          1           0        9.257832   -2.717647    0.672712
     70          1           0        1.191684   -1.126081   -1.520289
     71          1           0        1.150808    1.462183   -0.286067
     72          1           0        1.846125    1.819915   -3.015838
     73          1           0        0.154835    1.837502   -2.410534
     74          1           0        0.716434    0.352677   -2.962164
     75          1           0        1.378443   -0.097403    1.346406
     76          1           0        0.835627   -1.733934    0.890066
     77          1           0       -0.937504    0.233517   -0.329064
     78          1           0       -0.718540    0.513106    1.311038
     79          1           0        3.599976    5.129287   -2.213187
     80          1           0        5.093515    6.180724   -2.416729
     81          1           0        3.984645    6.275305   -1.060414
     82          1           0        5.687620    7.288305    0.538364
     83          1           0        6.392885    7.556083   -1.053587
     84          1           0        7.211261    8.088702    0.410535
     85          1           0       10.621715    1.834233    1.416290
     86          1           0       10.924422   -0.897452    0.463003
     87          1           0       11.359485    2.568939   -0.553505
     88          1           0       10.542295    1.397280   -1.568009
     89          1           0       12.081910    0.993611   -0.660106
     90          1           0       11.263578    0.072336    2.918507
     91          1           0       10.426380   -1.534779    2.932279
     92          1           0        8.296347   -0.349952    3.178349
     93          1           0        9.104952    1.201790    3.220418
     94          1           0        9.418713    0.005251    4.511973
     95          1           0        8.575706   -4.865211    0.734021
     96          1           0        7.705688   -5.354596   -0.667613
     97          1           0        7.202872   -5.880215    1.031520
     98          1           0        2.354850   -3.657061    0.903734
     99          1           0       -1.221497   -3.445784   -1.139517
    100          1           0       -0.510439   -4.865400   -2.007250
    101          1           0       -0.079404   -3.158149   -2.280517
    102          1           0       -3.485637   -3.153949    0.810428
    103          1           0       -3.463600   -3.221659   -0.915429
    104          1           0       -4.872676   -0.812642   -0.363285
    105          1           0       -5.544846   -4.648648    0.706761
    106          1           0       -7.028771   -4.271364   -0.241411
    107          1           0       -6.957052   -3.957923    1.474679
    108          1           0       -6.998265   -0.615801    0.448998
    109          1           0       -7.999593   -2.007558    0.719409
    110          1           0       -8.789576   -1.832323   -1.555831
    111          1           0       -7.203110   -1.823538   -2.227124
    112          1           0       -7.761321    0.196781   -2.849788
    113          1           0       -7.307527    0.735982   -1.342848
    114          1           0      -10.081765   -0.094758   -0.914208
    115          1           0      -11.293272    0.168039   -2.705667
    116          1           0       -9.908424    0.398539   -3.627739
    117          1           0      -10.798162    1.773416   -2.935399
    118          1           0      -10.351258    2.684080   -0.816618
    119          1           0       -8.684693    2.643101   -0.938325
    120          1           0       -9.156788    2.610688    1.284501
    121          1           0       -8.423951    1.068705    0.956740
    122          1           0      -10.196148    0.138591    2.102135
    123          1           0      -11.174368    0.549453    0.834144
    124          1           0      -11.755275    2.869075    1.647736
    125          1           0      -11.207862    3.480670    3.854399
    126          1           0       -9.787556    2.423649    3.501005
    127          1           0      -11.081662    1.789685    4.444197
    128          1           0      -13.216484    1.441797    3.697165
    129          1           0      -12.783941    0.257208    2.547052
    130          1           0      -14.086476    2.705899    1.289520
    131          1           0      -15.089672    1.972552    2.492104
    132          1           0      -15.707668    0.493454    1.428741
    133          1           0      -14.025624   -0.031362    0.940873
    134          1           0      -15.172538    2.337255   -0.607598
    135          1           0      -16.881062   -0.025941   -0.507462
    136          1           0      -15.919036   -0.124568   -1.966778
    137          1           0      -16.892815    1.311328   -1.565678
    138          1           0      -12.801695    0.740593   -0.640245
    139          1           0      -13.493469    1.790343   -1.845656
    140          1           0      -13.865986    0.023056   -1.916152
 ---------------------------------------------------------------------

 SCF Done:  E(RPBE1PBE) =  -3005.37446434     A.U. after   16 cycles

 Excitation energies and oscillator strengths:

 Excited State   1:      Singlet-A      1.8643 eV  665.04 nm  f=0.3610  <S**2>=0.000
     245 -> 248       -0.16409
     246 -> 247        0.69460
     246 <- 247       -0.10837
 This state for optimization and/or second-order correction.
 Total Energy, E(TD-HF/TD-DFT) =  -3005.30595235
 Copying the excited state density for this state as the 1-particle RhoCI density.

 Excited State   2:      Singlet-A      2.2876 eV  541.98 nm  f=0.0969  <S**2>=0.000
     245 -> 247        0.64215
     246 -> 248        0.27950

 Excited State   3:      Singlet-A      2.9287 eV  423.34 nm  f=0.0008  <S**2>=0.000
     243 -> 247        0.68282

 Excited State   4:      Singlet-A      3.0944 eV  400.68 nm  f=0.0013  <S**2>=0.000
     241 -> 247       -0.30508
     242 -> 247        0.62480

 Excited State   5:      Singlet-A      3.1876 eV  388.96 nm  f=0.0009  <S**2>=0.000
     241 -> 247        0.59012
     242 -> 247        0.30788
     246 -> 248       -0.19336

 The electronic state is 1-A.
 Alpha  occ. eigenvalues --  -46.91305 -19.25941 -19.25372 -19.20866 -19.20313
 Alpha  occ. eigenvalues --  -19.19891 -19.18389 -14.41906 -14.41258 -14.39801
 Alpha  occ. eigenvalues --  -14.38056 -10.36595 -10.36179 -10.33522 -10.30801
 Alpha  occ. eigenvalues --  -10.29324 -10.29223 -10.29151 -10.28515 -10.28466
 Alpha  occ. eigenvalues --  -10.28196 -10.28171 -10.27914 -10.27044 -10.26118
 Alpha  occ. eigenvalues --  -10.25954 -10.25928 -10.25882 -10.25571 -10.25570
 Alpha  occ. eigenvalues --  -10.25540 -10.25458 -10.25319 -10.25196 -10.25138
 Alpha  occ. eigenvalues --  -10.24978 -10.24799 -10.24644 -10.24463 -10.24311
 Alpha  occ. eigenvalues --  -10.24254 -10.24220 -10.24084 -10.24061 -10.23951
 Alpha  occ. eigenvalues --  -10.23822 -10.23786 -10.23613 -10.23609 -10.23592
 Alpha  occ. eigenvalues --  -10.23504 -10.23363 -10.23054 -10.22872 -10.22692
 Alpha  occ. eigenvalues --  -10.22601 -10.22581 -10.22522 -10.22342 -10.21872
 Alpha  occ. eigenvalues --  -10.21847 -10.21634 -10.21511 -10.21361 -10.21347
 Alpha  occ. eigenvalues --  -10.21316  -3.13507  -1.86369  -1.85876  -1.85742
 Alpha  occ. eigenvalues --   -1.11638  -1.11590  -1.06886  -1.05354  -1.04347
 Alpha  occ. eigenvalues --   -1.02769  -0.99522  -0.98243  -0.98015  -0.96185
 Alpha  occ. eigenvalues --   -0.86135  -0.85180  -0.84693  -0.83573  -0.83460
 Alpha  occ. eigenvalues --   -0.82684  -0.82442  -0.82116  -0.81576  -0.81302
 Alpha  occ. eigenvalues --   -0.81004  -0.80123  -0.78267  -0.77673  -0.77548
 Alpha  occ. eigenvalues --   -0.76699  -0.76259  -0.75842  -0.75424  -0.74898
 Alpha  occ. eigenvalues --   -0.74508  -0.72929  -0.72619  -0.71674  -0.70911
 Alpha  occ. eigenvalues --   -0.70132  -0.69524  -0.69339  -0.68988  -0.68079
 Alpha  occ. eigenvalues --   -0.67829  -0.67008  -0.66114  -0.64715  -0.63636
 Alpha  occ. eigenvalues --   -0.63174  -0.62662  -0.61685  -0.61190  -0.60103
 Alpha  occ. eigenvalues --   -0.59515  -0.59383  -0.59204  -0.58965  -0.58456
 Alpha  occ. eigenvalues --   -0.57846  -0.57488  -0.56936  -0.56334  -0.54852
 Alpha  occ. eigenvalues --   -0.54596  -0.54466  -0.53808  -0.53328  -0.52727
 Alpha  occ. eigenvalues --   -0.52249  -0.51409  -0.50831  -0.50399  -0.49954
 Alpha  occ. eigenvalues --   -0.49758  -0.49685  -0.49664  -0.49328  -0.48853
 Alpha  occ. eigenvalues --   -0.48269  -0.48185  -0.47813  -0.47600  -0.47160
 Alpha  occ. eigenvalues --   -0.47070  -0.46849  -0.46742  -0.46707  -0.46648
 Alpha  occ. eigenvalues --   -0.46375  -0.46227  -0.45740  -0.45464  -0.45342
 Alpha  occ. eigenvalues --   -0.45294  -0.44987  -0.44804  -0.44644  -0.44493
 Alpha  occ. eigenvalues --   -0.44436  -0.44177  -0.44130  -0.43816  -0.43619
 Alpha  occ. eigenvalues --   -0.43276  -0.43208  -0.42998  -0.42724  -0.42658
 Alpha  occ. eigenvalues --   -0.42112  -0.41970  -0.41795  -0.41516  -0.41292
 Alpha  occ. eigenvalues --   -0.41221  -0.40951  -0.40704  -0.40494  -0.40461
 Alpha  occ. eigenvalues --   -0.40282  -0.40148  -0.39983  -0.39812  -0.39686
 Alpha  occ. eigenvalues --   -0.39611  -0.39245  -0.39116  -0.39048  -0.38815
 Alpha  occ. eigenvalues --   -0.38578  -0.38526  -0.38395  -0.38149  -0.37948
 Alpha  occ. eigenvalues --   -0.37678  -0.37655  -0.37470  -0.37446  -0.37026
 Alpha  occ. eigenvalues --   -0.36872  -0.36572  -0.36333  -0.36297  -0.35949
 Alpha  occ. eigenvalues --   -0.35768  -0.35668  -0.35545  -0.35338  -0.35160
 Alpha  occ. eigenvalues --   -0.34816  -0.34566  -0.34331  -0.34170  -0.33758
 Alpha  occ. eigenvalues --   -0.33423  -0.33066  -0.32968  -0.32864  -0.32610
 Alpha  occ. eigenvalues --   -0.32351  -0.32090  -0.32020  -0.31959  -0.31813
 Alpha  occ. eigenvalues --   -0.31308  -0.30251  -0.29942  -0.29700  -0.29647
 Alpha  occ. eigenvalues --   -0.29095  -0.28978  -0.28511  -0.27184  -0.26708
 Alpha  occ. eigenvalues --   -0.25594  -0.25208  -0.24688  -0.24553  -0.21150
 Alpha  occ. eigenvalues --   -0.18603
 Alpha virt. eigenvalues --   -0.10972  -0.05129  -0.03737  -0.01667  -0.00005
 Alpha virt. eigenvalues --    0.00090   0.00688   0.01121   0.01500   0.02650
 Alpha virt. eigenvalues --    0.03981   0.04930   0.05190   0.05505   0.05858

 Mulliken charges:
               1
     1  Mg   0.978937
     2  C    0.033925
     3  C   -0.087803
     4  C   -0.056046
     5  C   -0.071293
     6  N   -0.396302
     7  C    0.019242
     8  C   -0.075916
     9  C   -0.164108
    10  C    0.080826
    11  C    0.030549
    12  C   -0.004570
    13  C    0.019989
    14  C    0.208877
    15  O   -0.248572
    16  O   -0.378542
    17  N   -0.512653
    18  C    0.201550
    19  C   -0.191724
    20  C   -0.104311
    21  C    0.166357
    22  C    0.056545
    23  C    0.085121
    24  O   -0.205620
    25  C   -0.042434
    26  N   -0.410421
    27  C    0.069760
    28  C   -0.126383
    29  C   -0.036493
    30  C    0.011332
    31  C    0.013701
    32  C   -0.013861
    33  C   -0.101860
    34  N   -0.436657
    35  C    0.143190
    36  C   -0.208061
    37  C    0.003978
    38  C    0.132851
    39  C    0.079163
    40  C    0.113263
    41  O   -0.183485
    42  C   -0.188226
    43  C    0.280588
    44  O   -0.192828
    45  O   -0.378541
    46  C    0.124806
    47  C    0.225747
    48  C   -0.133589
    49  C   -0.201749
    50  C    0.020060
    51  C   -0.017216
    52  C   -0.024898
    53  C   -0.008599
    54  C   -0.194751
    55  C   -0.007788
    56  C   -0.012857
    57  C   -0.050419
    58  C   -0.019716
    59  C   -0.185656
    60  C    0.027685
    61  C   -0.020028
    62  C   -0.046119
    63  C   -0.031993
    64  C   -0.250493
    65  C   -0.009131
    66  C   -0.032194
    67  H    0.012014
    68  H    0.023930
    69  H   -0.010257
    70  H    0.041932
    71  H    0.048448
    72  H    0.056183
    73  H    0.037095
    74  H    0.044922
    75  H    0.040786
    76  H    0.078056
    77  H    0.043880
    78  H    0.063184
    79  H    0.038138
    80  H    0.070628
    81  H    0.046102
    82  H    0.062113
    83  H    0.055624
    84  H    0.053914
    85  H    0.043145
    86  H    0.037430
    87  H    0.045439
    88  H    0.057820
    89  H    0.048109
    90  H    0.040283
    91  H    0.048477
    92  H    0.060439
    93  H    0.049485
    94  H    0.050158
    95  H    0.020552
    96  H    0.064524
    97  H    0.063196
    98  H    0.089948
    99  H    0.041503
   100  H    0.062168
   101  H    0.032780
   102  H    0.068006
   103  H    0.049991
   104  H    0.032340
   105  H    0.047718
   106  H    0.057478
   107  H    0.049527
   108  H    0.054656
   109  H    0.018232
   110  H    0.029520
   111  H    0.031263
   112  H    0.024886
   113  H    0.018987
   114  H    0.041639
   115  H    0.029894
   116  H    0.018295
   117  H    0.032624
   118  H    0.022795
   119  H    0.023855
   120  H    0.021019
   121  H    0.022861
   122  H    0.022886
   123  H    0.005331
   124  H    0.032420
   125  H    0.039023
   126  H    0.029611
   127  H    0.034908
   128  H    0.025185
   129  H    0.029286
   130  H    0.020982
   131  H    0.025170
   132  H    0.022464
   133  H    0.028430
   134  H    0.041328
   135  H    0.035145
   136  H    0.028599
   137  H    0.029335
   138  H    0.050003
   139  H    0.031770
   140  H    0.046255
 Sum of Mulliken charges =  -0.00000

 Dipole moment (field-independent basis, Debye):
    X=             -2.5668    Y=              5.7745    Z=             -1.3108  Tot=              6.4538
 Quadrupole moment (field-independent basis, Debye-Ang):
   XX=           -360.7371   YY=           -417.2486   ZZ=           -411.9563
   XY=              8.7214   XZ=              8.4155   YZ=             -7.6927

 Normal termination of Gaussian 16 at Tue Apr 26 23:22:11 2022.
