 Gaussian 16, Revision A.03,
 Gaussian 16:  ES64L-G16RevA.03 25-Dec-2016

 --------------------------------
 #p wB97XD/Def2SVP td=(nstates=5)
 --------------------------------

 ----------------------------------------------------
 step_101_chromophore_10 TDDFT with wB97XD functional
 ----------------------------------------------------
 Symbolic Z-matrix:
 Charge =  0 Multiplicity = 1

                         Standard orientation:
 ---------------------------------------------------------------------
 Center     Atomic      Atomic             Coordinates (Angstroms)
 Number     Number       Type             X           Y           Z
 ---------------------------------------------------------------------
      1         12           0        6.057145    0.336554   -0.212223
      2          6           0        3.689282   -2.145473   -0.287414
      3          6           0        3.546948    2.612814   -1.161000
      4          6           0        8.312283    2.798025    0.080326
      5          6           0        8.439559   -2.006079    0.539585
      6          7           0        3.925582    0.147895   -0.726539
      7          6           0        3.128639   -0.957951   -0.602386
      8          6           0        1.636692   -0.574714   -0.691836
      9          6           0        1.675023    0.937078   -1.084972
     10          6           0        3.142108    1.267230   -0.897732
     11          6           0        1.077358    1.261663   -2.481100
     12          6           0        0.817420   -0.679271    0.615994
     13          6           0       -0.613041   -0.283517    0.574218
     14          6           0       -1.633626   -1.351839    0.870775
     15          8           0       -1.804927   -1.905579    1.938400
     16          8           0       -2.474059   -1.568023   -0.186347
     17          7           0        5.939143    2.366681   -0.625723
     18          6           0        4.849504    3.119203   -0.964528
     19          6           0        5.252737    4.541969   -1.060646
     20          6           0        6.528744    4.663789   -0.413505
     21          6           0        7.026722    3.243468   -0.317520
     22          6           0        4.472959    5.584992   -1.747656
     23          6           0        7.321671    5.935209    0.073941
     24          8           0        8.414545    5.891741    0.570140
     25          6           0        6.621083    7.281306   -0.024000
     26          7           0        8.059076    0.380424    0.318265
     27          6           0        8.779571    1.522439    0.349872
     28          6           0       10.268258    1.180351    0.619428
     29          6           0       10.250430   -0.278953    1.055572
     30          6           0        8.876562   -0.689976    0.633063
     31          6           0       11.122021    1.509755   -0.651195
     32          6           0       10.387902   -0.495750    2.606967
     33          6           0        9.230976    0.143835    3.447062
     34          7           0        6.183667   -1.740425   -0.002509
     35          6           0        7.189614   -2.573414    0.289920
     36          6           0        6.707574   -3.908630    0.315992
     37          6           0        5.339569   -3.837147    0.194524
     38          6           0        5.063972   -2.476465   -0.046692
     39          6           0        7.569561   -5.086646    0.380839
     40          6           0        4.116292   -4.557858    0.225539
     41          8           0        3.995968   -5.733806    0.392148
     42          6           0        2.939632   -3.480396    0.001896
     43          6           0        2.029134   -3.961948   -1.155183
     44          8           0        2.303262   -4.144756   -2.291626
     45          8           0        0.761881   -3.947949   -0.574470
     46          6           0       -0.312717   -3.907913   -1.524875
     47          6           0       -3.569041   -2.530189   -0.079883
     48          6           0       -4.914205   -1.869695   -0.099160
     49          6           0       -6.090005   -2.480715    0.264610
     50          6           0       -6.365297   -3.945822    0.559462
     51          6           0       -7.248807   -1.596658    0.044551
     52          6           0       -7.808562   -1.370608   -1.442266
     53          6           0       -8.069949    0.111003   -1.807753
     54          6           0       -9.514899    0.642273   -1.483803
     55          6           0      -10.392920    0.782744   -2.730384
     56          6           0       -9.518068    1.999062   -0.656296
     57          6           0       -9.351261    1.630749    0.847229
     58          6           0      -10.544550    1.031303    1.582512
     59          6           0      -11.512435    2.066421    2.344172
     60          6           0      -10.870041    2.471320    3.619955
     61          6           0      -12.924731    1.332075    2.652857
     62          6           0      -14.213407    1.792178    1.868930
     63          6           0      -14.779639    0.754157    0.920121
     64          6           0      -15.001985    1.262663   -0.541034
     65          6           0      -16.226962    0.547476   -1.165316
     66          6           0      -13.679409    0.882557   -1.271701
     67          1           0        2.727538    3.300594   -1.380114
     68          1           0        9.072051    3.567841    0.223717
     69          1           0        9.257832   -2.717647    0.672712
     70          1           0        1.191684   -1.126081   -1.520289
     71          1           0        1.150808    1.462183   -0.286067
     72          1           0        1.846125    1.819915   -3.015838
     73          1           0        0.154835    1.837502   -2.410534
     74          1           0        0.716434    0.352677   -2.962164
     75          1           0        1.378443   -0.097403    1.346406
     76          1           0        0.835627   -1.733934    0.890066
     77          1           0       -0.937504    0.233517   -0.329064
     78          1           0       -0.718540    0.513106    1.311038
     79          1           0        3.599976    5.129287   -2.213187
     80          1           0        5.093515    6.180724   -2.416729
     81          1           0        3.984645    6.275305   -1.060414
     82          1           0        5.687620    7.288305    0.538364
     83          1           0        6.392885    7.556083   -1.053587
     84          1           0        7.211261    8.088702    0.410535
     85          1           0       10.621715    1.834233    1.416290
     86          1           0       10.924422   -0.897452    0.463003
     87          1           0       11.359485    2.568939   -0.553505
     88          1           0       10.542295    1.397280   -1.568009
     89          1           0       12.081910    0.993611   -0.660106
     90          1           0       11.263578    0.072336    2.918507
     91          1           0       10.426380   -1.534779    2.932279
     92          1           0        8.296347   -0.349952    3.178349
     93          1           0        9.104952    1.201790    3.220418
     94          1           0        9.418713    0.005251    4.511973
     95          1           0        8.575706   -4.865211    0.734021
     96          1           0        7.705688   -5.354596   -0.667613
     97          1           0        7.202872   -5.880215    1.031520
     98          1           0        2.354850   -3.657061    0.903734
     99          1           0       -1.221497   -3.445784   -1.139517
    100          1           0       -0.510439   -4.865400   -2.007250
    101          1           0       -0.079404   -3.158149   -2.280517
    102          1           0       -3.485637   -3.153949    0.810428
    103          1           0       -3.463600   -3.221659   -0.915429
    104          1           0       -4.872676   -0.812642   -0.363285
    105          1           0       -5.544846   -4.648648    0.706761
    106          1           0       -7.028771   -4.271364   -0.241411
    107          1           0       -6.957052   -3.957923    1.474679
    108          1           0       -6.998265   -0.615801    0.448998
    109          1           0       -7.999593   -2.007558    0.719409
    110          1           0       -8.789576   -1.832323   -1.555831
    111          1           0       -7.203110   -1.823538   -2.227124
    112          1           0       -7.761321    0.196781   -2.849788
    113          1           0       -7.307527    0.735982   -1.342848
    114          1           0      -10.081765   -0.094758   -0.914208
    115          1           0      -11.293272    0.168039   -2.705667
    116          1           0       -9.908424    0.398539   -3.627739
    117          1           0      -10.798162    1.773416   -2.935399
    118          1           0      -10.351258    2.684080   -0.816618
    119          1           0       -8.684693    2.643101   -0.938325
    120          1           0       -9.156788    2.610688    1.284501
    121          1           0       -8.423951    1.068705    0.956740
    122          1           0      -10.196148    0.138591    2.102135
    123          1           0      -11.174368    0.549453    0.834144
    124          1           0      -11.755275    2.869075    1.647736
    125          1           0      -11.207862    3.480670    3.854399
    126          1           0       -9.787556    2.423649    3.501005
    127          1           0      -11.081662    1.789685    4.444197
    128          1           0      -13.216484    1.441797    3.697165
    129          1           0      -12.783941    0.257208    2.547052
    130          1           0      -14.086476    2.705899    1.289520
    131          1           0      -15.089672    1.972552    2.492104
    132          1           0      -15.707668    0.493454    1.428741
    133          1           0      -14.025624   -0.031362    0.940873
    134          1           0      -15.172538    2.337255   -0.607598
    135          1           0      -16.881062   -0.025941   -0.507462
    136          1           0      -15.919036   -0.124568   -1.966778
    137          1           0      -16.892815    1.311328   -1.565678
    138          1           0      -12.801695    0.740593   -0.640245
    139          1           0      -13.493469    1.790343   -1.845656
    140          1           0      -13.865986    0.023056   -1.916152
 ---------------------------------------------------------------------

 SCF Done:  E(RwB97XD) =  -3007.89187148     A.U. after   19 cycles

 Excitation energies and oscillator strengths:

 Excited State   1:      Singlet-A      1.7025 eV  728.26 nm  f=0.3712  <S**2>=0.000
     245 -> 248       -0.17189
     246 -> 247        0.68599
     245 <- 248       -0.10955
 This state for optimization and/or second-order correction.
 Total Energy, E(TD-HF/TD-DFT) =  -3007.82930664
 Copying the excited state density for this state as the 1-particle RhoCI density.

 Excited State   2:      Singlet-A      2.2466 eV  551.88 nm  f=0.0935  <S**2>=0.000
     245 -> 247        0.62631
     246 -> 248        0.30943

 Excited State   3:      Singlet-A      3.4175 eV  362.79 nm  f=0.0455  <S**2>=0.000
     241 -> 247        0.58011
     243 -> 247       -0.28368
     246 -> 248       -0.22125

 Excited State   4:      Singlet-A      3.5368 eV  350.56 nm  f=0.3815  <S**2>=0.000
     243 -> 247       -0.42475
     243 -> 249       -0.10199
     245 -> 247       -0.22693
     246 -> 248        0.48699

 Excited State   5:      Singlet-A      3.6756 eV  337.32 nm  f=0.3534  <S**2>=0.000
     239 -> 247       -0.10172
     240 -> 247       -0.11233
     241 -> 247        0.28038
     242 -> 247        0.20012
     242 -> 250       -0.16828
     243 -> 247        0.36438
     243 -> 249        0.10830
     243 -> 250       -0.11003
     245 -> 247       -0.19285
     246 -> 248        0.30226

 The electronic state is 1-A.
 Alpha  occ. eigenvalues --  -46.94262 -19.30463 -19.29842 -19.25490 -19.25478
 Alpha  occ. eigenvalues --  -19.24548 -19.22867 -14.46995 -14.46368 -14.44958
 Alpha  occ. eigenvalues --  -14.42787 -10.43364 -10.42894 -10.40693 -10.37344
 Alpha  occ. eigenvalues --  -10.36024 -10.35795 -10.35785 -10.35395 -10.35046
 Alpha  occ. eigenvalues --  -10.34678 -10.34238 -10.34059 -10.33814 -10.32964
 Alpha  occ. eigenvalues --  -10.32101 -10.31870 -10.31857 -10.31810 -10.31745
 Alpha  occ. eigenvalues --  -10.31724 -10.31679 -10.31662 -10.31653 -10.31616
 Alpha  occ. eigenvalues --  -10.31433 -10.31309 -10.30978 -10.30676 -10.30656
 Alpha  occ. eigenvalues --  -10.30651 -10.30650 -10.30570 -10.30545 -10.30245
 Alpha  occ. eigenvalues --  -10.30238 -10.30048 -10.30032 -10.29970 -10.29962
 Alpha  occ. eigenvalues --  -10.29782 -10.29738 -10.29410 -10.29238 -10.29039
 Alpha  occ. eigenvalues --  -10.28967 -10.28926 -10.28731 -10.28636 -10.28320
 Alpha  occ. eigenvalues --  -10.28206 -10.28055 -10.27968 -10.27801 -10.27706
 Alpha  occ. eigenvalues --  -10.27203  -3.20303  -1.93916  -1.93423  -1.93290
 Alpha  occ. eigenvalues --   -1.18959  -1.18905  -1.14685  -1.12497  -1.11599
 Alpha  occ. eigenvalues --   -1.10083  -1.06600  -1.05639  -1.05375  -1.03907
 Alpha  occ. eigenvalues --   -0.93552  -0.92819  -0.92343  -0.91255  -0.91053
 Alpha  occ. eigenvalues --   -0.90350  -0.90181  -0.89761  -0.89451  -0.88971
 Alpha  occ. eigenvalues --   -0.88332  -0.87788  -0.85935  -0.85228  -0.85192
 Alpha  occ. eigenvalues --   -0.84349  -0.84212  -0.83519  -0.83009  -0.82519
 Alpha  occ. eigenvalues --   -0.82177  -0.80560  -0.80472  -0.79248  -0.78561
 Alpha  occ. eigenvalues --   -0.77645  -0.77234  -0.76912  -0.76670  -0.75745
 Alpha  occ. eigenvalues --   -0.75400  -0.74491  -0.73690  -0.72342  -0.71181
 Alpha  occ. eigenvalues --   -0.70648  -0.70216  -0.69451  -0.68849  -0.67587
 Alpha  occ. eigenvalues --   -0.67102  -0.66965  -0.66657  -0.66335  -0.66118
 Alpha  occ. eigenvalues --   -0.65336  -0.65146  -0.64261  -0.63951  -0.62374
 Alpha  occ. eigenvalues --   -0.62280  -0.61906  -0.61195  -0.60734  -0.60192
 Alpha  occ. eigenvalues --   -0.59522  -0.58800  -0.58324  -0.57786  -0.57371
 Alpha  occ. eigenvalues --   -0.57121  -0.57107  -0.57048  -0.56627  -0.56277
 Alpha  occ. eigenvalues --   -0.55735  -0.55658  -0.55167  -0.54990  -0.54649
 Alpha  occ. eigenvalues --   -0.54555  -0.54456  -0.54154  -0.54121  -0.53959
 Alpha  occ. eigenvalues --   -0.53679  -0.53590  -0.53087  -0.52906  -0.52783
 Alpha  occ. eigenvalues --   -0.52531  -0.52328  -0.52165  -0.52049  -0.51884
 Alpha  occ. eigenvalues --   -0.51704  -0.51629  -0.51454  -0.51103  -0.50954
 Alpha  occ. eigenvalues --   -0.50630  -0.50438  -0.50258  -0.49964  -0.49886
 Alpha  occ. eigenvalues --   -0.49475  -0.49364  -0.49066  -0.48682  -0.48582
 Alpha  occ. eigenvalues --   -0.48517  -0.48162  -0.47870  -0.47703  -0.47566
 Alpha  occ. eigenvalues --   -0.47472  -0.47285  -0.47195  -0.47011  -0.46852
 Alpha  occ. eigenvalues --   -0.46725  -0.46499  -0.46422  -0.46147  -0.46142
 Alpha  occ. eigenvalues --   -0.45703  -0.45636  -0.45564  -0.45436  -0.44993
 Alpha  occ. eigenvalues --   -0.44788  -0.44687  -0.44624  -0.44376  -0.44135
 Alpha  occ. eigenvalues --   -0.43901  -0.43697  -0.43475  -0.43245  -0.43009
 Alpha  occ. eigenvalues --   -0.42834  -0.42739  -0.42555  -0.42335  -0.42253
 Alpha  occ. eigenvalues --   -0.41742  -0.41668  -0.41304  -0.41228  -0.40730
 Alpha  occ. eigenvalues --   -0.40495  -0.40097  -0.39915  -0.39882  -0.39604
 Alpha  occ. eigenvalues --   -0.39354  -0.39080  -0.39041  -0.38930  -0.38827
 Alpha  occ. eigenvalues --   -0.38293  -0.37144  -0.36726  -0.36641  -0.36601
 Alpha  occ. eigenvalues --   -0.36069  -0.36024  -0.35141  -0.34402  -0.33522
 Alpha  occ. eigenvalues --   -0.32511  -0.31654  -0.31258  -0.31242  -0.26271
 Alpha  occ. eigenvalues --   -0.22805
 Alpha virt. eigenvalues --   -0.06764   0.00314   0.02407   0.04985   0.06623
 Alpha virt. eigenvalues --    0.06730   0.07031   0.07753   0.08138   0.08837
 Alpha virt. eigenvalues --    0.10589   0.11772   0.11952   0.12127   0.12583

 Mulliken charges:
               1
     1  Mg   0.965583
     2  C    0.036836
     3  C   -0.113338
     4  C   -0.075104
     5  C   -0.081619
     6  N   -0.363670
     7  C   -0.021816
     8  C   -0.038985
     9  C   -0.139551
    10  C    0.071199
    11  C    0.042255
    12  C    0.018885
    13  C    0.031071
    14  C    0.196762
    15  O   -0.244783
    16  O   -0.374987
    17  N   -0.484961
    18  C    0.203713
    19  C   -0.177591
    20  C   -0.102224
    21  C    0.165115
    22  C    0.067028
    23  C    0.084634
    24  O   -0.198074
    25  C   -0.032344
    26  N   -0.378240
    27  C    0.061821
    28  C   -0.104461
    29  C   -0.009499
    30  C   -0.004899
    31  C    0.022603
    32  C   -0.000854
    33  C   -0.079974
    34  N   -0.395578
    35  C    0.125817
    36  C   -0.198653
    37  C    0.010242
    38  C    0.111109
    39  C    0.088331
    40  C    0.087009
    41  O   -0.176192
    42  C   -0.147916
    43  C    0.255254
    44  O   -0.187522
    45  O   -0.376293
    46  C    0.149310
    47  C    0.238258
    48  C   -0.141174
    49  C   -0.192883
    50  C    0.034786
    51  C    0.009895
    52  C   -0.009310
    53  C    0.004629
    54  C   -0.160609
    55  C    0.003634
    56  C    0.002038
    57  C   -0.026520
    58  C    0.003981
    59  C   -0.154375
    60  C    0.037388
    61  C   -0.005676
    62  C   -0.033744
    63  C   -0.009406
    64  C   -0.221335
    65  C    0.001529
    66  C   -0.004758
    67  H    0.006018
    68  H    0.019793
    69  H   -0.017986
    70  H    0.020529
    71  H    0.034973
    72  H    0.049326
    73  H    0.032308
    74  H    0.041122
    75  H    0.032673
    76  H    0.061825
    77  H    0.036061
    78  H    0.058284
    79  H    0.035053
    80  H    0.067639
    81  H    0.043012
    82  H    0.057406
    83  H    0.050753
    84  H    0.054119
    85  H    0.033676
    86  H    0.029515
    87  H    0.038961
    88  H    0.052006
    89  H    0.044045
    90  H    0.030587
    91  H    0.042094
    92  H    0.050159
    93  H    0.038160
    94  H    0.045375
    95  H    0.012736
    96  H    0.057510
    97  H    0.058588
    98  H    0.083896
    99  H    0.025207
   100  H    0.059584
   101  H    0.027359
   102  H    0.063022
   103  H    0.045508
   104  H    0.028945
   105  H    0.044305
   106  H    0.050580
   107  H    0.043381
   108  H    0.040375
   109  H    0.009452
   110  H    0.020101
   111  H    0.024617
   112  H    0.017772
   113  H    0.007601
   114  H    0.024023
   115  H    0.021743
   116  H    0.012811
   117  H    0.026636
   118  H    0.014311
   119  H    0.016055
   120  H    0.010686
   121  H    0.008245
   122  H    0.016198
   123  H   -0.016894
   124  H    0.020171
   125  H    0.034097
   126  H    0.022062
   127  H    0.029059
   128  H    0.017634
   129  H    0.019349
   130  H    0.010148
   131  H    0.018571
   132  H    0.014123
   133  H    0.014886
   134  H    0.031743
   135  H    0.029445
   136  H    0.022017
   137  H    0.023741
   138  H    0.024559
   139  H    0.025007
   140  H    0.039749
 Sum of Mulliken charges =  -0.00000

 Dipole moment (field-independent basis, Debye):
    X=             -2.6437    Y=              6.8366    Z=             -1.4555  Tot=              7.4731
 Quadrupole moment (field-independent basis, Debye-Ang):
   XX=           -361.9374   YY=           -414.7555   ZZ=           -411.6121
   XY=             15.1537   XZ=              7.5846   YZ=             -8.0197

 Normal termination of Gaussian 16 at Tue Apr 26 23:48:49 2022.
