 Gaussian 16, Revision A.03,
 Gaussian 16:  ES64L-G16RevA.03 25-Dec-2016

 --------------------
 #p ZINDO=(nstates=5)
 --------------------

 -----------------------------
 step_101_chromophore_10 ZINDO
 -----------------------------
 Symbolic Z-matrix:
 Charge =  0 Multiplicity = 1

                         Standard orientation:
 ---------------------------------------------------------------------
 Center     Atomic      Atomic             Coordinates (Angstroms)
 Number     Number       Type             X           Y           Z
 ---------------------------------------------------------------------
      1         12           0        6.057145    0.336554   -0.212223
      2          6           0        3.689282   -2.145473   -0.287414
      3          6           0        3.546948    2.612814   -1.161000
      4          6           0        8.312283    2.798025    0.080326
      5          6           0        8.439559   -2.006079    0.539585
      6          7           0        3.925582    0.147895   -0.726539
      7          6           0        3.128639   -0.957951   -0.602386
      8          6           0        1.636692   -0.574714   -0.691836
      9          6           0        1.675023    0.937078   -1.084972
     10          6           0        3.142108    1.267230   -0.897732
     11          6           0        1.077358    1.261663   -2.481100
     12          6           0        0.817420   -0.679271    0.615994
     13          6           0       -0.613041   -0.283517    0.574218
     14          6           0       -1.633626   -1.351839    0.870775
     15          8           0       -1.804927   -1.905579    1.938400
     16          8           0       -2.474059   -1.568023   -0.186347
     17          7           0        5.939143    2.366681   -0.625723
     18          6           0        4.849504    3.119203   -0.964528
     19          6           0        5.252737    4.541969   -1.060646
     20          6           0        6.528744    4.663789   -0.413505
     21          6           0        7.026722    3.243468   -0.317520
     22          6           0        4.472959    5.584992   -1.747656
     23          6           0        7.321671    5.935209    0.073941
     24          8           0        8.414545    5.891741    0.570140
     25          6           0        6.621083    7.281306   -0.024000
     26          7           0        8.059076    0.380424    0.318265
     27          6           0        8.779571    1.522439    0.349872
     28          6           0       10.268258    1.180351    0.619428
     29          6           0       10.250430   -0.278953    1.055572
     30          6           0        8.876562   -0.689976    0.633063
     31          6           0       11.122021    1.509755   -0.651195
     32          6           0       10.387902   -0.495750    2.606967
     33          6           0        9.230976    0.143835    3.447062
     34          7           0        6.183667   -1.740425   -0.002509
     35          6           0        7.189614   -2.573414    0.289920
     36          6           0        6.707574   -3.908630    0.315992
     37          6           0        5.339569   -3.837147    0.194524
     38          6           0        5.063972   -2.476465   -0.046692
     39          6           0        7.569561   -5.086646    0.380839
     40          6           0        4.116292   -4.557858    0.225539
     41          8           0        3.995968   -5.733806    0.392148
     42          6           0        2.939632   -3.480396    0.001896
     43          6           0        2.029134   -3.961948   -1.155183
     44          8           0        2.303262   -4.144756   -2.291626
     45          8           0        0.761881   -3.947949   -0.574470
     46          6           0       -0.312717   -3.907913   -1.524875
     47          6           0       -3.569041   -2.530189   -0.079883
     48          6           0       -4.914205   -1.869695   -0.099160
     49          6           0       -6.090005   -2.480715    0.264610
     50          6           0       -6.365297   -3.945822    0.559462
     51          6           0       -7.248807   -1.596658    0.044551
     52          6           0       -7.808562   -1.370608   -1.442266
     53          6           0       -8.069949    0.111003   -1.807753
     54          6           0       -9.514899    0.642273   -1.483803
     55          6           0      -10.392920    0.782744   -2.730384
     56          6           0       -9.518068    1.999062   -0.656296
     57          6           0       -9.351261    1.630749    0.847229
     58          6           0      -10.544550    1.031303    1.582512
     59          6           0      -11.512435    2.066421    2.344172
     60          6           0      -10.870041    2.471320    3.619955
     61          6           0      -12.924731    1.332075    2.652857
     62          6           0      -14.213407    1.792178    1.868930
     63          6           0      -14.779639    0.754157    0.920121
     64          6           0      -15.001985    1.262663   -0.541034
     65          6           0      -16.226962    0.547476   -1.165316
     66          6           0      -13.679409    0.882557   -1.271701
     67          1           0        2.727538    3.300594   -1.380114
     68          1           0        9.072051    3.567841    0.223717
     69          1           0        9.257832   -2.717647    0.672712
     70          1           0        1.191684   -1.126081   -1.520289
     71          1           0        1.150808    1.462183   -0.286067
     72          1           0        1.846125    1.819915   -3.015838
     73          1           0        0.154835    1.837502   -2.410534
     74          1           0        0.716434    0.352677   -2.962164
     75          1           0        1.378443   -0.097403    1.346406
     76          1           0        0.835627   -1.733934    0.890066
     77          1           0       -0.937504    0.233517   -0.329064
     78          1           0       -0.718540    0.513106    1.311038
     79          1           0        3.599976    5.129287   -2.213187
     80          1           0        5.093515    6.180724   -2.416729
     81          1           0        3.984645    6.275305   -1.060414
     82          1           0        5.687620    7.288305    0.538364
     83          1           0        6.392885    7.556083   -1.053587
     84          1           0        7.211261    8.088702    0.410535
     85          1           0       10.621715    1.834233    1.416290
     86          1           0       10.924422   -0.897452    0.463003
     87          1           0       11.359485    2.568939   -0.553505
     88          1           0       10.542295    1.397280   -1.568009
     89          1           0       12.081910    0.993611   -0.660106
     90          1           0       11.263578    0.072336    2.918507
     91          1           0       10.426380   -1.534779    2.932279
     92          1           0        8.296347   -0.349952    3.178349
     93          1           0        9.104952    1.201790    3.220418
     94          1           0        9.418713    0.005251    4.511973
     95          1           0        8.575706   -4.865211    0.734021
     96          1           0        7.705688   -5.354596   -0.667613
     97          1           0        7.202872   -5.880215    1.031520
     98          1           0        2.354850   -3.657061    0.903734
     99          1           0       -1.221497   -3.445784   -1.139517
    100          1           0       -0.510439   -4.865400   -2.007250
    101          1           0       -0.079404   -3.158149   -2.280517
    102          1           0       -3.485637   -3.153949    0.810428
    103          1           0       -3.463600   -3.221659   -0.915429
    104          1           0       -4.872676   -0.812642   -0.363285
    105          1           0       -5.544846   -4.648648    0.706761
    106          1           0       -7.028771   -4.271364   -0.241411
    107          1           0       -6.957052   -3.957923    1.474679
    108          1           0       -6.998265   -0.615801    0.448998
    109          1           0       -7.999593   -2.007558    0.719409
    110          1           0       -8.789576   -1.832323   -1.555831
    111          1           0       -7.203110   -1.823538   -2.227124
    112          1           0       -7.761321    0.196781   -2.849788
    113          1           0       -7.307527    0.735982   -1.342848
    114          1           0      -10.081765   -0.094758   -0.914208
    115          1           0      -11.293272    0.168039   -2.705667
    116          1           0       -9.908424    0.398539   -3.627739
    117          1           0      -10.798162    1.773416   -2.935399
    118          1           0      -10.351258    2.684080   -0.816618
    119          1           0       -8.684693    2.643101   -0.938325
    120          1           0       -9.156788    2.610688    1.284501
    121          1           0       -8.423951    1.068705    0.956740
    122          1           0      -10.196148    0.138591    2.102135
    123          1           0      -11.174368    0.549453    0.834144
    124          1           0      -11.755275    2.869075    1.647736
    125          1           0      -11.207862    3.480670    3.854399
    126          1           0       -9.787556    2.423649    3.501005
    127          1           0      -11.081662    1.789685    4.444197
    128          1           0      -13.216484    1.441797    3.697165
    129          1           0      -12.783941    0.257208    2.547052
    130          1           0      -14.086476    2.705899    1.289520
    131          1           0      -15.089672    1.972552    2.492104
    132          1           0      -15.707668    0.493454    1.428741
    133          1           0      -14.025624   -0.031362    0.940873
    134          1           0      -15.172538    2.337255   -0.607598
    135          1           0      -16.881062   -0.025941   -0.507462
    136          1           0      -15.919036   -0.124568   -1.966778
    137          1           0      -16.892815    1.311328   -1.565678
    138          1           0      -12.801695    0.740593   -0.640245
    139          1           0      -13.493469    1.790343   -1.845656
    140          1           0      -13.865986    0.023056   -1.916152
 ---------------------------------------------------------------------

 SCF Done:  E(RZINDO/S) =  -474.492268073     A.U. after   19 cycles

 Excitation energies and oscillator strengths:

 Excited State   1:      Singlet-A      1.2945 eV  957.76 nm  f=0.5670  <S**2>=0.000
     175 ->178         0.16688
     176 ->177         0.67076
 This state for optimization and/or second-order correction.
 Total Energy, E(CIS/TDA) =  -474.444695141
 Copying the excited state density for this state as the 1-particle RhoCI density.

 Excited State   2:      Singlet-A      1.9765 eV  627.29 nm  f=0.0092  <S**2>=0.000
     175 ->177         0.50082
     176 ->178        -0.47114

 Excited State   3:      Singlet-A      3.0174 eV  410.90 nm  f=0.8757  <S**2>=0.000
     170 ->177        -0.11335
     175 ->177         0.38231
     176 ->178         0.45361
     176 ->179         0.31025

 Excited State   4:      Singlet-A      3.0533 eV  406.06 nm  f=0.2778  <S**2>=0.000
     171 ->180        -0.13181
     175 ->177        -0.20358
     176 ->178        -0.18290
     176 ->179         0.51243
     176 ->180         0.20578

 Excited State   5:      Singlet-A      3.0845 eV  401.96 nm  f=0.0806  <S**2>=0.000
     171 ->177         0.23786
     171 ->179         0.18882
     171 ->180         0.34147
     171 ->181         0.18265
     171 ->186         0.15611
     171 ->188         0.12730
     171 ->189        -0.12772
     172 ->177        -0.11378
     172 ->180        -0.11460
     175 ->177        -0.10554
     176 ->178        -0.10238
     176 ->179         0.15506

 The electronic state is 1-A.
 Alpha  occ. eigenvalues --   -1.86207  -1.82579  -1.79915  -1.73942  -1.72153
 Alpha  occ. eigenvalues --   -1.71039  -1.64685  -1.60148  -1.60020  -1.58844
 Alpha  occ. eigenvalues --   -1.54716  -1.51625  -1.49451  -1.48170  -1.46002
 Alpha  occ. eigenvalues --   -1.45338  -1.44141  -1.40406  -1.39132  -1.37863
 Alpha  occ. eigenvalues --   -1.36603  -1.34184  -1.32589  -1.31944  -1.29316
 Alpha  occ. eigenvalues --   -1.28509  -1.25041  -1.23103  -1.22025  -1.18654
 Alpha  occ. eigenvalues --   -1.17955  -1.16353  -1.15727  -1.13987  -1.13194
 Alpha  occ. eigenvalues --   -1.12654  -1.11104  -1.10564  -1.04391  -1.03556
 Alpha  occ. eigenvalues --   -1.02352  -1.01128  -0.99079  -0.98085  -0.97066
 Alpha  occ. eigenvalues --   -0.95846  -0.95202  -0.93993  -0.93316  -0.92566
 Alpha  occ. eigenvalues --   -0.91443  -0.90453  -0.88788  -0.88314  -0.85729
 Alpha  occ. eigenvalues --   -0.85467  -0.84087  -0.83081  -0.82363  -0.80746
 Alpha  occ. eigenvalues --   -0.80473  -0.79013  -0.77699  -0.76665  -0.76606
 Alpha  occ. eigenvalues --   -0.75650  -0.75401  -0.74753  -0.73431  -0.73305
 Alpha  occ. eigenvalues --   -0.72822  -0.72568  -0.72328  -0.72054  -0.70767
 Alpha  occ. eigenvalues --   -0.70127  -0.69721  -0.69697  -0.68386  -0.67973
 Alpha  occ. eigenvalues --   -0.67749  -0.67009  -0.66716  -0.66258  -0.66017
 Alpha  occ. eigenvalues --   -0.65792  -0.64682  -0.64343  -0.63914  -0.63528
 Alpha  occ. eigenvalues --   -0.63254  -0.63087  -0.62649  -0.62409  -0.62355
 Alpha  occ. eigenvalues --   -0.61907  -0.61464  -0.60879  -0.60283  -0.60014
 Alpha  occ. eigenvalues --   -0.59769  -0.59248  -0.59062  -0.58511  -0.58399
 Alpha  occ. eigenvalues --   -0.58214  -0.58020  -0.57077  -0.56241  -0.56141
 Alpha  occ. eigenvalues --   -0.55650  -0.55591  -0.55335  -0.54981  -0.54777
 Alpha  occ. eigenvalues --   -0.54233  -0.53658  -0.53304  -0.52907  -0.52442
 Alpha  occ. eigenvalues --   -0.51918  -0.51852  -0.51507  -0.51305  -0.51123
 Alpha  occ. eigenvalues --   -0.50845  -0.50672  -0.50270  -0.50072  -0.50033
 Alpha  occ. eigenvalues --   -0.49987  -0.49843  -0.49521  -0.48978  -0.48678
 Alpha  occ. eigenvalues --   -0.48419  -0.48342  -0.47968  -0.47757  -0.47607
 Alpha  occ. eigenvalues --   -0.47317  -0.47241  -0.46982  -0.46889  -0.46644
 Alpha  occ. eigenvalues --   -0.46486  -0.46415  -0.46115  -0.45878  -0.45699
 Alpha  occ. eigenvalues --   -0.45555  -0.45034  -0.44853  -0.44780  -0.44440
 Alpha  occ. eigenvalues --   -0.43771  -0.43395  -0.42741  -0.42349  -0.42084
 Alpha  occ. eigenvalues --   -0.41929  -0.41756  -0.41252  -0.39213  -0.38735
 Alpha  occ. eigenvalues --   -0.38066  -0.37252  -0.36639  -0.34577  -0.33566
 Alpha  occ. eigenvalues --   -0.33297  -0.32642  -0.31451  -0.31426  -0.27081
 Alpha  occ. eigenvalues --   -0.21435
 Alpha virt. eigenvalues --   -0.08037  -0.02020  -0.00540   0.01864   0.02177
 Alpha virt. eigenvalues --    0.02932   0.03399   0.03603   0.04133   0.04778
 Alpha virt. eigenvalues --    0.05481   0.06467   0.06959   0.07386   0.08206

 Mulliken charges:
               1
     1  Mg   0.420541
     2  C   -0.023719
     3  C   -0.102464
     4  C   -0.069421
     5  C   -0.060134
     6  N   -0.283299
     7  C    0.097459
     8  C   -0.001654
     9  C   -0.006941
    10  C    0.158983
    11  C   -0.051332
    12  C   -0.009583
    13  C    0.014327
    14  C    0.476295
    15  O   -0.517844
    16  O   -0.282994
    17  N   -0.340472
    18  C    0.147173
    19  C    0.034513
    20  C   -0.052354
    21  C    0.137014
    22  C   -0.036753
    23  C    0.337274
    24  O   -0.490395
    25  C   -0.029418
    26  N   -0.273600
    27  C    0.164837
    28  C    0.010778
    29  C    0.012429
    30  C    0.094295
    31  C   -0.051476
    32  C   -0.026866
    33  C   -0.058000
    34  N   -0.309953
    35  C    0.075155
    36  C    0.031856
    37  C   -0.059610
    38  C    0.089787
    39  C   -0.039166
    40  C    0.327755
    41  O   -0.517945
    42  C    0.031537
    43  C    0.483223
    44  O   -0.486910
    45  O   -0.276712
    46  C    0.067559
    47  C    0.104457
    48  C   -0.089182
    49  C   -0.007502
    50  C   -0.036438
    51  C   -0.021541
    52  C   -0.031632
    53  C   -0.031125
    54  C   -0.004704
    55  C   -0.062850
    56  C   -0.036392
    57  C   -0.037885
    58  C   -0.038678
    59  C   -0.003374
    60  C   -0.045946
    61  C   -0.046289
    62  C   -0.046574
    63  C   -0.042497
    64  C   -0.013044
    65  C   -0.061318
    66  C   -0.062724
    67  H    0.029644
    68  H    0.039818
    69  H    0.009062
    70  H    0.035272
    71  H    0.026898
    72  H    0.031911
    73  H    0.016264
    74  H    0.028990
    75  H    0.028293
    76  H    0.026428
    77  H    0.028035
    78  H    0.036302
    79  H    0.025152
    80  H    0.039458
    81  H    0.029174
    82  H    0.033039
    83  H    0.035302
    84  H    0.035116
    85  H    0.028875
    86  H    0.030574
    87  H    0.016065
    88  H    0.031031
    89  H    0.024564
    90  H    0.013553
    91  H    0.030158
    92  H    0.023525
    93  H    0.021597
    94  H    0.018419
    95  H    0.011241
    96  H    0.037085
    97  H    0.035576
    98  H    0.064813
    99  H    0.034421
   100  H    0.049756
   101  H    0.026120
   102  H    0.055707
   103  H    0.038127
   104  H    0.038264
   105  H    0.031599
   106  H    0.029753
   107  H    0.025459
   108  H    0.023819
   109  H    0.013037
   110  H    0.015991
   111  H    0.023648
   112  H    0.016660
   113  H    0.014567
   114  H    0.026696
   115  H    0.010521
   116  H    0.012888
   117  H    0.019752
   118  H    0.023805
   119  H    0.012046
   120  H    0.003507
   121  H    0.022943
   122  H    0.024962
   123  H    0.004878
   124  H    0.032249
   125  H    0.017127
   126  H    0.015530
   127  H    0.022389
   128  H    0.013098
   129  H    0.021182
   130  H    0.017770
   131  H    0.016482
   132  H    0.016019
   133  H    0.026182
   134  H    0.029734
   135  H    0.019946
   136  H    0.019241
   137  H    0.010661
   138  H    0.027085
   139  H    0.009651
   140  H    0.026949
 Sum of Mulliken charges =  -0.00000

 Dipole moment (field-independent basis, Debye):
    X=             -3.8501    Y=             11.2345    Z=             -2.1298  Tot=             12.0654
 N-N= 4.313361549941D+03 E-N= 0.000000000000D+00  KE=-9.301189133235D+03
 Leave Link  601 at Wed Apr 27 00:02:05 2022, MaxMem=  6710886400 cpu:               0.8 elap:               0.0
 (Enter /sw/apps/gaussian-16.0/g16/l9999.exe)
 1\1\GINC-BP1-COMPUTE162\SP\RZINDO CIS\STO-3G\C55H74Mg1N4O6\OF15641\27-
 Apr-2022\0\\#p ZINDO=(nstates=5)\\step_101_chromophore_10 ZINDO\\0,1\M
 g,0,41.088,8.326,28.924\C,0,42.741,9.81,31.539\C,0,38.878,6.907,31.266
 \C,0,39.337,7.061,26.362\C,0,43.407,9.626,26.765\N,0,40.959,8.341,31.1
 21\C,0,41.692,9.094,31.998\C,0,41.037,9.106,33.395\C,0,39.877,8.068,33
 .259\C,0,39.858,7.821,31.764\C,0,40.023,6.808,34.155\C,0,40.397,10.44,
 33.846\C,0,39.726,10.477,35.17\C,0,40.302,11.403,36.21\O,0,40.31,12.61

 Normal termination of Gaussian 16 at Wed Apr 27 00:02:06 2022.
