 Gaussian 16, Revision A.03,
 Gaussian 16:  ES64L-G16RevA.03 25-Dec-2016

 ------------------------------
 #p blyp/Def2SVP td=(nstates=5)
 ------------------------------

 ---------------------------------------------------
 step_1201_chromophore_14 TDDFT with blyp functional
 ---------------------------------------------------
 Symbolic Z-matrix:
 Charge =  0 Multiplicity = 1

                         Standard orientation:
 ---------------------------------------------------------------------
 Center     Atomic      Atomic             Coordinates (Angstroms)
 Number     Number       Type             X           Y           Z
 ---------------------------------------------------------------------
      1         12           0        5.376133    1.073516   -0.088348
      2          6           0        4.915717   -2.373290    0.532253
      3          6           0        3.665521    0.529081   -3.201934
      4          6           0        4.913958    4.286906   -0.516043
      5          6           0        6.079529    1.433394    3.299901
      6          7           0        4.407686   -0.647457   -1.128678
      7          6           0        4.493173   -1.975036   -0.714918
      8          6           0        4.045480   -2.964795   -1.820758
      9          6           0        3.741317   -1.988513   -3.003881
     10          6           0        3.896528   -0.595991   -2.392783
     11          6           0        4.627752   -2.317263   -4.267096
     12          6           0        2.848009   -4.033878   -1.515819
     13          6           0        1.556774   -3.495619   -0.869802
     14          6           0        0.218646   -3.975173   -1.442720
     15          8           0       -0.017138   -4.841827   -2.269036
     16          8           0       -0.682458   -3.026877   -1.033155
     17          7           0        4.584429    2.253546   -1.746842
     18          6           0        4.023925    1.854151   -2.885584
     19          6           0        3.734186    2.974043   -3.740053
     20          6           0        4.019287    4.142196   -2.985429
     21          6           0        4.526485    3.592944   -1.708224
     22          6           0        3.216829    2.881001   -5.153908
     23          6           0        3.784185    5.590044   -3.411276
     24          8           0        3.350615    5.829269   -4.538204
     25          6           0        4.149524    6.719402   -2.444346
     26          7           0        5.363204    2.569841    1.209124
     27          6           0        5.252465    3.838964    0.765462
     28          6           0        5.507267    4.837446    1.914102
     29          6           0        5.579572    3.823712    3.162305
     30          6           0        5.752571    2.537871    2.537795
     31          6           0        6.838970    5.607342    1.762717
     32          6           0        4.255853    3.828685    4.042483
     33          6           0        4.338415    4.755251    5.332355
     34          7           0        5.656173   -0.181419    1.611780
     35          6           0        5.951892    0.098729    2.921840
     36          6           0        6.065087   -1.166261    3.667992
     37          6           0        5.747180   -2.149755    2.733184
     38          6           0        5.406145   -1.529292    1.569489
     39          6           0        6.247059   -1.419178    5.162289
     40          6           0        5.564224   -3.589527    2.593092
     41          8           0        5.566226   -4.485125    3.463859
     42          6           0        4.923161   -3.816488    1.169042
     43          6           0        5.817152   -4.764307    0.396365
     44          8           0        5.549749   -5.846348   -0.166029
     45          8           0        7.068218   -4.297506    0.440678
     46          6           0        8.112100   -5.176722   -0.063978
     47          6           0       -2.069639   -3.239994   -1.527497
     48          6           0       -2.917435   -2.135806   -0.998781
     49          6           0       -3.760363   -1.296256   -1.681473
     50          6           0       -4.142175   -1.564270   -3.175839
     51          6           0       -4.261931   -0.029892   -0.989701
     52          6           0       -5.786266   -0.086361   -0.659943
     53          6           0       -6.119122   -0.043768    0.822443
     54          6           0       -7.577941    0.482145    1.080660
     55          6           0       -7.573331    1.301752    2.428680
     56          6           0       -8.555326   -0.630603    1.310357
     57          6           0       -9.484864   -0.997295    0.185993
     58          6           0      -10.785012   -1.679522    0.704240
     59          6           0      -11.913152   -0.614088    1.051656
     60          6           0      -12.482523   -0.850735    2.470429
     61          6           0      -12.985990   -0.706855   -0.169389
     62          6           0      -13.760465    0.643349   -0.300721
     63          6           0      -15.295928    0.560267   -0.222419
     64          6           0      -15.945917    1.544550    0.724922
     65          6           0      -17.376340    0.972169    0.912517
     66          6           0      -16.071774    2.958096    0.113929
     67          1           0        3.204339    0.272743   -4.157909
     68          1           0        5.080688    5.351296   -0.692197
     69          1           0        6.260543    1.531236    4.372177
     70          1           0        4.916390   -3.514135   -2.178091
     71          1           0        2.683356   -2.149378   -3.211457
     72          1           0        4.903869   -1.416109   -4.813276
     73          1           0        3.974223   -2.824795   -4.976311
     74          1           0        5.582365   -2.828142   -4.139799
     75          1           0        3.274882   -4.897911   -1.007748
     76          1           0        2.654706   -4.447631   -2.505350
     77          1           0        1.637375   -2.414268   -0.977955
     78          1           0        1.633534   -3.730807    0.191549
     79          1           0        2.370010    3.556327   -5.273982
     80          1           0        2.956403    1.840509   -5.348418
     81          1           0        3.990652    3.128085   -5.879342
     82          1           0        5.230064    6.835794   -2.362254
     83          1           0        3.650552    6.582928   -1.485770
     84          1           0        3.849980    7.641036   -2.944773
     85          1           0        4.729453    5.573176    2.118759
     86          1           0        6.417350    4.127115    3.789322
     87          1           0        7.168970    5.594581    0.724504
     88          1           0        7.649181    5.336963    2.439004
     89          1           0        6.598884    6.641077    2.009651
     90          1           0        4.243707    2.823664    4.464596
     91          1           0        3.337444    4.120665    3.533717
     92          1           0        4.354346    4.272064    6.309104
     93          1           0        3.473650    5.406579    5.208536
     94          1           0        5.128403    5.489285    5.169817
     95          1           0        5.276919   -1.535176    5.645593
     96          1           0        6.776999   -0.566553    5.587453
     97          1           0        6.913787   -2.271759    5.291368
     98          1           0        3.933920   -4.232470    1.360183
     99          1           0        7.764262   -5.353114   -1.082066
    100          1           0        8.100527   -6.185167    0.348494
    101          1           0        9.124600   -4.795381    0.067981
    102          1           0       -2.407211   -4.256237   -1.326111
    103          1           0       -2.046241   -3.075572   -2.604644
    104          1           0       -2.599483   -1.871503    0.009334
    105          1           0       -4.956812   -0.899543   -3.462317
    106          1           0       -4.540436   -2.545449   -3.437051
    107          1           0       -3.391239   -1.138779   -3.841115
    108          1           0       -3.973679    0.845749   -1.571530
    109          1           0       -3.704389    0.127569   -0.066941
    110          1           0       -6.138927   -1.068629   -0.973552
    111          1           0       -6.213657    0.732507   -1.238199
    112          1           0       -5.386766    0.653033    1.230237
    113          1           0       -5.960162   -1.012882    1.294662
    114          1           0       -7.839310    1.161851    0.269607
    115          1           0       -7.248417    0.633042    3.226845
    116          1           0       -8.561237    1.741052    2.570346
    117          1           0       -6.769935    2.012263    2.239405
    118          1           0       -9.183913   -0.484391    2.188312
    119          1           0       -8.053628   -1.537209    1.651497
    120          1           0       -8.848032   -1.595159   -0.465809
    121          1           0       -9.737936   -0.138611   -0.434944
    122          1           0      -10.475662   -2.170620    1.626552
    123          1           0      -11.151643   -2.360719   -0.063991
    124          1           0      -11.466663    0.380352    1.027750
    125          1           0      -12.301690   -1.808862    2.958612
    126          1           0      -13.566436   -0.831078    2.360456
    127          1           0      -12.304584   -0.003072    3.132744
    128          1           0      -13.712213   -1.508810   -0.039514
    129          1           0      -12.463515   -0.862768   -1.113269
    130          1           0      -13.527939    1.138680   -1.243890
    131          1           0      -13.428158    1.339448    0.469202
    132          1           0      -15.555633   -0.494544   -0.127800
    133          1           0      -15.588886    0.934663   -1.202816
    134          1           0      -15.407022    1.600009    1.670772
    135          1           0      -17.519554    0.053011    0.344354
    136          1           0      -18.155520    1.697450    0.679039
    137          1           0      -17.486169    0.743980    1.972949
    138          1           0      -15.353312    3.004082   -0.704556
    139          1           0      -15.707184    3.697404    0.827170
    140          1           0      -17.091536    3.187750   -0.194402
 ---------------------------------------------------------------------

 SCF Done:  E(RB-LYP) =  -3007.38322612     A.U. after   22 cycles

 Excitation energies and oscillator strengths:

 Excited State   1:      Singlet-A      1.7898 eV  692.73 nm  f=0.3108  <S**2>=0.000
     245 -> 248       -0.15909
     246 -> 247        0.69128
     246 <- 247       -0.15905
 This state for optimization and/or second-order correction.
 Total Energy, E(TD-HF/TD-DFT) =  -3007.31745219
 Copying the excited state density for this state as the 1-particle RhoCI density.

 Excited State   2:      Singlet-A      1.8799 eV  659.52 nm  f=0.0076  <S**2>=0.000
     244 -> 247        0.69378

 Excited State   3:      Singlet-A      2.0064 eV  617.93 nm  f=0.0058  <S**2>=0.000
     243 -> 247        0.67181
     245 -> 247       -0.20195

 Excited State   4:      Singlet-A      2.0493 eV  605.01 nm  f=0.0655  <S**2>=0.000
     243 -> 247        0.21888
     245 -> 247        0.60576
     246 -> 248        0.22011

 Excited State   5:      Singlet-A      2.2377 eV  554.06 nm  f=0.0000  <S**2>=0.000
     242 -> 247        0.70709

 The electronic state is 1-A.
 Alpha  occ. eigenvalues --  -46.27784 -18.82770 -18.81642 -18.77083 -18.76630
 Alpha  occ. eigenvalues --  -18.76084 -18.75906 -14.03899 -14.03573 -14.01286
 Alpha  occ. eigenvalues --  -14.00653 -10.04381 -10.04049 -10.00483  -9.99936
 Alpha  occ. eigenvalues --   -9.98000  -9.97337  -9.97227  -9.96658  -9.96614
 Alpha  occ. eigenvalues --   -9.96324  -9.96310  -9.95438  -9.95408  -9.94813
 Alpha  occ. eigenvalues --   -9.94423  -9.94279  -9.94007  -9.93878  -9.93861
 Alpha  occ. eigenvalues --   -9.93783  -9.93685  -9.93634  -9.93507  -9.93376
 Alpha  occ. eigenvalues --   -9.93291  -9.93031  -9.92931  -9.92774  -9.92737
 Alpha  occ. eigenvalues --   -9.92709  -9.92704  -9.92667  -9.92526  -9.92507
 Alpha  occ. eigenvalues --   -9.92496  -9.92386  -9.92307  -9.92098  -9.91937
 Alpha  occ. eigenvalues --   -9.91780  -9.91603  -9.91581  -9.91537  -9.91500
 Alpha  occ. eigenvalues --   -9.91210  -9.90943  -9.90928  -9.90904  -9.90767
 Alpha  occ. eigenvalues --   -9.90698  -9.90478  -9.90404  -9.90335  -9.90251
 Alpha  occ. eigenvalues --   -9.90161  -2.92485  -1.72869  -1.72375  -1.72209
 Alpha  occ. eigenvalues --   -0.99148  -0.97411  -0.91462  -0.90074  -0.89687
 Alpha  occ. eigenvalues --   -0.88771  -0.87461  -0.86745  -0.85943  -0.85056
 Alpha  occ. eigenvalues --   -0.75514  -0.73526  -0.72843  -0.72655  -0.72277
 Alpha  occ. eigenvalues --   -0.71742  -0.71633  -0.71201  -0.70518  -0.70013
 Alpha  occ. eigenvalues --   -0.69509  -0.69130  -0.68248  -0.67803  -0.67310
 Alpha  occ. eigenvalues --   -0.66361  -0.66151  -0.65486  -0.65151  -0.64680
 Alpha  occ. eigenvalues --   -0.63997  -0.62662  -0.62089  -0.61655  -0.61034
 Alpha  occ. eigenvalues --   -0.60572  -0.60016  -0.59925  -0.59545  -0.58318
 Alpha  occ. eigenvalues --   -0.58101  -0.57617  -0.57011  -0.55284  -0.54591
 Alpha  occ. eigenvalues --   -0.53975  -0.53122  -0.52907  -0.51791  -0.51626
 Alpha  occ. eigenvalues --   -0.51128  -0.50965  -0.50787  -0.50583  -0.49926
 Alpha  occ. eigenvalues --   -0.49687  -0.49424  -0.48952  -0.48585  -0.47003
 Alpha  occ. eigenvalues --   -0.46711  -0.46356  -0.45499  -0.45113  -0.44407
 Alpha  occ. eigenvalues --   -0.44357  -0.43625  -0.43271  -0.43089  -0.42770
 Alpha  occ. eigenvalues --   -0.42124  -0.41842  -0.41647  -0.41546  -0.41166
 Alpha  occ. eigenvalues --   -0.40925  -0.40863  -0.40816  -0.40086  -0.39935
 Alpha  occ. eigenvalues --   -0.39723  -0.39704  -0.39543  -0.39173  -0.39084
 Alpha  occ. eigenvalues --   -0.38801  -0.38710  -0.38547  -0.38386  -0.38283
 Alpha  occ. eigenvalues --   -0.38169  -0.38077  -0.37681  -0.37570  -0.37530
 Alpha  occ. eigenvalues --   -0.36999  -0.36758  -0.36712  -0.36411  -0.36333
 Alpha  occ. eigenvalues --   -0.36239  -0.35966  -0.35773  -0.35583  -0.35427
 Alpha  occ. eigenvalues --   -0.35268  -0.35173  -0.35087  -0.34866  -0.34596
 Alpha  occ. eigenvalues --   -0.34386  -0.34234  -0.34201  -0.33867  -0.33741
 Alpha  occ. eigenvalues --   -0.33574  -0.33414  -0.33321  -0.33169  -0.33055
 Alpha  occ. eigenvalues --   -0.33018  -0.32745  -0.32611  -0.32430  -0.32057
 Alpha  occ. eigenvalues --   -0.31860  -0.31726  -0.31684  -0.31582  -0.31375
 Alpha  occ. eigenvalues --   -0.31205  -0.31026  -0.30971  -0.30870  -0.30549
 Alpha  occ. eigenvalues --   -0.30521  -0.30458  -0.30041  -0.29901  -0.29791
 Alpha  occ. eigenvalues --   -0.29660  -0.29494  -0.29294  -0.29104  -0.28942
 Alpha  occ. eigenvalues --   -0.28920  -0.28712  -0.28111  -0.27806  -0.27701
 Alpha  occ. eigenvalues --   -0.27633  -0.27393  -0.27390  -0.27182  -0.26811
 Alpha  occ. eigenvalues --   -0.26633  -0.26543  -0.26011  -0.25779  -0.25123
 Alpha  occ. eigenvalues --   -0.25042  -0.24457  -0.24222  -0.23953  -0.23927
 Alpha  occ. eigenvalues --   -0.23649  -0.22574  -0.22254  -0.21504  -0.20852
 Alpha  occ. eigenvalues --   -0.20503  -0.20118  -0.19206  -0.18698  -0.17792
 Alpha  occ. eigenvalues --   -0.16011
 Alpha virt. eigenvalues --   -0.11894  -0.07148  -0.06319  -0.05176  -0.04147
 Alpha virt. eigenvalues --   -0.03038  -0.02894  -0.02375  -0.02061  -0.00112
 Alpha virt. eigenvalues --    0.00518   0.01816   0.02165   0.02766   0.03237

 Mulliken charges:
               1
     1  Mg   0.720699
     2  C    0.000321
     3  C   -0.087733
     4  C   -0.058823
     5  C   -0.088947
     6  N   -0.209427
     7  C   -0.076370
     8  C   -0.002839
     9  C    0.004724
    10  C    0.007037
    11  C    0.120422
    12  C    0.090220
    13  C    0.095579
    14  C    0.103551
    15  O   -0.180179
    16  O   -0.288359
    17  N   -0.202683
    18  C    0.138199
    19  C   -0.165713
    20  C    0.048735
    21  C    0.069840
    22  C    0.203447
    23  C   -0.088150
    24  O   -0.163696
    25  C    0.133667
    26  N   -0.295004
    27  C    0.076179
    28  C   -0.014105
    29  C    0.024255
    30  C    0.092189
    31  C    0.118334
    32  C    0.072087
    33  C    0.058131
    34  N   -0.256083
    35  C    0.087591
    36  C   -0.196803
    37  C    0.106797
    38  C    0.088717
    39  C    0.172137
    40  C   -0.036104
    41  O   -0.161403
    42  C    0.062195
    43  C    0.131665
    44  O   -0.203891
    45  O   -0.251662
    46  C    0.230638
    47  C    0.327637
    48  C   -0.101450
    49  C   -0.157740
    50  C    0.134829
    51  C    0.141743
    52  C    0.070972
    53  C    0.095916
    54  C   -0.057097
    55  C    0.098571
    56  C    0.104247
    57  C    0.062683
    58  C    0.132269
    59  C   -0.094613
    60  C    0.120750
    61  C    0.102836
    62  C    0.056669
    63  C    0.087419
    64  C   -0.126416
    65  C    0.113997
    66  C    0.123595
    67  H   -0.052454
    68  H   -0.074151
    69  H   -0.060657
    70  H   -0.014840
    71  H   -0.020334
    72  H   -0.021545
    73  H   -0.002731
    74  H    0.001996
    75  H   -0.002989
    76  H   -0.019887
    77  H    0.016164
    78  H    0.010053
    79  H    0.016499
    80  H   -0.036355
    81  H    0.005190
    82  H    0.020664
    83  H    0.021215
    84  H   -0.016562
    85  H   -0.020957
    86  H   -0.033206
    87  H   -0.006548
    88  H   -0.000434
    89  H   -0.015322
    90  H   -0.017947
    91  H   -0.003615
    92  H    0.016712
    93  H   -0.021424
    94  H   -0.020542
    95  H    0.020729
    96  H   -0.023377
    97  H    0.011028
    98  H    0.007525
    99  H    0.004163
   100  H    0.012475
   101  H    0.023564
   102  H    0.009147
   103  H   -0.015357
   104  H   -0.034235
   105  H   -0.033923
   106  H    0.016234
   107  H    0.005286
   108  H   -0.024870
   109  H   -0.038361
   110  H   -0.016775
   111  H   -0.024927
   112  H   -0.044803
   113  H   -0.027499
   114  H   -0.039824
   115  H   -0.010563
   116  H   -0.002482
   117  H   -0.024963
   118  H   -0.050557
   119  H   -0.047162
   120  H   -0.045246
   121  H   -0.041181
   122  H   -0.039026
   123  H   -0.029180
   124  H   -0.024902
   125  H   -0.006205
   126  H   -0.033786
   127  H   -0.014389
   128  H   -0.026517
   129  H   -0.029448
   130  H   -0.036514
   131  H   -0.035236
   132  H   -0.025135
   133  H   -0.042920
   134  H   -0.028023
   135  H   -0.012164
   136  H   -0.023103
   137  H   -0.021396
   138  H   -0.022521
   139  H   -0.020637
   140  H   -0.005133
 Sum of Mulliken charges =  -0.00000

 Dipole moment (field-independent basis, Debye):
    X=              1.4791    Y=              5.4890    Z=              0.9482  Tot=              5.7633
 Quadrupole moment (field-independent basis, Debye-Ang):
   XX=           -359.9320   YY=           -441.7966   ZZ=           -412.3649
   XY=             21.0391   XZ=              0.3305   YZ=             31.3427

 Normal termination of Gaussian 16 at Wed Apr 27 14:51:12 2022.
