 Gaussian 16, Revision A.03,
 Gaussian 16:  ES64L-G16RevA.03 25-Dec-2016

 -----------------------------------
 #p cam-b3lyp/Def2SVP td=(nstates=5)
 -----------------------------------

 --------------------------------------------------------
 step_1201_chromophore_14 TDDFT with cam-b3lyp functional
 --------------------------------------------------------
 Symbolic Z-matrix:
 Charge =  0 Multiplicity = 1

                         Standard orientation:
 ---------------------------------------------------------------------
 Center     Atomic      Atomic             Coordinates (Angstroms)
 Number     Number       Type             X           Y           Z
 ---------------------------------------------------------------------
      1         12           0        5.376133    1.073516   -0.088348
      2          6           0        4.915717   -2.373290    0.532253
      3          6           0        3.665521    0.529081   -3.201934
      4          6           0        4.913958    4.286906   -0.516043
      5          6           0        6.079529    1.433394    3.299901
      6          7           0        4.407686   -0.647457   -1.128678
      7          6           0        4.493173   -1.975036   -0.714918
      8          6           0        4.045480   -2.964795   -1.820758
      9          6           0        3.741317   -1.988513   -3.003881
     10          6           0        3.896528   -0.595991   -2.392783
     11          6           0        4.627752   -2.317263   -4.267096
     12          6           0        2.848009   -4.033878   -1.515819
     13          6           0        1.556774   -3.495619   -0.869802
     14          6           0        0.218646   -3.975173   -1.442720
     15          8           0       -0.017138   -4.841827   -2.269036
     16          8           0       -0.682458   -3.026877   -1.033155
     17          7           0        4.584429    2.253546   -1.746842
     18          6           0        4.023925    1.854151   -2.885584
     19          6           0        3.734186    2.974043   -3.740053
     20          6           0        4.019287    4.142196   -2.985429
     21          6           0        4.526485    3.592944   -1.708224
     22          6           0        3.216829    2.881001   -5.153908
     23          6           0        3.784185    5.590044   -3.411276
     24          8           0        3.350615    5.829269   -4.538204
     25          6           0        4.149524    6.719402   -2.444346
     26          7           0        5.363204    2.569841    1.209124
     27          6           0        5.252465    3.838964    0.765462
     28          6           0        5.507267    4.837446    1.914102
     29          6           0        5.579572    3.823712    3.162305
     30          6           0        5.752571    2.537871    2.537795
     31          6           0        6.838970    5.607342    1.762717
     32          6           0        4.255853    3.828685    4.042483
     33          6           0        4.338415    4.755251    5.332355
     34          7           0        5.656173   -0.181419    1.611780
     35          6           0        5.951892    0.098729    2.921840
     36          6           0        6.065087   -1.166261    3.667992
     37          6           0        5.747180   -2.149755    2.733184
     38          6           0        5.406145   -1.529292    1.569489
     39          6           0        6.247059   -1.419178    5.162289
     40          6           0        5.564224   -3.589527    2.593092
     41          8           0        5.566226   -4.485125    3.463859
     42          6           0        4.923161   -3.816488    1.169042
     43          6           0        5.817152   -4.764307    0.396365
     44          8           0        5.549749   -5.846348   -0.166029
     45          8           0        7.068218   -4.297506    0.440678
     46          6           0        8.112100   -5.176722   -0.063978
     47          6           0       -2.069639   -3.239994   -1.527497
     48          6           0       -2.917435   -2.135806   -0.998781
     49          6           0       -3.760363   -1.296256   -1.681473
     50          6           0       -4.142175   -1.564270   -3.175839
     51          6           0       -4.261931   -0.029892   -0.989701
     52          6           0       -5.786266   -0.086361   -0.659943
     53          6           0       -6.119122   -0.043768    0.822443
     54          6           0       -7.577941    0.482145    1.080660
     55          6           0       -7.573331    1.301752    2.428680
     56          6           0       -8.555326   -0.630603    1.310357
     57          6           0       -9.484864   -0.997295    0.185993
     58          6           0      -10.785012   -1.679522    0.704240
     59          6           0      -11.913152   -0.614088    1.051656
     60          6           0      -12.482523   -0.850735    2.470429
     61          6           0      -12.985990   -0.706855   -0.169389
     62          6           0      -13.760465    0.643349   -0.300721
     63          6           0      -15.295928    0.560267   -0.222419
     64          6           0      -15.945917    1.544550    0.724922
     65          6           0      -17.376340    0.972169    0.912517
     66          6           0      -16.071774    2.958096    0.113929
     67          1           0        3.204339    0.272743   -4.157909
     68          1           0        5.080688    5.351296   -0.692197
     69          1           0        6.260543    1.531236    4.372177
     70          1           0        4.916390   -3.514135   -2.178091
     71          1           0        2.683356   -2.149378   -3.211457
     72          1           0        4.903869   -1.416109   -4.813276
     73          1           0        3.974223   -2.824795   -4.976311
     74          1           0        5.582365   -2.828142   -4.139799
     75          1           0        3.274882   -4.897911   -1.007748
     76          1           0        2.654706   -4.447631   -2.505350
     77          1           0        1.637375   -2.414268   -0.977955
     78          1           0        1.633534   -3.730807    0.191549
     79          1           0        2.370010    3.556327   -5.273982
     80          1           0        2.956403    1.840509   -5.348418
     81          1           0        3.990652    3.128085   -5.879342
     82          1           0        5.230064    6.835794   -2.362254
     83          1           0        3.650552    6.582928   -1.485770
     84          1           0        3.849980    7.641036   -2.944773
     85          1           0        4.729453    5.573176    2.118759
     86          1           0        6.417350    4.127115    3.789322
     87          1           0        7.168970    5.594581    0.724504
     88          1           0        7.649181    5.336963    2.439004
     89          1           0        6.598884    6.641077    2.009651
     90          1           0        4.243707    2.823664    4.464596
     91          1           0        3.337444    4.120665    3.533717
     92          1           0        4.354346    4.272064    6.309104
     93          1           0        3.473650    5.406579    5.208536
     94          1           0        5.128403    5.489285    5.169817
     95          1           0        5.276919   -1.535176    5.645593
     96          1           0        6.776999   -0.566553    5.587453
     97          1           0        6.913787   -2.271759    5.291368
     98          1           0        3.933920   -4.232470    1.360183
     99          1           0        7.764262   -5.353114   -1.082066
    100          1           0        8.100527   -6.185167    0.348494
    101          1           0        9.124600   -4.795381    0.067981
    102          1           0       -2.407211   -4.256237   -1.326111
    103          1           0       -2.046241   -3.075572   -2.604644
    104          1           0       -2.599483   -1.871503    0.009334
    105          1           0       -4.956812   -0.899543   -3.462317
    106          1           0       -4.540436   -2.545449   -3.437051
    107          1           0       -3.391239   -1.138779   -3.841115
    108          1           0       -3.973679    0.845749   -1.571530
    109          1           0       -3.704389    0.127569   -0.066941
    110          1           0       -6.138927   -1.068629   -0.973552
    111          1           0       -6.213657    0.732507   -1.238199
    112          1           0       -5.386766    0.653033    1.230237
    113          1           0       -5.960162   -1.012882    1.294662
    114          1           0       -7.839310    1.161851    0.269607
    115          1           0       -7.248417    0.633042    3.226845
    116          1           0       -8.561237    1.741052    2.570346
    117          1           0       -6.769935    2.012263    2.239405
    118          1           0       -9.183913   -0.484391    2.188312
    119          1           0       -8.053628   -1.537209    1.651497
    120          1           0       -8.848032   -1.595159   -0.465809
    121          1           0       -9.737936   -0.138611   -0.434944
    122          1           0      -10.475662   -2.170620    1.626552
    123          1           0      -11.151643   -2.360719   -0.063991
    124          1           0      -11.466663    0.380352    1.027750
    125          1           0      -12.301690   -1.808862    2.958612
    126          1           0      -13.566436   -0.831078    2.360456
    127          1           0      -12.304584   -0.003072    3.132744
    128          1           0      -13.712213   -1.508810   -0.039514
    129          1           0      -12.463515   -0.862768   -1.113269
    130          1           0      -13.527939    1.138680   -1.243890
    131          1           0      -13.428158    1.339448    0.469202
    132          1           0      -15.555633   -0.494544   -0.127800
    133          1           0      -15.588886    0.934663   -1.202816
    134          1           0      -15.407022    1.600009    1.670772
    135          1           0      -17.519554    0.053011    0.344354
    136          1           0      -18.155520    1.697450    0.679039
    137          1           0      -17.486169    0.743980    1.972949
    138          1           0      -15.353312    3.004082   -0.704556
    139          1           0      -15.707184    3.697404    0.827170
    140          1           0      -17.091536    3.187750   -0.194402
 ---------------------------------------------------------------------

 SCF Done:  E(RCAM-B3LYP) =  -3007.17628310     A.U. after   17 cycles

 Excitation energies and oscillator strengths:

 Excited State   1:      Singlet-A      1.7025 eV  728.26 nm  f=0.3918  <S**2>=0.000
     245 -> 248        0.16017
     246 -> 247        0.68979
     245 <- 248        0.10082
 This state for optimization and/or second-order correction.
 Total Energy, E(TD-HF/TD-DFT) =  -3007.11371830
 Copying the excited state density for this state as the 1-particle RhoCI density.

 Excited State   2:      Singlet-A      2.2765 eV  544.63 nm  f=0.0982  <S**2>=0.000
     245 -> 247        0.63335
     246 -> 248       -0.29442

 Excited State   3:      Singlet-A      3.3259 eV  372.79 nm  f=0.0010  <S**2>=0.000
     242 -> 247       -0.19048
     244 -> 247        0.64999

 Excited State   4:      Singlet-A      3.4304 eV  361.43 nm  f=0.0328  <S**2>=0.000
     242 -> 247        0.60723
     244 -> 247        0.13835
     246 -> 248        0.27322

 Excited State   5:      Singlet-A      3.5481 eV  349.44 nm  f=0.1846  <S**2>=0.000
     241 -> 247        0.43696
     241 -> 249        0.25166
     241 -> 250       -0.12049
     241 -> 251       -0.18107
     242 -> 247        0.14608
     245 -> 247       -0.15259
     246 -> 248       -0.33834

 The electronic state is 1-A.
 Alpha  occ. eigenvalues --  -46.89399 -19.25613 -19.24473 -19.20035 -19.19628
 Alpha  occ. eigenvalues --  -19.19627 -19.18936 -14.42950 -14.42340 -14.39978
 Alpha  occ. eigenvalues --  -14.38856 -10.39778 -10.39323 -10.36015 -10.35178
 Alpha  occ. eigenvalues --  -10.31984 -10.31879 -10.31403 -10.31403 -10.31258
 Alpha  occ. eigenvalues --  -10.30956 -10.30384 -10.30144 -10.29233 -10.29228
 Alpha  occ. eigenvalues --  -10.28595 -10.28439 -10.28304 -10.28192 -10.27989
 Alpha  occ. eigenvalues --  -10.27971 -10.27965 -10.27592 -10.27476 -10.27451
 Alpha  occ. eigenvalues --  -10.27440 -10.27312 -10.27083 -10.26920 -10.26836
 Alpha  occ. eigenvalues --  -10.26572 -10.26549 -10.26521 -10.26358 -10.26348
 Alpha  occ. eigenvalues --  -10.26302 -10.26052 -10.25954 -10.25864 -10.25824
 Alpha  occ. eigenvalues --  -10.25546 -10.25469 -10.25269 -10.25264 -10.25146
 Alpha  occ. eigenvalues --  -10.24858 -10.24592 -10.24516 -10.24513 -10.24445
 Alpha  occ. eigenvalues --  -10.24349 -10.24086 -10.24064 -10.23970 -10.23830
 Alpha  occ. eigenvalues --  -10.23751  -3.17999  -1.92859  -1.92468  -1.92295
 Alpha  occ. eigenvalues --   -1.17591  -1.15838  -1.10157  -1.08259  -1.07498
 Alpha  occ. eigenvalues --   -1.06622  -1.05455  -1.04408  -1.03474  -1.02550
 Alpha  occ. eigenvalues --   -0.92503  -0.90372  -0.89537  -0.89440  -0.89012
 Alpha  occ. eigenvalues --   -0.88442  -0.88372  -0.87818  -0.87075  -0.86955
 Alpha  occ. eigenvalues --   -0.85863  -0.85463  -0.84485  -0.83953  -0.83512
 Alpha  occ. eigenvalues --   -0.82410  -0.82325  -0.81366  -0.81133  -0.80516
 Alpha  occ. eigenvalues --   -0.79742  -0.78136  -0.77870  -0.77302  -0.76438
 Alpha  occ. eigenvalues --   -0.75925  -0.75372  -0.75271  -0.74843  -0.73490
 Alpha  occ. eigenvalues --   -0.73138  -0.72576  -0.71957  -0.70146  -0.69062
 Alpha  occ. eigenvalues --   -0.68518  -0.67810  -0.67523  -0.65924  -0.65744
 Alpha  occ. eigenvalues --   -0.65193  -0.65067  -0.64862  -0.64704  -0.63936
 Alpha  occ. eigenvalues --   -0.63410  -0.63397  -0.62749  -0.62498  -0.60705
 Alpha  occ. eigenvalues --   -0.60243  -0.59971  -0.59029  -0.58608  -0.57974
 Alpha  occ. eigenvalues --   -0.57797  -0.56868  -0.56643  -0.56417  -0.55975
 Alpha  occ. eigenvalues --   -0.55154  -0.54888  -0.54663  -0.54333  -0.53858
 Alpha  occ. eigenvalues --   -0.53790  -0.53577  -0.53496  -0.53072  -0.52889
 Alpha  occ. eigenvalues --   -0.52751  -0.52542  -0.52434  -0.51805  -0.51607
 Alpha  occ. eigenvalues --   -0.51282  -0.51180  -0.50851  -0.50784  -0.50610
 Alpha  occ. eigenvalues --   -0.50497  -0.50385  -0.50240  -0.49795  -0.49650
 Alpha  occ. eigenvalues --   -0.49619  -0.49200  -0.48924  -0.48819  -0.48749
 Alpha  occ. eigenvalues --   -0.48389  -0.48236  -0.48137  -0.47974  -0.47421
 Alpha  occ. eigenvalues --   -0.47299  -0.47257  -0.47073  -0.46762  -0.46702
 Alpha  occ. eigenvalues --   -0.46431  -0.46220  -0.45995  -0.45760  -0.45483
 Alpha  occ. eigenvalues --   -0.45309  -0.45088  -0.44989  -0.44918  -0.44689
 Alpha  occ. eigenvalues --   -0.44632  -0.44452  -0.44229  -0.44020  -0.43782
 Alpha  occ. eigenvalues --   -0.43735  -0.43433  -0.43349  -0.43133  -0.42847
 Alpha  occ. eigenvalues --   -0.42772  -0.42624  -0.42520  -0.42261  -0.42088
 Alpha  occ. eigenvalues --   -0.41944  -0.41801  -0.41730  -0.41329  -0.41092
 Alpha  occ. eigenvalues --   -0.40766  -0.40632  -0.40247  -0.40230  -0.40139
 Alpha  occ. eigenvalues --   -0.39906  -0.39807  -0.39044  -0.38837  -0.38743
 Alpha  occ. eigenvalues --   -0.38571  -0.38267  -0.38240  -0.38031  -0.38007
 Alpha  occ. eigenvalues --   -0.37292  -0.37205  -0.37054  -0.36613  -0.36391
 Alpha  occ. eigenvalues --   -0.36274  -0.35060  -0.34918  -0.34443  -0.34349
 Alpha  occ. eigenvalues --   -0.34304  -0.33977  -0.33542  -0.31792  -0.31395
 Alpha  occ. eigenvalues --   -0.30858  -0.30581  -0.29726  -0.29380  -0.24730
 Alpha  occ. eigenvalues --   -0.21300
 Alpha virt. eigenvalues --   -0.09032  -0.01840   0.00119   0.00942   0.01755
 Alpha virt. eigenvalues --    0.04715   0.04808   0.04917   0.05658   0.07016
 Alpha virt. eigenvalues --    0.07469   0.08156   0.08567   0.08891   0.09455

 Mulliken charges:
               1
     1  Mg   0.850485
     2  C   -0.027332
     3  C   -0.099008
     4  C   -0.084188
     5  C   -0.091116
     6  N   -0.276044
     7  C   -0.041037
     8  C   -0.042500
     9  C   -0.054849
    10  C    0.031660
    11  C    0.060378
    12  C    0.037830
    13  C    0.027298
    14  C    0.184529
    15  O   -0.222290
    16  O   -0.352524
    17  N   -0.291717
    18  C    0.145690
    19  C   -0.165797
    20  C   -0.023124
    21  C    0.105740
    22  C    0.151797
    23  C   -0.005784
    24  O   -0.202659
    25  C    0.046374
    26  N   -0.371380
    27  C    0.099002
    28  C   -0.066772
    29  C   -0.033963
    30  C    0.104901
    31  C    0.061204
    32  C    0.019474
    33  C   -0.001518
    34  N   -0.340958
    35  C    0.086556
    36  C   -0.195804
    37  C    0.027025
    38  C    0.121115
    39  C    0.125455
    40  C    0.065121
    41  O   -0.199408
    42  C   -0.009202
    43  C    0.215111
    44  O   -0.245759
    45  O   -0.312376
    46  C    0.187381
    47  C    0.292375
    48  C   -0.118697
    49  C   -0.181347
    50  C    0.068286
    51  C    0.082894
    52  C    0.017061
    53  C    0.044174
    54  C   -0.120437
    55  C    0.043669
    56  C    0.049970
    57  C    0.015498
    58  C    0.073527
    59  C   -0.147250
    60  C    0.061032
    61  C    0.050183
    62  C    0.007669
    63  C    0.026046
    64  C   -0.182491
    65  C    0.055759
    66  C    0.063579
    67  H   -0.015443
    68  H   -0.040794
    69  H   -0.026281
    70  H    0.018461
    71  H    0.014032
    72  H    0.004079
    73  H    0.022586
    74  H    0.027914
    75  H    0.028007
    76  H    0.013317
    77  H    0.046883
    78  H    0.040266
    79  H    0.045471
    80  H   -0.009557
    81  H    0.034436
    82  H    0.048951
    83  H    0.049381
    84  H    0.021725
    85  H    0.013485
    86  H    0.002581
    87  H    0.017262
    88  H    0.025049
    89  H    0.009210
    90  H    0.012265
    91  H    0.022632
    92  H    0.039121
    93  H    0.001888
    94  H    0.001008
    95  H    0.044177
    96  H   -0.000879
    97  H    0.036013
    98  H    0.046675
    99  H    0.028494
   100  H    0.036564
   101  H    0.047789
   102  H    0.037850
   103  H    0.014167
   104  H    0.000396
   105  H   -0.006709
   106  H    0.040775
   107  H    0.030836
   108  H    0.005367
   109  H   -0.006496
   110  H    0.008974
   111  H    0.003083
   112  H   -0.016222
   113  H    0.000839
   114  H   -0.007364
   115  H    0.012344
   116  H    0.020680
   117  H   -0.000445
   118  H   -0.021565
   119  H   -0.016998
   120  H   -0.016658
   121  H   -0.014960
   122  H   -0.010679
   123  H    0.000593
   124  H    0.004622
   125  H    0.018656
   126  H   -0.011072
   127  H    0.009693
   128  H    0.000868
   129  H   -0.000393
   130  H   -0.007955
   131  H   -0.008881
   132  H    0.002300
   133  H   -0.011798
   134  H    0.002052
   135  H    0.012034
   136  H    0.000676
   137  H    0.003046
   138  H    0.000103
   139  H    0.004533
   140  H    0.018427
 Sum of Mulliken charges =  -0.00000

 Dipole moment (field-independent basis, Debye):
    X=              1.4750    Y=              6.3094    Z=              0.1734  Tot=              6.4819
 Quadrupole moment (field-independent basis, Debye-Ang):
   XX=           -360.7137   YY=           -438.0921   ZZ=           -410.7803
   XY=             24.5053   XZ=             -3.0456   YZ=             30.7390

 Normal termination of Gaussian 16 at Wed Apr 27 13:35:43 2022.
