 Gaussian 16, Revision A.03,
 Gaussian 16:  ES64L-G16RevA.03 25-Dec-2016

 ---------------------------------
 #p PBE1PBE/Def2SVP td=(nstates=5)
 ---------------------------------

 ------------------------------------------------------
 step_1201_chromophore_14 TDDFT with PBE1PBE functional
 ------------------------------------------------------
 Symbolic Z-matrix:
 Charge =  0 Multiplicity = 1

                         Standard orientation:
 ---------------------------------------------------------------------
 Center     Atomic      Atomic             Coordinates (Angstroms)
 Number     Number       Type             X           Y           Z
 ---------------------------------------------------------------------
      1         12           0        5.376133    1.073516   -0.088348
      2          6           0        4.915717   -2.373290    0.532253
      3          6           0        3.665521    0.529081   -3.201934
      4          6           0        4.913958    4.286906   -0.516043
      5          6           0        6.079529    1.433394    3.299901
      6          7           0        4.407686   -0.647457   -1.128678
      7          6           0        4.493173   -1.975036   -0.714918
      8          6           0        4.045480   -2.964795   -1.820758
      9          6           0        3.741317   -1.988513   -3.003881
     10          6           0        3.896528   -0.595991   -2.392783
     11          6           0        4.627752   -2.317263   -4.267096
     12          6           0        2.848009   -4.033878   -1.515819
     13          6           0        1.556774   -3.495619   -0.869802
     14          6           0        0.218646   -3.975173   -1.442720
     15          8           0       -0.017138   -4.841827   -2.269036
     16          8           0       -0.682458   -3.026877   -1.033155
     17          7           0        4.584429    2.253546   -1.746842
     18          6           0        4.023925    1.854151   -2.885584
     19          6           0        3.734186    2.974043   -3.740053
     20          6           0        4.019287    4.142196   -2.985429
     21          6           0        4.526485    3.592944   -1.708224
     22          6           0        3.216829    2.881001   -5.153908
     23          6           0        3.784185    5.590044   -3.411276
     24          8           0        3.350615    5.829269   -4.538204
     25          6           0        4.149524    6.719402   -2.444346
     26          7           0        5.363204    2.569841    1.209124
     27          6           0        5.252465    3.838964    0.765462
     28          6           0        5.507267    4.837446    1.914102
     29          6           0        5.579572    3.823712    3.162305
     30          6           0        5.752571    2.537871    2.537795
     31          6           0        6.838970    5.607342    1.762717
     32          6           0        4.255853    3.828685    4.042483
     33          6           0        4.338415    4.755251    5.332355
     34          7           0        5.656173   -0.181419    1.611780
     35          6           0        5.951892    0.098729    2.921840
     36          6           0        6.065087   -1.166261    3.667992
     37          6           0        5.747180   -2.149755    2.733184
     38          6           0        5.406145   -1.529292    1.569489
     39          6           0        6.247059   -1.419178    5.162289
     40          6           0        5.564224   -3.589527    2.593092
     41          8           0        5.566226   -4.485125    3.463859
     42          6           0        4.923161   -3.816488    1.169042
     43          6           0        5.817152   -4.764307    0.396365
     44          8           0        5.549749   -5.846348   -0.166029
     45          8           0        7.068218   -4.297506    0.440678
     46          6           0        8.112100   -5.176722   -0.063978
     47          6           0       -2.069639   -3.239994   -1.527497
     48          6           0       -2.917435   -2.135806   -0.998781
     49          6           0       -3.760363   -1.296256   -1.681473
     50          6           0       -4.142175   -1.564270   -3.175839
     51          6           0       -4.261931   -0.029892   -0.989701
     52          6           0       -5.786266   -0.086361   -0.659943
     53          6           0       -6.119122   -0.043768    0.822443
     54          6           0       -7.577941    0.482145    1.080660
     55          6           0       -7.573331    1.301752    2.428680
     56          6           0       -8.555326   -0.630603    1.310357
     57          6           0       -9.484864   -0.997295    0.185993
     58          6           0      -10.785012   -1.679522    0.704240
     59          6           0      -11.913152   -0.614088    1.051656
     60          6           0      -12.482523   -0.850735    2.470429
     61          6           0      -12.985990   -0.706855   -0.169389
     62          6           0      -13.760465    0.643349   -0.300721
     63          6           0      -15.295928    0.560267   -0.222419
     64          6           0      -15.945917    1.544550    0.724922
     65          6           0      -17.376340    0.972169    0.912517
     66          6           0      -16.071774    2.958096    0.113929
     67          1           0        3.204339    0.272743   -4.157909
     68          1           0        5.080688    5.351296   -0.692197
     69          1           0        6.260543    1.531236    4.372177
     70          1           0        4.916390   -3.514135   -2.178091
     71          1           0        2.683356   -2.149378   -3.211457
     72          1           0        4.903869   -1.416109   -4.813276
     73          1           0        3.974223   -2.824795   -4.976311
     74          1           0        5.582365   -2.828142   -4.139799
     75          1           0        3.274882   -4.897911   -1.007748
     76          1           0        2.654706   -4.447631   -2.505350
     77          1           0        1.637375   -2.414268   -0.977955
     78          1           0        1.633534   -3.730807    0.191549
     79          1           0        2.370010    3.556327   -5.273982
     80          1           0        2.956403    1.840509   -5.348418
     81          1           0        3.990652    3.128085   -5.879342
     82          1           0        5.230064    6.835794   -2.362254
     83          1           0        3.650552    6.582928   -1.485770
     84          1           0        3.849980    7.641036   -2.944773
     85          1           0        4.729453    5.573176    2.118759
     86          1           0        6.417350    4.127115    3.789322
     87          1           0        7.168970    5.594581    0.724504
     88          1           0        7.649181    5.336963    2.439004
     89          1           0        6.598884    6.641077    2.009651
     90          1           0        4.243707    2.823664    4.464596
     91          1           0        3.337444    4.120665    3.533717
     92          1           0        4.354346    4.272064    6.309104
     93          1           0        3.473650    5.406579    5.208536
     94          1           0        5.128403    5.489285    5.169817
     95          1           0        5.276919   -1.535176    5.645593
     96          1           0        6.776999   -0.566553    5.587453
     97          1           0        6.913787   -2.271759    5.291368
     98          1           0        3.933920   -4.232470    1.360183
     99          1           0        7.764262   -5.353114   -1.082066
    100          1           0        8.100527   -6.185167    0.348494
    101          1           0        9.124600   -4.795381    0.067981
    102          1           0       -2.407211   -4.256237   -1.326111
    103          1           0       -2.046241   -3.075572   -2.604644
    104          1           0       -2.599483   -1.871503    0.009334
    105          1           0       -4.956812   -0.899543   -3.462317
    106          1           0       -4.540436   -2.545449   -3.437051
    107          1           0       -3.391239   -1.138779   -3.841115
    108          1           0       -3.973679    0.845749   -1.571530
    109          1           0       -3.704389    0.127569   -0.066941
    110          1           0       -6.138927   -1.068629   -0.973552
    111          1           0       -6.213657    0.732507   -1.238199
    112          1           0       -5.386766    0.653033    1.230237
    113          1           0       -5.960162   -1.012882    1.294662
    114          1           0       -7.839310    1.161851    0.269607
    115          1           0       -7.248417    0.633042    3.226845
    116          1           0       -8.561237    1.741052    2.570346
    117          1           0       -6.769935    2.012263    2.239405
    118          1           0       -9.183913   -0.484391    2.188312
    119          1           0       -8.053628   -1.537209    1.651497
    120          1           0       -8.848032   -1.595159   -0.465809
    121          1           0       -9.737936   -0.138611   -0.434944
    122          1           0      -10.475662   -2.170620    1.626552
    123          1           0      -11.151643   -2.360719   -0.063991
    124          1           0      -11.466663    0.380352    1.027750
    125          1           0      -12.301690   -1.808862    2.958612
    126          1           0      -13.566436   -0.831078    2.360456
    127          1           0      -12.304584   -0.003072    3.132744
    128          1           0      -13.712213   -1.508810   -0.039514
    129          1           0      -12.463515   -0.862768   -1.113269
    130          1           0      -13.527939    1.138680   -1.243890
    131          1           0      -13.428158    1.339448    0.469202
    132          1           0      -15.555633   -0.494544   -0.127800
    133          1           0      -15.588886    0.934663   -1.202816
    134          1           0      -15.407022    1.600009    1.670772
    135          1           0      -17.519554    0.053011    0.344354
    136          1           0      -18.155520    1.697450    0.679039
    137          1           0      -17.486169    0.743980    1.972949
    138          1           0      -15.353312    3.004082   -0.704556
    139          1           0      -15.707184    3.697404    0.827170
    140          1           0      -17.091536    3.187750   -0.194402
 ---------------------------------------------------------------------

 SCF Done:  E(RPBE1PBE) =  -3005.36409907     A.U. after   15 cycles

 Excitation energies and oscillator strengths:

 Excited State   1:      Singlet-A      1.8385 eV  674.37 nm  f=0.3785  <S**2>=0.000
     245 -> 248       -0.15339
     246 -> 247        0.69751
     246 <- 247       -0.11658
 This state for optimization and/or second-order correction.
 Total Energy, E(TD-HF/TD-DFT) =  -3005.29653445
 Copying the excited state density for this state as the 1-particle RhoCI density.

 Excited State   2:      Singlet-A      2.2757 eV  544.82 nm  f=0.0947  <S**2>=0.000
     245 -> 247        0.64486
     246 -> 248        0.26550

 Excited State   3:      Singlet-A      2.9017 eV  427.28 nm  f=0.0039  <S**2>=0.000
     241 -> 247       -0.13138
     243 -> 247        0.66845

 Excited State   4:      Singlet-A      3.0754 eV  403.14 nm  f=0.0003  <S**2>=0.000
     242 -> 247        0.67358
     243 -> 247       -0.12896

 Excited State   5:      Singlet-A      3.1475 eV  393.91 nm  f=0.0001  <S**2>=0.000
     240 -> 247        0.22550
     241 -> 247        0.61656
     243 -> 247        0.11570
     246 -> 248       -0.14804

 The electronic state is 1-A.
 Alpha  occ. eigenvalues --  -46.92791 -19.26265 -19.25185 -19.20318 -19.19948
 Alpha  occ. eigenvalues --  -19.19644 -19.19352 -14.42386 -14.41916 -14.39426
 Alpha  occ. eigenvalues --  -14.38677 -10.36852 -10.36359 -10.32981 -10.32515
 Alpha  occ. eigenvalues --  -10.29515 -10.29121 -10.28901 -10.28850 -10.28757
 Alpha  occ. eigenvalues --  -10.28606 -10.28309 -10.27472 -10.27261 -10.26939
 Alpha  occ. eigenvalues --  -10.26251 -10.26164 -10.26127 -10.25908 -10.25847
 Alpha  occ. eigenvalues --  -10.25703 -10.25673 -10.25650 -10.25397 -10.24929
 Alpha  occ. eigenvalues --  -10.24901 -10.24803 -10.24731 -10.24689 -10.24308
 Alpha  occ. eigenvalues --  -10.24034 -10.24029 -10.24021 -10.24008 -10.23986
 Alpha  occ. eigenvalues --  -10.23738 -10.23583 -10.23387 -10.23368 -10.23272
 Alpha  occ. eigenvalues --  -10.23169 -10.23072 -10.22926 -10.22861 -10.22674
 Alpha  occ. eigenvalues --  -10.22422 -10.22387 -10.22167 -10.21929 -10.21888
 Alpha  occ. eigenvalues --  -10.21744 -10.21604 -10.21586 -10.21527 -10.21266
 Alpha  occ. eigenvalues --  -10.21244  -3.14967  -1.87765  -1.87356  -1.87184
 Alpha  occ. eigenvalues --   -1.12404  -1.10651  -1.04698  -1.03144  -1.02377
 Alpha  occ. eigenvalues --   -1.01478  -0.99935  -0.99050  -0.98191  -0.97250
 Alpha  occ. eigenvalues --   -0.86962  -0.84455  -0.83878  -0.83534  -0.83138
 Alpha  occ. eigenvalues --   -0.82693  -0.82572  -0.82138  -0.81175  -0.81062
 Alpha  occ. eigenvalues --   -0.80318  -0.79697  -0.78741  -0.78215  -0.77711
 Alpha  occ. eigenvalues --   -0.76596  -0.76433  -0.75686  -0.75411  -0.74729
 Alpha  occ. eigenvalues --   -0.73898  -0.72527  -0.72071  -0.71516  -0.70785
 Alpha  occ. eigenvalues --   -0.70077  -0.69683  -0.69359  -0.68950  -0.67685
 Alpha  occ. eigenvalues --   -0.67526  -0.66993  -0.66361  -0.64419  -0.63450
 Alpha  occ. eigenvalues --   -0.63073  -0.62128  -0.61756  -0.60246  -0.60167
 Alpha  occ. eigenvalues --   -0.59661  -0.59470  -0.59298  -0.59097  -0.58039
 Alpha  occ. eigenvalues --   -0.57989  -0.57534  -0.57244  -0.56680  -0.55195
 Alpha  occ. eigenvalues --   -0.54635  -0.54553  -0.53580  -0.53237  -0.52438
 Alpha  occ. eigenvalues --   -0.52376  -0.51354  -0.50991  -0.50855  -0.50509
 Alpha  occ. eigenvalues --   -0.49724  -0.49315  -0.49232  -0.48733  -0.48426
 Alpha  occ. eigenvalues --   -0.48378  -0.48117  -0.48014  -0.47549  -0.47503
 Alpha  occ. eigenvalues --   -0.47319  -0.46930  -0.46798  -0.46351  -0.46174
 Alpha  occ. eigenvalues --   -0.45891  -0.45739  -0.45419  -0.45340  -0.45144
 Alpha  occ. eigenvalues --   -0.45023  -0.44909  -0.44675  -0.44320  -0.44307
 Alpha  occ. eigenvalues --   -0.44116  -0.43794  -0.43511  -0.43408  -0.43351
 Alpha  occ. eigenvalues --   -0.43023  -0.42950  -0.42787  -0.42550  -0.42059
 Alpha  occ. eigenvalues --   -0.41987  -0.41890  -0.41709  -0.41546  -0.41288
 Alpha  occ. eigenvalues --   -0.41034  -0.40916  -0.40606  -0.40402  -0.40303
 Alpha  occ. eigenvalues --   -0.40060  -0.39846  -0.39722  -0.39596  -0.39450
 Alpha  occ. eigenvalues --   -0.39287  -0.39241  -0.38996  -0.38800  -0.38531
 Alpha  occ. eigenvalues --   -0.38445  -0.38240  -0.38144  -0.37829  -0.37814
 Alpha  occ. eigenvalues --   -0.37428  -0.37401  -0.37229  -0.36966  -0.36932
 Alpha  occ. eigenvalues --   -0.36804  -0.36627  -0.36473  -0.36138  -0.36012
 Alpha  occ. eigenvalues --   -0.35679  -0.35385  -0.35218  -0.35084  -0.34988
 Alpha  occ. eigenvalues --   -0.34656  -0.34575  -0.33824  -0.33761  -0.33534
 Alpha  occ. eigenvalues --   -0.33290  -0.33254  -0.33062  -0.33006  -0.32799
 Alpha  occ. eigenvalues --   -0.32312  -0.32162  -0.32107  -0.31533  -0.31364
 Alpha  occ. eigenvalues --   -0.31187  -0.30105  -0.29908  -0.29452  -0.29314
 Alpha  occ. eigenvalues --   -0.29149  -0.28959  -0.28914  -0.27013  -0.26359
 Alpha  occ. eigenvalues --   -0.26040  -0.25882  -0.25091  -0.25012  -0.21577
 Alpha  occ. eigenvalues --   -0.18938
 Alpha virt. eigenvalues --   -0.11508  -0.05413  -0.04047  -0.02654  -0.01859
 Alpha virt. eigenvalues --    0.00105   0.00259   0.00524   0.01060   0.02893
 Alpha virt. eigenvalues --    0.03489   0.04557   0.04911   0.05720   0.06184

 Mulliken charges:
               1
     1  Mg   0.991452
     2  C   -0.044460
     3  C   -0.084874
     4  C   -0.077774
     5  C   -0.085446
     6  N   -0.382088
     7  C    0.030829
     8  C   -0.100475
     9  C   -0.132687
    10  C    0.072218
    11  C    0.002535
    12  C   -0.013301
    13  C   -0.054533
    14  C    0.250073
    15  O   -0.256059
    16  O   -0.381017
    17  N   -0.407819
    18  C    0.164728
    19  C   -0.189484
    20  C   -0.065634
    21  C    0.131795
    22  C    0.092668
    23  C    0.045768
    24  O   -0.239255
    25  C   -0.031574
    26  N   -0.479486
    27  C    0.128309
    28  C   -0.141559
    29  C   -0.108564
    30  C    0.137312
    31  C    0.007994
    32  C   -0.039070
    33  C   -0.072330
    34  N   -0.459373
    35  C    0.111286
    36  C   -0.209052
    37  C   -0.023495
    38  C    0.176877
    39  C    0.070937
    40  C    0.164218
    41  O   -0.241890
    42  C   -0.121138
    43  C    0.302880
    44  O   -0.283406
    45  O   -0.341316
    46  C    0.132467
    47  C    0.248493
    48  C   -0.125073
    49  C   -0.229444
    50  C    0.004521
    51  C    0.024215
    52  C   -0.046634
    53  C   -0.008027
    54  C   -0.211257
    55  C   -0.022946
    56  C    0.003782
    57  C   -0.046214
    58  C    0.011260
    59  C   -0.228315
    60  C    0.002000
    61  C   -0.006962
    62  C   -0.046537
    63  C   -0.036774
    64  C   -0.275683
    65  C   -0.001950
    66  C    0.003855
    67  H    0.014457
    68  H   -0.006188
    69  H    0.005660
    70  H    0.058132
    71  H    0.052409
    72  H    0.032630
    73  H    0.049710
    74  H    0.052911
    75  H    0.060505
    76  H    0.046534
    77  H    0.081365
    78  H    0.073239
    79  H    0.071188
    80  H    0.018553
    81  H    0.061192
    82  H    0.074782
    83  H    0.074830
    84  H    0.049841
    85  H    0.048609
    86  H    0.038503
    87  H    0.045055
    88  H    0.050558
    89  H    0.036865
    90  H    0.048398
    91  H    0.054267
    92  H    0.065143
    93  H    0.031008
    94  H    0.029825
    95  H    0.072551
    96  H    0.028143
    97  H    0.064258
    98  H    0.083171
    99  H    0.050594
   100  H    0.058479
   101  H    0.069446
   102  H    0.063749
   103  H    0.042887
   104  H    0.030135
   105  H    0.021977
   106  H    0.066731
   107  H    0.058537
   108  H    0.038393
   109  H    0.024631
   110  H    0.044286
   111  H    0.033990
   112  H    0.016472
   113  H    0.032372
   114  H    0.029066
   115  H    0.040831
   116  H    0.049278
   117  H    0.028952
   118  H    0.012441
   119  H    0.015437
   120  H    0.018318
   121  H    0.017450
   122  H    0.022636
   123  H    0.032966
   124  H    0.041300
   125  H    0.044483
   126  H    0.018960
   127  H    0.036518
   128  H    0.032362
   129  H    0.032669
   130  H    0.024177
   131  H    0.023582
   132  H    0.033354
   133  H    0.023685
   134  H    0.038027
   135  H    0.038794
   136  H    0.027633
   137  H    0.031344
   138  H    0.028252
   139  H    0.032731
   140  H    0.044471
 Sum of Mulliken charges =  -0.00000

 Dipole moment (field-independent basis, Debye):
    X=              1.6131    Y=              6.1113    Z=              0.6800  Tot=              6.3571
 Quadrupole moment (field-independent basis, Debye-Ang):
   XX=           -356.6422   YY=           -435.3883   ZZ=           -406.3618
   XY=             23.4761   XZ=             -0.1220   YZ=             32.4645

 Normal termination of Gaussian 16 at Wed Apr 27 14:08:36 2022.
