 Gaussian 16, Revision A.03,
 Gaussian 16:  ES64L-G16RevA.03 25-Dec-2016

 --------------------------------
 #p wB97XD/Def2SVP td=(nstates=5)
 --------------------------------

 -----------------------------------------------------
 step_1201_chromophore_14 TDDFT with wB97XD functional
 -----------------------------------------------------
 Symbolic Z-matrix:
 Charge =  0 Multiplicity = 1

                         Standard orientation:
 ---------------------------------------------------------------------
 Center     Atomic      Atomic             Coordinates (Angstroms)
 Number     Number       Type             X           Y           Z
 ---------------------------------------------------------------------
      1         12           0        5.376133    1.073516   -0.088348
      2          6           0        4.915717   -2.373290    0.532253
      3          6           0        3.665521    0.529081   -3.201934
      4          6           0        4.913958    4.286906   -0.516043
      5          6           0        6.079529    1.433394    3.299901
      6          7           0        4.407686   -0.647457   -1.128678
      7          6           0        4.493173   -1.975036   -0.714918
      8          6           0        4.045480   -2.964795   -1.820758
      9          6           0        3.741317   -1.988513   -3.003881
     10          6           0        3.896528   -0.595991   -2.392783
     11          6           0        4.627752   -2.317263   -4.267096
     12          6           0        2.848009   -4.033878   -1.515819
     13          6           0        1.556774   -3.495619   -0.869802
     14          6           0        0.218646   -3.975173   -1.442720
     15          8           0       -0.017138   -4.841827   -2.269036
     16          8           0       -0.682458   -3.026877   -1.033155
     17          7           0        4.584429    2.253546   -1.746842
     18          6           0        4.023925    1.854151   -2.885584
     19          6           0        3.734186    2.974043   -3.740053
     20          6           0        4.019287    4.142196   -2.985429
     21          6           0        4.526485    3.592944   -1.708224
     22          6           0        3.216829    2.881001   -5.153908
     23          6           0        3.784185    5.590044   -3.411276
     24          8           0        3.350615    5.829269   -4.538204
     25          6           0        4.149524    6.719402   -2.444346
     26          7           0        5.363204    2.569841    1.209124
     27          6           0        5.252465    3.838964    0.765462
     28          6           0        5.507267    4.837446    1.914102
     29          6           0        5.579572    3.823712    3.162305
     30          6           0        5.752571    2.537871    2.537795
     31          6           0        6.838970    5.607342    1.762717
     32          6           0        4.255853    3.828685    4.042483
     33          6           0        4.338415    4.755251    5.332355
     34          7           0        5.656173   -0.181419    1.611780
     35          6           0        5.951892    0.098729    2.921840
     36          6           0        6.065087   -1.166261    3.667992
     37          6           0        5.747180   -2.149755    2.733184
     38          6           0        5.406145   -1.529292    1.569489
     39          6           0        6.247059   -1.419178    5.162289
     40          6           0        5.564224   -3.589527    2.593092
     41          8           0        5.566226   -4.485125    3.463859
     42          6           0        4.923161   -3.816488    1.169042
     43          6           0        5.817152   -4.764307    0.396365
     44          8           0        5.549749   -5.846348   -0.166029
     45          8           0        7.068218   -4.297506    0.440678
     46          6           0        8.112100   -5.176722   -0.063978
     47          6           0       -2.069639   -3.239994   -1.527497
     48          6           0       -2.917435   -2.135806   -0.998781
     49          6           0       -3.760363   -1.296256   -1.681473
     50          6           0       -4.142175   -1.564270   -3.175839
     51          6           0       -4.261931   -0.029892   -0.989701
     52          6           0       -5.786266   -0.086361   -0.659943
     53          6           0       -6.119122   -0.043768    0.822443
     54          6           0       -7.577941    0.482145    1.080660
     55          6           0       -7.573331    1.301752    2.428680
     56          6           0       -8.555326   -0.630603    1.310357
     57          6           0       -9.484864   -0.997295    0.185993
     58          6           0      -10.785012   -1.679522    0.704240
     59          6           0      -11.913152   -0.614088    1.051656
     60          6           0      -12.482523   -0.850735    2.470429
     61          6           0      -12.985990   -0.706855   -0.169389
     62          6           0      -13.760465    0.643349   -0.300721
     63          6           0      -15.295928    0.560267   -0.222419
     64          6           0      -15.945917    1.544550    0.724922
     65          6           0      -17.376340    0.972169    0.912517
     66          6           0      -16.071774    2.958096    0.113929
     67          1           0        3.204339    0.272743   -4.157909
     68          1           0        5.080688    5.351296   -0.692197
     69          1           0        6.260543    1.531236    4.372177
     70          1           0        4.916390   -3.514135   -2.178091
     71          1           0        2.683356   -2.149378   -3.211457
     72          1           0        4.903869   -1.416109   -4.813276
     73          1           0        3.974223   -2.824795   -4.976311
     74          1           0        5.582365   -2.828142   -4.139799
     75          1           0        3.274882   -4.897911   -1.007748
     76          1           0        2.654706   -4.447631   -2.505350
     77          1           0        1.637375   -2.414268   -0.977955
     78          1           0        1.633534   -3.730807    0.191549
     79          1           0        2.370010    3.556327   -5.273982
     80          1           0        2.956403    1.840509   -5.348418
     81          1           0        3.990652    3.128085   -5.879342
     82          1           0        5.230064    6.835794   -2.362254
     83          1           0        3.650552    6.582928   -1.485770
     84          1           0        3.849980    7.641036   -2.944773
     85          1           0        4.729453    5.573176    2.118759
     86          1           0        6.417350    4.127115    3.789322
     87          1           0        7.168970    5.594581    0.724504
     88          1           0        7.649181    5.336963    2.439004
     89          1           0        6.598884    6.641077    2.009651
     90          1           0        4.243707    2.823664    4.464596
     91          1           0        3.337444    4.120665    3.533717
     92          1           0        4.354346    4.272064    6.309104
     93          1           0        3.473650    5.406579    5.208536
     94          1           0        5.128403    5.489285    5.169817
     95          1           0        5.276919   -1.535176    5.645593
     96          1           0        6.776999   -0.566553    5.587453
     97          1           0        6.913787   -2.271759    5.291368
     98          1           0        3.933920   -4.232470    1.360183
     99          1           0        7.764262   -5.353114   -1.082066
    100          1           0        8.100527   -6.185167    0.348494
    101          1           0        9.124600   -4.795381    0.067981
    102          1           0       -2.407211   -4.256237   -1.326111
    103          1           0       -2.046241   -3.075572   -2.604644
    104          1           0       -2.599483   -1.871503    0.009334
    105          1           0       -4.956812   -0.899543   -3.462317
    106          1           0       -4.540436   -2.545449   -3.437051
    107          1           0       -3.391239   -1.138779   -3.841115
    108          1           0       -3.973679    0.845749   -1.571530
    109          1           0       -3.704389    0.127569   -0.066941
    110          1           0       -6.138927   -1.068629   -0.973552
    111          1           0       -6.213657    0.732507   -1.238199
    112          1           0       -5.386766    0.653033    1.230237
    113          1           0       -5.960162   -1.012882    1.294662
    114          1           0       -7.839310    1.161851    0.269607
    115          1           0       -7.248417    0.633042    3.226845
    116          1           0       -8.561237    1.741052    2.570346
    117          1           0       -6.769935    2.012263    2.239405
    118          1           0       -9.183913   -0.484391    2.188312
    119          1           0       -8.053628   -1.537209    1.651497
    120          1           0       -8.848032   -1.595159   -0.465809
    121          1           0       -9.737936   -0.138611   -0.434944
    122          1           0      -10.475662   -2.170620    1.626552
    123          1           0      -11.151643   -2.360719   -0.063991
    124          1           0      -11.466663    0.380352    1.027750
    125          1           0      -12.301690   -1.808862    2.958612
    126          1           0      -13.566436   -0.831078    2.360456
    127          1           0      -12.304584   -0.003072    3.132744
    128          1           0      -13.712213   -1.508810   -0.039514
    129          1           0      -12.463515   -0.862768   -1.113269
    130          1           0      -13.527939    1.138680   -1.243890
    131          1           0      -13.428158    1.339448    0.469202
    132          1           0      -15.555633   -0.494544   -0.127800
    133          1           0      -15.588886    0.934663   -1.202816
    134          1           0      -15.407022    1.600009    1.670772
    135          1           0      -17.519554    0.053011    0.344354
    136          1           0      -18.155520    1.697450    0.679039
    137          1           0      -17.486169    0.743980    1.972949
    138          1           0      -15.353312    3.004082   -0.704556
    139          1           0      -15.707184    3.697404    0.827170
    140          1           0      -17.091536    3.187750   -0.194402
 ---------------------------------------------------------------------

 SCF Done:  E(RwB97XD) =  -3007.87370461     A.U. after   19 cycles

 Excitation energies and oscillator strengths:

 Excited State   1:      Singlet-A      1.6560 eV  748.70 nm  f=0.3914  <S**2>=0.000
     245 -> 248        0.16453
     246 -> 247        0.68736
     245 <- 248        0.10854
 This state for optimization and/or second-order correction.
 Total Energy, E(TD-HF/TD-DFT) =  -3007.81284774
 Copying the excited state density for this state as the 1-particle RhoCI density.

 Excited State   2:      Singlet-A      2.2237 eV  557.55 nm  f=0.0951  <S**2>=0.000
     245 -> 247        0.63112
     246 -> 248       -0.29646

 Excited State   3:      Singlet-A      3.3656 eV  368.38 nm  f=0.0008  <S**2>=0.000
     241 -> 247       -0.21963
     242 -> 247       -0.15285
     244 -> 247        0.62206
     244 -> 249        0.10111

 Excited State   4:      Singlet-A      3.4491 eV  359.47 nm  f=0.0590  <S**2>=0.000
     241 -> 247        0.42523
     242 -> 247        0.36742
     244 -> 247        0.19127
     246 -> 248        0.31960

 Excited State   5:      Singlet-A      3.5844 eV  345.90 nm  f=0.2576  <S**2>=0.000
     241 -> 247       -0.14008
     241 -> 249       -0.15367
     241 -> 250       -0.11595
     242 -> 247        0.40382
     242 -> 249        0.24222
     242 -> 250        0.16564
     245 -> 247       -0.17885
     246 -> 248       -0.36173

 The electronic state is 1-A.
 Alpha  occ. eigenvalues --  -46.95745 -19.30787 -19.29724 -19.24968 -19.24704
 Alpha  occ. eigenvalues --  -19.24574 -19.23965 -14.47580 -14.46916 -14.44598
 Alpha  occ. eigenvalues --  -14.43419 -10.43617 -10.43120 -10.40047 -10.39183
 Alpha  occ. eigenvalues --  -10.36063 -10.35583 -10.35481 -10.35392 -10.35272
 Alpha  occ. eigenvalues --  -10.34948 -10.34313 -10.34246 -10.33260 -10.33154
 Alpha  occ. eigenvalues --  -10.32827 -10.32489 -10.32424 -10.32103 -10.32055
 Alpha  occ. eigenvalues --  -10.32028 -10.32023 -10.31635 -10.31628 -10.31550
 Alpha  occ. eigenvalues --  -10.31495 -10.31204 -10.31165 -10.30846 -10.30754
 Alpha  occ. eigenvalues --  -10.30506 -10.30479 -10.30393 -10.30351 -10.30305
 Alpha  occ. eigenvalues --  -10.30208 -10.30031 -10.29764 -10.29756 -10.29671
 Alpha  occ. eigenvalues --  -10.29476 -10.29444 -10.29216 -10.29196 -10.29061
 Alpha  occ. eigenvalues --  -10.28787 -10.28521 -10.28403 -10.28351 -10.28323
 Alpha  occ. eigenvalues --  -10.28162 -10.27971 -10.27971 -10.27883 -10.27651
 Alpha  occ. eigenvalues --  -10.27648  -3.21794  -1.95340  -1.94928  -1.94756
 Alpha  occ. eigenvalues --   -1.19743  -1.18011  -1.12425  -1.10457  -1.09698
 Alpha  occ. eigenvalues --   -1.08794  -1.07548  -1.06407  -1.05468  -1.04562
 Alpha  occ. eigenvalues --   -0.94440  -0.92133  -0.91450  -0.91203  -0.90803
 Alpha  occ. eigenvalues --   -0.90355  -0.90231  -0.89728  -0.88989  -0.88848
 Alpha  occ. eigenvalues --   -0.87771  -0.87330  -0.86375  -0.85811  -0.85379
 Alpha  occ. eigenvalues --   -0.84310  -0.84158  -0.83308  -0.83066  -0.82368
 Alpha  occ. eigenvalues --   -0.81567  -0.80054  -0.79842  -0.79203  -0.78351
 Alpha  occ. eigenvalues --   -0.77762  -0.77337  -0.77056  -0.76642  -0.75333
 Alpha  occ. eigenvalues --   -0.75064  -0.74528  -0.73929  -0.72078  -0.70955
 Alpha  occ. eigenvalues --   -0.70509  -0.69845  -0.69400  -0.67812  -0.67651
 Alpha  occ. eigenvalues --   -0.67111  -0.67009  -0.66821  -0.66668  -0.65731
 Alpha  occ. eigenvalues --   -0.65357  -0.65212  -0.64707  -0.64324  -0.62687
 Alpha  occ. eigenvalues --   -0.62147  -0.61981  -0.61028  -0.60577  -0.59850
 Alpha  occ. eigenvalues --   -0.59800  -0.58827  -0.58510  -0.58330  -0.57873
 Alpha  occ. eigenvalues --   -0.57116  -0.56753  -0.56587  -0.56182  -0.55777
 Alpha  occ. eigenvalues --   -0.55742  -0.55473  -0.55361  -0.54970  -0.54840
 Alpha  occ. eigenvalues --   -0.54716  -0.54499  -0.54377  -0.53680  -0.53520
 Alpha  occ. eigenvalues --   -0.53185  -0.53048  -0.52723  -0.52668  -0.52553
 Alpha  occ. eigenvalues --   -0.52367  -0.52257  -0.52197  -0.51729  -0.51604
 Alpha  occ. eigenvalues --   -0.51495  -0.51082  -0.50834  -0.50748  -0.50668
 Alpha  occ. eigenvalues --   -0.50280  -0.50132  -0.50049  -0.49868  -0.49345
 Alpha  occ. eigenvalues --   -0.49230  -0.49194  -0.48963  -0.48677  -0.48658
 Alpha  occ. eigenvalues --   -0.48373  -0.48147  -0.47858  -0.47651  -0.47386
 Alpha  occ. eigenvalues --   -0.47212  -0.46953  -0.46834  -0.46788  -0.46598
 Alpha  occ. eigenvalues --   -0.46503  -0.46415  -0.46137  -0.45947  -0.45747
 Alpha  occ. eigenvalues --   -0.45647  -0.45395  -0.45319  -0.44991  -0.44825
 Alpha  occ. eigenvalues --   -0.44712  -0.44509  -0.44402  -0.44112  -0.44051
 Alpha  occ. eigenvalues --   -0.43856  -0.43672  -0.43635  -0.43211  -0.43032
 Alpha  occ. eigenvalues --   -0.42646  -0.42495  -0.42116  -0.42090  -0.42029
 Alpha  occ. eigenvalues --   -0.41738  -0.41653  -0.40887  -0.40746  -0.40597
 Alpha  occ. eigenvalues --   -0.40382  -0.40197  -0.40073  -0.39946  -0.39840
 Alpha  occ. eigenvalues --   -0.39326  -0.39154  -0.38961  -0.38580  -0.38397
 Alpha  occ. eigenvalues --   -0.38142  -0.36910  -0.36896  -0.36354  -0.36317
 Alpha  occ. eigenvalues --   -0.36167  -0.35813  -0.35731  -0.33777  -0.33605
 Alpha  occ. eigenvalues --   -0.32889  -0.32752  -0.31744  -0.31472  -0.26670
 Alpha  occ. eigenvalues --   -0.23104
 Alpha virt. eigenvalues --   -0.07368   0.00076   0.02246   0.03835   0.04134
 Alpha virt. eigenvalues --    0.06960   0.07008   0.07200   0.07930   0.09589
 Alpha virt. eigenvalues --    0.10221   0.11060   0.11527   0.12442   0.12908

 Mulliken charges:
               1
     1  Mg   0.982966
     2  C   -0.041016
     3  C   -0.105291
     4  C   -0.094771
     5  C   -0.100658
     6  N   -0.345624
     7  C   -0.007237
     8  C   -0.075990
     9  C   -0.108251
    10  C    0.058713
    11  C    0.013327
    12  C   -0.000239
    13  C   -0.033200
    14  C    0.240542
    15  O   -0.253513
    16  O   -0.380672
    17  N   -0.373466
    18  C    0.161215
    19  C   -0.180440
    20  C   -0.063505
    21  C    0.131113
    22  C    0.104482
    23  C    0.041040
    24  O   -0.233019
    25  C   -0.017458
    26  N   -0.447413
    27  C    0.121925
    28  C   -0.118897
    29  C   -0.079709
    30  C    0.125799
    31  C    0.015913
    32  C   -0.026735
    33  C   -0.055313
    34  N   -0.423497
    35  C    0.098336
    36  C   -0.210496
    37  C   -0.018623
    38  C    0.155658
    39  C    0.083944
    40  C    0.142780
    41  O   -0.233628
    42  C   -0.078906
    43  C    0.277202
    44  O   -0.276267
    45  O   -0.341494
    46  C    0.148151
    47  C    0.264595
    48  C   -0.136787
    49  C   -0.212565
    50  C    0.014604
    51  C    0.039791
    52  C   -0.029744
    53  C    0.006469
    54  C   -0.181844
    55  C   -0.004551
    56  C    0.016905
    57  C   -0.028126
    58  C    0.032397
    59  C   -0.201278
    60  C    0.013025
    61  C    0.008721
    62  C   -0.033114
    63  C   -0.014419
    64  C   -0.247480
    65  C    0.010379
    66  C    0.015606
    67  H    0.008943
    68  H   -0.019162
    69  H   -0.000014
    70  H    0.044566
    71  H    0.040529
    72  H    0.024846
    73  H    0.044936
    74  H    0.049294
    75  H    0.051534
    76  H    0.037834
    77  H    0.071097
    78  H    0.067012
    79  H    0.068638
    80  H    0.013998
    81  H    0.058913
    82  H    0.070787
    83  H    0.069973
    84  H    0.048986
    85  H    0.040336
    86  H    0.026297
    87  H    0.037915
    88  H    0.046404
    89  H    0.031536
    90  H    0.037272
    91  H    0.046931
    92  H    0.061021
    93  H    0.023765
    94  H    0.021002
    95  H    0.066554
    96  H    0.020510
    97  H    0.058917
    98  H    0.076724
    99  H    0.045076
   100  H    0.054058
   101  H    0.067100
   102  H    0.060301
   103  H    0.035403
   104  H    0.027049
   105  H    0.015911
   106  H    0.062987
   107  H    0.053422
   108  H    0.032074
   109  H    0.015900
   110  H    0.031844
   111  H    0.026831
   112  H    0.005156
   113  H    0.024287
   114  H    0.017699
   115  H    0.033650
   116  H    0.043161
   117  H    0.021630
   118  H   -0.002217
   119  H    0.006122
   120  H    0.009357
   121  H    0.006614
   122  H    0.011164
   123  H    0.025273
   124  H    0.026976
   125  H    0.039935
   126  H    0.009795
   127  H    0.031745
   128  H    0.023197
   129  H    0.024187
   130  H    0.017266
   131  H    0.011104
   132  H    0.022400
   133  H    0.012219
   134  H    0.027704
   135  H    0.032260
   136  H    0.021175
   137  H    0.025549
   138  H    0.020155
   139  H    0.027582
   140  H    0.038640
 Sum of Mulliken charges =  -0.00000

 Dipole moment (field-independent basis, Debye):
    X=              1.4908    Y=              6.5277    Z=              0.0214  Tot=              6.6958
 Quadrupole moment (field-independent basis, Debye-Ang):
   XX=           -356.9729   YY=           -434.1151   ZZ=           -406.2826
   XY=             25.0434   XZ=             -3.6182   YZ=             30.8920

 Normal termination of Gaussian 16 at Wed Apr 27 14:39:56 2022.
