 Gaussian 16, Revision A.03,
 Gaussian 16:  ES64L-G16RevA.03 25-Dec-2016

 --------------------
 #p ZINDO=(nstates=5)
 --------------------

 ------------------------------
 step_1201_chromophore_14 ZINDO
 ------------------------------
 Symbolic Z-matrix:
 Charge =  0 Multiplicity = 1

                         Standard orientation:
 ---------------------------------------------------------------------
 Center     Atomic      Atomic             Coordinates (Angstroms)
 Number     Number       Type             X           Y           Z
 ---------------------------------------------------------------------
      1         12           0        5.376133    1.073516   -0.088348
      2          6           0        4.915717   -2.373290    0.532253
      3          6           0        3.665521    0.529081   -3.201934
      4          6           0        4.913958    4.286906   -0.516043
      5          6           0        6.079529    1.433394    3.299901
      6          7           0        4.407686   -0.647457   -1.128678
      7          6           0        4.493173   -1.975036   -0.714918
      8          6           0        4.045480   -2.964795   -1.820758
      9          6           0        3.741317   -1.988513   -3.003881
     10          6           0        3.896528   -0.595991   -2.392783
     11          6           0        4.627752   -2.317263   -4.267096
     12          6           0        2.848009   -4.033878   -1.515819
     13          6           0        1.556774   -3.495619   -0.869802
     14          6           0        0.218646   -3.975173   -1.442720
     15          8           0       -0.017138   -4.841827   -2.269036
     16          8           0       -0.682458   -3.026877   -1.033155
     17          7           0        4.584429    2.253546   -1.746842
     18          6           0        4.023925    1.854151   -2.885584
     19          6           0        3.734186    2.974043   -3.740053
     20          6           0        4.019287    4.142196   -2.985429
     21          6           0        4.526485    3.592944   -1.708224
     22          6           0        3.216829    2.881001   -5.153908
     23          6           0        3.784185    5.590044   -3.411276
     24          8           0        3.350615    5.829269   -4.538204
     25          6           0        4.149524    6.719402   -2.444346
     26          7           0        5.363204    2.569841    1.209124
     27          6           0        5.252465    3.838964    0.765462
     28          6           0        5.507267    4.837446    1.914102
     29          6           0        5.579572    3.823712    3.162305
     30          6           0        5.752571    2.537871    2.537795
     31          6           0        6.838970    5.607342    1.762717
     32          6           0        4.255853    3.828685    4.042483
     33          6           0        4.338415    4.755251    5.332355
     34          7           0        5.656173   -0.181419    1.611780
     35          6           0        5.951892    0.098729    2.921840
     36          6           0        6.065087   -1.166261    3.667992
     37          6           0        5.747180   -2.149755    2.733184
     38          6           0        5.406145   -1.529292    1.569489
     39          6           0        6.247059   -1.419178    5.162289
     40          6           0        5.564224   -3.589527    2.593092
     41          8           0        5.566226   -4.485125    3.463859
     42          6           0        4.923161   -3.816488    1.169042
     43          6           0        5.817152   -4.764307    0.396365
     44          8           0        5.549749   -5.846348   -0.166029
     45          8           0        7.068218   -4.297506    0.440678
     46          6           0        8.112100   -5.176722   -0.063978
     47          6           0       -2.069639   -3.239994   -1.527497
     48          6           0       -2.917435   -2.135806   -0.998781
     49          6           0       -3.760363   -1.296256   -1.681473
     50          6           0       -4.142175   -1.564270   -3.175839
     51          6           0       -4.261931   -0.029892   -0.989701
     52          6           0       -5.786266   -0.086361   -0.659943
     53          6           0       -6.119122   -0.043768    0.822443
     54          6           0       -7.577941    0.482145    1.080660
     55          6           0       -7.573331    1.301752    2.428680
     56          6           0       -8.555326   -0.630603    1.310357
     57          6           0       -9.484864   -0.997295    0.185993
     58          6           0      -10.785012   -1.679522    0.704240
     59          6           0      -11.913152   -0.614088    1.051656
     60          6           0      -12.482523   -0.850735    2.470429
     61          6           0      -12.985990   -0.706855   -0.169389
     62          6           0      -13.760465    0.643349   -0.300721
     63          6           0      -15.295928    0.560267   -0.222419
     64          6           0      -15.945917    1.544550    0.724922
     65          6           0      -17.376340    0.972169    0.912517
     66          6           0      -16.071774    2.958096    0.113929
     67          1           0        3.204339    0.272743   -4.157909
     68          1           0        5.080688    5.351296   -0.692197
     69          1           0        6.260543    1.531236    4.372177
     70          1           0        4.916390   -3.514135   -2.178091
     71          1           0        2.683356   -2.149378   -3.211457
     72          1           0        4.903869   -1.416109   -4.813276
     73          1           0        3.974223   -2.824795   -4.976311
     74          1           0        5.582365   -2.828142   -4.139799
     75          1           0        3.274882   -4.897911   -1.007748
     76          1           0        2.654706   -4.447631   -2.505350
     77          1           0        1.637375   -2.414268   -0.977955
     78          1           0        1.633534   -3.730807    0.191549
     79          1           0        2.370010    3.556327   -5.273982
     80          1           0        2.956403    1.840509   -5.348418
     81          1           0        3.990652    3.128085   -5.879342
     82          1           0        5.230064    6.835794   -2.362254
     83          1           0        3.650552    6.582928   -1.485770
     84          1           0        3.849980    7.641036   -2.944773
     85          1           0        4.729453    5.573176    2.118759
     86          1           0        6.417350    4.127115    3.789322
     87          1           0        7.168970    5.594581    0.724504
     88          1           0        7.649181    5.336963    2.439004
     89          1           0        6.598884    6.641077    2.009651
     90          1           0        4.243707    2.823664    4.464596
     91          1           0        3.337444    4.120665    3.533717
     92          1           0        4.354346    4.272064    6.309104
     93          1           0        3.473650    5.406579    5.208536
     94          1           0        5.128403    5.489285    5.169817
     95          1           0        5.276919   -1.535176    5.645593
     96          1           0        6.776999   -0.566553    5.587453
     97          1           0        6.913787   -2.271759    5.291368
     98          1           0        3.933920   -4.232470    1.360183
     99          1           0        7.764262   -5.353114   -1.082066
    100          1           0        8.100527   -6.185167    0.348494
    101          1           0        9.124600   -4.795381    0.067981
    102          1           0       -2.407211   -4.256237   -1.326111
    103          1           0       -2.046241   -3.075572   -2.604644
    104          1           0       -2.599483   -1.871503    0.009334
    105          1           0       -4.956812   -0.899543   -3.462317
    106          1           0       -4.540436   -2.545449   -3.437051
    107          1           0       -3.391239   -1.138779   -3.841115
    108          1           0       -3.973679    0.845749   -1.571530
    109          1           0       -3.704389    0.127569   -0.066941
    110          1           0       -6.138927   -1.068629   -0.973552
    111          1           0       -6.213657    0.732507   -1.238199
    112          1           0       -5.386766    0.653033    1.230237
    113          1           0       -5.960162   -1.012882    1.294662
    114          1           0       -7.839310    1.161851    0.269607
    115          1           0       -7.248417    0.633042    3.226845
    116          1           0       -8.561237    1.741052    2.570346
    117          1           0       -6.769935    2.012263    2.239405
    118          1           0       -9.183913   -0.484391    2.188312
    119          1           0       -8.053628   -1.537209    1.651497
    120          1           0       -8.848032   -1.595159   -0.465809
    121          1           0       -9.737936   -0.138611   -0.434944
    122          1           0      -10.475662   -2.170620    1.626552
    123          1           0      -11.151643   -2.360719   -0.063991
    124          1           0      -11.466663    0.380352    1.027750
    125          1           0      -12.301690   -1.808862    2.958612
    126          1           0      -13.566436   -0.831078    2.360456
    127          1           0      -12.304584   -0.003072    3.132744
    128          1           0      -13.712213   -1.508810   -0.039514
    129          1           0      -12.463515   -0.862768   -1.113269
    130          1           0      -13.527939    1.138680   -1.243890
    131          1           0      -13.428158    1.339448    0.469202
    132          1           0      -15.555633   -0.494544   -0.127800
    133          1           0      -15.588886    0.934663   -1.202816
    134          1           0      -15.407022    1.600009    1.670772
    135          1           0      -17.519554    0.053011    0.344354
    136          1           0      -18.155520    1.697450    0.679039
    137          1           0      -17.486169    0.743980    1.972949
    138          1           0      -15.353312    3.004082   -0.704556
    139          1           0      -15.707184    3.697404    0.827170
    140          1           0      -17.091536    3.187750   -0.194402
 ---------------------------------------------------------------------

 SCF Done:  E(RZINDO/S) =  -474.216665788     A.U. after   19 cycles

 Excitation energies and oscillator strengths:

 Excited State   1:      Singlet-A      1.2551 eV  987.86 nm  f=0.6013  <S**2>=0.000
     175 ->178         0.16497
     176 ->177         0.67043
 This state for optimization and/or second-order correction.
 Total Energy, E(CIS/TDA) =  -474.170542432
 Copying the excited state density for this state as the 1-particle RhoCI density.

 Excited State   2:      Singlet-A      1.9454 eV  637.31 nm  f=0.0235  <S**2>=0.000
     175 ->177         0.52628
     176 ->178        -0.43890

 Excited State   3:      Singlet-A      2.8612 eV  433.33 nm  f=0.0064  <S**2>=0.000
     176 ->179         0.24477
     176 ->180         0.64195
     176 ->181         0.10258

 Excited State   4:      Singlet-A      2.9343 eV  422.54 nm  f=0.0206  <S**2>=0.000
     169 ->179         0.11378
     169 ->181         0.11267
     170 ->177         0.21029
     170 ->179         0.29980
     170 ->181         0.32664
     170 ->185        -0.14322
     170 ->187        -0.13483
     173 ->177        -0.13157
     176 ->179        -0.18370
     176 ->180         0.15569
     176 ->181        -0.11034

 Excited State   5:      Singlet-A      2.9807 eV  415.96 nm  f=0.5396  <S**2>=0.000
     170 ->179        -0.10838
     170 ->181        -0.11714
     175 ->177         0.29707
     176 ->178         0.33792
     176 ->179        -0.33439
     176 ->180         0.20113
     176 ->181        -0.18945

 The electronic state is 1-A.
 Alpha  occ. eigenvalues --   -1.85188  -1.83280  -1.81210  -1.74247  -1.73096
 Alpha  occ. eigenvalues --   -1.71194  -1.65604  -1.62054  -1.59026  -1.56882
 Alpha  occ. eigenvalues --   -1.55259  -1.50595  -1.47536  -1.46490  -1.45577
 Alpha  occ. eigenvalues --   -1.43920  -1.42083  -1.40976  -1.39367  -1.38650
 Alpha  occ. eigenvalues --   -1.35501  -1.33281  -1.32074  -1.31223  -1.29633
 Alpha  occ. eigenvalues --   -1.28487  -1.27724  -1.23860  -1.21120  -1.18425
 Alpha  occ. eigenvalues --   -1.16534  -1.15714  -1.14757  -1.14346  -1.13579
 Alpha  occ. eigenvalues --   -1.12842  -1.10335  -1.08773  -1.05295  -1.04251
 Alpha  occ. eigenvalues --   -1.03451  -1.01404  -0.99356  -0.97816  -0.95555
 Alpha  occ. eigenvalues --   -0.94968  -0.93992  -0.93881  -0.93360  -0.92157
 Alpha  occ. eigenvalues --   -0.91499  -0.89746  -0.89108  -0.88362  -0.86787
 Alpha  occ. eigenvalues --   -0.85820  -0.84529  -0.83642  -0.82693  -0.81822
 Alpha  occ. eigenvalues --   -0.80887  -0.78656  -0.77814  -0.77761  -0.76906
 Alpha  occ. eigenvalues --   -0.76444  -0.75387  -0.74869  -0.73393  -0.73122
 Alpha  occ. eigenvalues --   -0.72731  -0.72024  -0.71755  -0.71126  -0.70713
 Alpha  occ. eigenvalues --   -0.70563  -0.70219  -0.69496  -0.68792  -0.67962
 Alpha  occ. eigenvalues --   -0.67526  -0.66461  -0.66186  -0.65902  -0.65614
 Alpha  occ. eigenvalues --   -0.65336  -0.64953  -0.64546  -0.63924  -0.63545
 Alpha  occ. eigenvalues --   -0.63276  -0.62728  -0.62538  -0.62389  -0.62173
 Alpha  occ. eigenvalues --   -0.61883  -0.61241  -0.60887  -0.60552  -0.59792
 Alpha  occ. eigenvalues --   -0.59534  -0.58869  -0.58641  -0.58433  -0.58255
 Alpha  occ. eigenvalues --   -0.57893  -0.57800  -0.57527  -0.57193  -0.56488
 Alpha  occ. eigenvalues --   -0.56423  -0.56211  -0.55795  -0.55397  -0.55308
 Alpha  occ. eigenvalues --   -0.54346  -0.53647  -0.53608  -0.53294  -0.53068
 Alpha  occ. eigenvalues --   -0.52781  -0.52622  -0.52218  -0.51652  -0.51388
 Alpha  occ. eigenvalues --   -0.51353  -0.50803  -0.50507  -0.50307  -0.50106
 Alpha  occ. eigenvalues --   -0.49588  -0.49294  -0.49201  -0.49014  -0.48729
 Alpha  occ. eigenvalues --   -0.48695  -0.48412  -0.48252  -0.47998  -0.47658
 Alpha  occ. eigenvalues --   -0.47576  -0.47485  -0.47155  -0.47138  -0.46777
 Alpha  occ. eigenvalues --   -0.46747  -0.46682  -0.46480  -0.46439  -0.46190
 Alpha  occ. eigenvalues --   -0.45780  -0.45270  -0.44777  -0.44644  -0.44178
 Alpha  occ. eigenvalues --   -0.44049  -0.42597  -0.42553  -0.42511  -0.42335
 Alpha  occ. eigenvalues --   -0.42250  -0.41494  -0.41140  -0.39440  -0.39325
 Alpha  occ. eigenvalues --   -0.38307  -0.37871  -0.36796  -0.35506  -0.35018
 Alpha  occ. eigenvalues --   -0.34302  -0.33141  -0.32148  -0.31991  -0.27658
 Alpha  occ. eigenvalues --   -0.22057
 Alpha virt. eigenvalues --   -0.08957  -0.02448  -0.00961   0.00079   0.00693
 Alpha virt. eigenvalues --    0.01585   0.02210   0.02559   0.04023   0.04168
 Alpha virt. eigenvalues --    0.05687   0.06225   0.06927   0.07679   0.07997

 Mulliken charges:
               1
     1  Mg   0.436988
     2  C   -0.038005
     3  C   -0.079657
     4  C   -0.112523
     5  C   -0.062354
     6  N   -0.280522
     7  C    0.096297
     8  C   -0.016816
     9  C   -0.000508
    10  C    0.160538
    11  C   -0.050307
    12  C   -0.033648
    13  C    0.010535
    14  C    0.469493
    15  O   -0.502560
    16  O   -0.275054
    17  N   -0.318377
    18  C    0.143985
    19  C    0.053996
    20  C   -0.058693
    21  C    0.149270
    22  C   -0.035163
    23  C    0.330307
    24  O   -0.513447
    25  C   -0.030279
    26  N   -0.272544
    27  C    0.169969
    28  C   -0.007596
    29  C    0.000942
    30  C    0.113832
    31  C   -0.052126
    32  C   -0.039013
    33  C   -0.073028
    34  N   -0.337512
    35  C    0.081007
    36  C   -0.004524
    37  C   -0.040963
    38  C    0.096200
    39  C   -0.037524
    40  C    0.322816
    41  O   -0.527185
    42  C    0.055315
    43  C    0.488521
    44  O   -0.540652
    45  O   -0.255065
    46  C    0.071429
    47  C    0.105050
    48  C   -0.093862
    49  C   -0.006302
    50  C   -0.049756
    51  C   -0.021396
    52  C   -0.031861
    53  C   -0.033015
    54  C   -0.016257
    55  C   -0.065329
    56  C   -0.026346
    57  C   -0.038913
    58  C   -0.041241
    59  C   -0.014748
    60  C   -0.058706
    61  C   -0.038400
    62  C   -0.050835
    63  C   -0.035065
    64  C   -0.007916
    65  C   -0.063309
    66  C   -0.058274
    67  H    0.037585
    68  H    0.022115
    69  H    0.023320
    70  H    0.036516
    71  H    0.033093
    72  H    0.011090
    73  H    0.022177
    74  H    0.036603
    75  H    0.037451
    76  H    0.025138
    77  H    0.041764
    78  H    0.046628
    79  H    0.047756
    80  H    0.020203
    81  H    0.041831
    82  H    0.043032
    83  H    0.043330
    84  H    0.032671
    85  H    0.035779
    86  H    0.029526
    87  H    0.022164
    88  H    0.030294
    89  H    0.011882
    90  H    0.024929
    91  H    0.034877
    92  H    0.038047
    93  H    0.010744
    94  H    0.016767
    95  H    0.040075
    96  H    0.012952
    97  H    0.037112
    98  H    0.063216
    99  H    0.041768
   100  H    0.045105
   101  H    0.040859
   102  H    0.058219
   103  H    0.039504
   104  H    0.025447
   105  H    0.006499
   106  H    0.039530
   107  H    0.035393
   108  H    0.023742
   109  H    0.017225
   110  H    0.021448
   111  H    0.025113
   112  H    0.013492
   113  H    0.026929
   114  H    0.026751
   115  H    0.024332
   116  H    0.025907
   117  H    0.012724
   118  H    0.009532
   119  H    0.012844
   120  H    0.011263
   121  H    0.014503
   122  H    0.021346
   123  H    0.023172
   124  H    0.027173
   125  H    0.029137
   126  H    0.007135
   127  H    0.020766
   128  H    0.027425
   129  H    0.019668
   130  H    0.012813
   131  H    0.014950
   132  H    0.025523
   133  H    0.013861
   134  H    0.026379
   135  H    0.023363
   136  H    0.019356
   137  H    0.009495
   138  H    0.016995
   139  H    0.013377
   140  H    0.029959
 Sum of Mulliken charges =  -0.00000

 Dipole moment (field-independent basis, Debye):
    X=              1.0169    Y=              9.9667    Z=             -0.9179  Tot=             10.0604
 N-N= 4.294547640227D+03 E-N= 0.000000000000D+00  KE=-9.262806271201D+03
 Leave Link  601 at Wed Apr 27 14:51:19 2022, MaxMem=  6710886400 cpu:               0.8 elap:               0.1
 (Enter /sw/apps/gaussian-16.0/g16/l9999.exe)
 1\1\GINC-BP1-COMPUTE142\SP\RZINDO CIS\STO-3G\C55H74Mg1N4O6\OF15641\27-
 Apr-2022\0\\#p ZINDO=(nstates=5)\\step_1201_chromophore_14 ZINDO\\0,1\
 Mg,0,46.983,45.711,43.832\C,0,43.603,44.747,43.48\C,0,47.827,42.453,42
 .571\C,0,50.076,46.62,43.258\C,0,45.862,48.996,44.07\N,0,45.875,43.917
 ,43.1\C,0,44.497,43.739,43.202\C,0,44.075,42.268,42.955\C,0,45.464,41.
 578,42.755\C,0,46.463,42.735,42.755\C,0,45.698,40.432,43.814\C,0,42.98
 6,41.922,41.787\C,0,43.207,42.547,40.396\C,0,43.026,41.644,39.171\O,0,

 Normal termination of Gaussian 16 at Wed Apr 27 14:51:19 2022.
