 Gaussian 16, Revision A.03,
 Gaussian 16:  ES64L-G16RevA.03 25-Dec-2016

 ------------------------------
 #p blyp/Def2SVP td=(nstates=5)
 ------------------------------

 ---------------------------------------------------
 step_1501_chromophore_23 TDDFT with blyp functional
 ---------------------------------------------------
 Symbolic Z-matrix:
 Charge =  0 Multiplicity = 1

                         Standard orientation:
 ---------------------------------------------------------------------
 Center     Atomic      Atomic             Coordinates (Angstroms)
 Number     Number       Type             X           Y           Z
 ---------------------------------------------------------------------
      1         12           0       -4.398384   -0.421642   -0.161501
      2          6           0       -3.043593    2.838730    0.353464
      3          6           0       -2.309859   -0.714815   -2.854692
      4          6           0       -5.415319   -3.629954   -0.502632
      5          6           0       -6.124789   -0.034795    2.730892
      6          7           0       -2.847207    0.921729   -1.085849
      7          6           0       -2.457435    2.212504   -0.675862
      8          6           0       -1.410430    2.770020   -1.657158
      9          6           0       -1.491814    1.768733   -2.867465
     10          6           0       -2.246747    0.556654   -2.250555
     11          6           0       -2.115764    2.283501   -4.134286
     12          6           0       -0.020365    2.706721   -0.938962
     13          6           0        0.822837    4.052632   -1.083286
     14          6           0        2.059995    3.891339   -1.870946
     15          8           0        2.132124    3.731001   -3.068546
     16          8           0        3.139711    4.028590   -1.087447
     17          7           0       -3.811571   -2.048438   -1.397480
     18          6           0       -3.084963   -1.896156   -2.608852
     19          6           0       -3.164248   -3.075914   -3.419068
     20          6           0       -4.047772   -3.984808   -2.651205
     21          6           0       -4.444140   -3.233337   -1.434049
     22          6           0       -2.537803   -3.181258   -4.803049
     23          6           0       -4.338305   -5.352805   -3.160387
     24          8           0       -3.946195   -5.818368   -4.237463
     25          6           0       -5.299241   -6.242623   -2.382255
     26          7           0       -5.451241   -1.663265    1.109918
     27          6           0       -5.857624   -2.973749    0.671991
     28          6           0       -6.747636   -3.635539    1.733936
     29          6           0       -6.760051   -2.560970    2.849103
     30          6           0       -6.124228   -1.315919    2.188516
     31          6           0       -8.081843   -4.125372    1.202520
     32          6           0       -6.110667   -2.945090    4.257678
     33          6           0       -6.962360   -2.737634    5.475556
     34          7           0       -4.663198    1.131514    1.219994
     35          6           0       -5.421852    1.160687    2.362720
     36          6           0       -5.481911    2.427504    2.909473
     37          6           0       -4.555348    3.149988    2.136992
     38          6           0       -4.061055    2.302361    1.170354
     39          6           0       -6.285070    2.807134    4.102027
     40          6           0       -3.997716    4.499331    1.931892
     41          8           0       -4.176033    5.646877    2.475282
     42          6           0       -2.859428    4.262948    0.838336
     43          6           0       -3.102172    5.229255   -0.294212
     44          8           0       -4.161017    5.486091   -0.800353
     45          8           0       -1.897221    5.900845   -0.525827
     46          6           0       -2.097315    6.997887   -1.475128
     47          6           0        4.498757    3.930979   -1.668298
     48          6           0        5.534628    3.309927   -0.667784
     49          6           0        5.971469    2.035974   -0.610064
     50          6           0        5.413385    0.957805   -1.482090
     51          6           0        7.041660    1.643202    0.393201
     52          6           0        8.320546    0.991860   -0.286762
     53          6           0        9.705049    1.465440    0.312293
     54          6           0       10.697109    0.319878    0.711277
     55          6           0       12.187055    0.803541    0.504386
     56          6           0       10.431078   -0.188191    2.135910
     57          6           0       10.050494   -1.710201    2.170542
     58          6           0        8.870441   -2.050551    3.223311
     59          6           0        7.424854   -2.206986    2.579737
     60          6           0        6.340248   -1.360261    3.257627
     61          6           0        7.139108   -3.731404    2.653279
     62          6           0        7.291704   -4.544193    1.331604
     63          6           0        6.044616   -4.941049    0.526905
     64          6           0        6.206812   -4.427189   -0.940045
     65          6           0        5.645605   -2.958510   -1.095902
     66          6           0        5.578160   -5.408700   -1.987009
     67          1           0       -1.715545   -0.731905   -3.771053
     68          1           0       -5.909221   -4.586907   -0.687263
     69          1           0       -6.649004   -0.061791    3.688394
     70          1           0       -1.717041    3.699677   -2.136909
     71          1           0       -0.500165    1.388461   -3.109283
     72          1           0       -1.316226    2.819116   -4.647142
     73          1           0       -2.731401    3.110302   -3.779383
     74          1           0       -2.609248    1.521669   -4.737295
     75          1           0        0.600218    1.871465   -1.262496
     76          1           0       -0.184114    2.715911    0.138052
     77          1           0        1.040277    4.430544   -0.084435
     78          1           0        0.258165    4.838854   -1.582811
     79          1           0       -3.336734   -3.258323   -5.540960
     80          1           0       -1.939528   -4.092595   -4.816312
     81          1           0       -1.941924   -2.280121   -4.947152
     82          1           0       -6.322052   -5.874548   -2.468174
     83          1           0       -5.135918   -6.353768   -1.311013
     84          1           0       -5.325698   -7.208219   -2.886974
     85          1           0       -6.079458   -4.427415    2.072549
     86          1           0       -7.796099   -2.259692    3.004141
     87          1           0       -8.114584   -5.209886    1.308827
     88          1           0       -8.263363   -3.771692    0.188229
     89          1           0       -8.854262   -3.699381    1.842309
     90          1           0       -5.105044   -2.563427    4.435907
     91          1           0       -6.104126   -4.034476    4.223165
     92          1           0       -7.574722   -1.859782    5.267413
     93          1           0       -6.327129   -2.687104    6.359319
     94          1           0       -7.697479   -3.509855    5.699119
     95          1           0       -6.503402    3.874185    4.069619
     96          1           0       -5.668821    2.472939    4.936927
     97          1           0       -7.234128    2.272084    4.136915
     98          1           0       -1.867583    4.376997    1.275018
     99          1           0       -1.124128    7.458587   -1.645750
    100          1           0       -2.851810    7.743811   -1.224178
    101          1           0       -2.452190    6.622698   -2.434744
    102          1           0        4.702553    4.927581   -2.061102
    103          1           0        4.522397    3.169166   -2.447514
    104          1           0        6.071023    4.089758   -0.126748
    105          1           0        4.374818    1.221208   -1.680189
    106          1           0        5.316720    0.108924   -0.804711
    107          1           0        6.041188    0.765786   -2.352375
    108          1           0        6.646135    0.790416    0.945464
    109          1           0        7.230625    2.430886    1.122150
    110          1           0        8.305354    1.400157   -1.297448
    111          1           0        8.204122   -0.077486   -0.463272
    112          1           0        9.500019    2.041767    1.214332
    113          1           0       10.252478    2.057318   -0.421075
    114          1           0       10.514076   -0.308477   -0.161005
    115          1           0       12.521858    0.317259   -0.411443
    116          1           0       12.832704    0.595812    1.357258
    117          1           0       12.105533    1.881156    0.358958
    118          1           0        9.604190    0.350291    2.600385
    119          1           0       11.326992    0.033853    2.715899
    120          1           0       10.880860   -2.325446    2.516269
    121          1           0        9.618305   -2.110637    1.252652
    122          1           0        8.797705   -1.229904    3.936420
    123          1           0        9.197897   -2.910897    3.807204
    124          1           0        7.429085   -1.899899    1.534696
    125          1           0        5.453620   -1.577268    2.662230
    126          1           0        6.549373   -0.309173    3.060946
    127          1           0        6.137412   -1.621450    4.296241
    128          1           0        6.172617   -3.986889    3.088548
    129          1           0        7.735936   -4.165290    3.455766
    130          1           0        7.998512   -5.365400    1.455200
    131          1           0        7.817044   -3.813096    0.717852
    132          1           0        5.094296   -4.573399    0.914114
    133          1           0        5.997878   -6.029659    0.509991
    134          1           0        7.264721   -4.342714   -1.186022
    135          1           0        5.500963   -2.514379   -0.111246
    136          1           0        4.762300   -2.969173   -1.734713
    137          1           0        6.375191   -2.310634   -1.580861
    138          1           0        6.387587   -5.938670   -2.489664
    139          1           0        5.054078   -4.743366   -2.672600
    140          1           0        4.917018   -6.187139   -1.607515
 ---------------------------------------------------------------------

 SCF Done:  E(RB-LYP) =  -3007.36760250     A.U. after   22 cycles

 Excitation energies and oscillator strengths:

 Excited State   1:      Singlet-A      1.6925 eV  732.55 nm  f=0.0009  <S**2>=0.000
     244 -> 247        0.70485
 This state for optimization and/or second-order correction.
 Total Energy, E(TD-HF/TD-DFT) =  -3007.30540428
 Copying the excited state density for this state as the 1-particle RhoCI density.

 Excited State   2:      Singlet-A      1.7247 eV  718.88 nm  f=0.0031  <S**2>=0.000
     243 -> 247        0.70241

 Excited State   3:      Singlet-A      1.7739 eV  698.94 nm  f=0.2731  <S**2>=0.000
     245 -> 248       -0.15984
     246 -> 247        0.68984
     246 <- 247       -0.16111

 Excited State   4:      Singlet-A      1.9964 eV  621.04 nm  f=0.1373  <S**2>=0.000
     240 -> 247        0.11593
     245 -> 247        0.65551
     246 -> 248        0.19570

 Excited State   5:      Singlet-A      2.2093 eV  561.18 nm  f=0.0009  <S**2>=0.000
     240 -> 247        0.12208
     241 -> 247        0.66494
     242 -> 247        0.20132

 The electronic state is 1-A.
 Alpha  occ. eigenvalues --  -46.27407 -18.82613 -18.81077 -18.77724 -18.75831
 Alpha  occ. eigenvalues --  -18.75511 -18.75285 -14.03443 -14.03427 -14.01523
 Alpha  occ. eigenvalues --  -14.00562 -10.04091 -10.02817 -10.00149  -9.99626
 Alpha  occ. eigenvalues --   -9.97801  -9.97572  -9.97445  -9.96858  -9.96702
 Alpha  occ. eigenvalues --   -9.96543  -9.96502  -9.96262  -9.95161  -9.94505
 Alpha  occ. eigenvalues --   -9.94485  -9.94416  -9.94379  -9.94178  -9.94044
 Alpha  occ. eigenvalues --   -9.94034  -9.93558  -9.93543  -9.93532  -9.93448
 Alpha  occ. eigenvalues --   -9.93406  -9.93398  -9.93288  -9.93191  -9.92996
 Alpha  occ. eigenvalues --   -9.92817  -9.92727  -9.92606  -9.92548  -9.92500
 Alpha  occ. eigenvalues --   -9.92431  -9.92424  -9.92316  -9.92316  -9.92244
 Alpha  occ. eigenvalues --   -9.92213  -9.92056  -9.91880  -9.91765  -9.91672
 Alpha  occ. eigenvalues --   -9.91659  -9.91467  -9.91357  -9.91327  -9.91252
 Alpha  occ. eigenvalues --   -9.91224  -9.91117  -9.91021  -9.91019  -9.90840
 Alpha  occ. eigenvalues --   -9.90630  -2.92007  -1.72434  -1.71856  -1.71747
 Alpha  occ. eigenvalues --   -0.98127  -0.97730  -0.91016  -0.90569  -0.89201
 Alpha  occ. eigenvalues --   -0.88423  -0.87478  -0.86060  -0.85309  -0.84649
 Alpha  occ. eigenvalues --   -0.76008  -0.73836  -0.73086  -0.72692  -0.72579
 Alpha  occ. eigenvalues --   -0.72234  -0.71883  -0.71229  -0.70772  -0.70578
 Alpha  occ. eigenvalues --   -0.69747  -0.69141  -0.68508  -0.67747  -0.67241
 Alpha  occ. eigenvalues --   -0.66351  -0.65967  -0.65136  -0.65025  -0.64719
 Alpha  occ. eigenvalues --   -0.64321  -0.62738  -0.62534  -0.61689  -0.60860
 Alpha  occ. eigenvalues --   -0.60780  -0.60496  -0.60118  -0.59987  -0.58826
 Alpha  occ. eigenvalues --   -0.58728  -0.58112  -0.57119  -0.55676  -0.54592
 Alpha  occ. eigenvalues --   -0.54191  -0.53644  -0.53107  -0.52552  -0.52155
 Alpha  occ. eigenvalues --   -0.51574  -0.51003  -0.50859  -0.50586  -0.50007
 Alpha  occ. eigenvalues --   -0.49249  -0.48981  -0.48889  -0.48810  -0.46669
 Alpha  occ. eigenvalues --   -0.46260  -0.45883  -0.45572  -0.45494  -0.44888
 Alpha  occ. eigenvalues --   -0.44485  -0.43744  -0.43601  -0.43112  -0.42360
 Alpha  occ. eigenvalues --   -0.42221  -0.41837  -0.41596  -0.41277  -0.41163
 Alpha  occ. eigenvalues --   -0.40705  -0.40600  -0.40490  -0.40241  -0.40215
 Alpha  occ. eigenvalues --   -0.39962  -0.39921  -0.39624  -0.39530  -0.39375
 Alpha  occ. eigenvalues --   -0.39197  -0.38795  -0.38739  -0.38495  -0.38202
 Alpha  occ. eigenvalues --   -0.38155  -0.38005  -0.37913  -0.37643  -0.37509
 Alpha  occ. eigenvalues --   -0.37274  -0.37046  -0.36984  -0.36790  -0.36526
 Alpha  occ. eigenvalues --   -0.36307  -0.36160  -0.36080  -0.35698  -0.35617
 Alpha  occ. eigenvalues --   -0.35253  -0.35034  -0.34948  -0.34916  -0.34746
 Alpha  occ. eigenvalues --   -0.34625  -0.34550  -0.34439  -0.34320  -0.34009
 Alpha  occ. eigenvalues --   -0.33982  -0.33903  -0.33585  -0.33501  -0.33350
 Alpha  occ. eigenvalues --   -0.33138  -0.33039  -0.32834  -0.32677  -0.32426
 Alpha  occ. eigenvalues --   -0.32252  -0.32114  -0.31816  -0.31636  -0.31496
 Alpha  occ. eigenvalues --   -0.31425  -0.31188  -0.31107  -0.30872  -0.30700
 Alpha  occ. eigenvalues --   -0.30618  -0.30217  -0.29981  -0.29924  -0.29842
 Alpha  occ. eigenvalues --   -0.29792  -0.29579  -0.29479  -0.29414  -0.29002
 Alpha  occ. eigenvalues --   -0.28721  -0.28534  -0.28138  -0.28078  -0.28007
 Alpha  occ. eigenvalues --   -0.27612  -0.27276  -0.26915  -0.26883  -0.26804
 Alpha  occ. eigenvalues --   -0.26743  -0.26501  -0.25769  -0.25626  -0.25614
 Alpha  occ. eigenvalues --   -0.25232  -0.24733  -0.24552  -0.24365  -0.23705
 Alpha  occ. eigenvalues --   -0.23454  -0.23090  -0.22357  -0.21628  -0.20682
 Alpha  occ. eigenvalues --   -0.20523  -0.20430  -0.18648  -0.18552  -0.17867
 Alpha  occ. eigenvalues --   -0.16462
 Alpha virt. eigenvalues --   -0.12411  -0.07330  -0.06313  -0.04716  -0.03085
 Alpha virt. eigenvalues --   -0.02923  -0.02663  -0.01929  -0.01148   0.00028
 Alpha virt. eigenvalues --    0.00753   0.01078   0.01595   0.02279   0.02342

 Mulliken charges:
               1
     1  Mg   0.683667
     2  C    0.015800
     3  C   -0.025903
     4  C   -0.054822
     5  C   -0.078419
     6  N   -0.215713
     7  C   -0.113469
     8  C    0.023722
     9  C   -0.022498
    10  C   -0.018615
    11  C    0.159611
    12  C    0.129771
    13  C    0.152391
    14  C    0.013229
    15  O   -0.200737
    16  O   -0.260717
    17  N   -0.283755
    18  C    0.125208
    19  C   -0.136996
    20  C    0.013344
    21  C    0.151977
    22  C    0.207456
    23  C   -0.078592
    24  O   -0.178033
    25  C    0.111376
    26  N   -0.259191
    27  C   -0.001548
    28  C    0.009306
    29  C    0.032109
    30  C   -0.011469
    31  C    0.171631
    32  C    0.118927
    33  C    0.051086
    34  N   -0.213832
    35  C    0.132733
    36  C   -0.184629
    37  C    0.071217
    38  C    0.068912
    39  C    0.188959
    40  C    0.004909
    41  O   -0.188992
    42  C    0.084793
    43  C    0.097520
    44  O   -0.145789
    45  O   -0.286611
    46  C    0.225740
    47  C    0.286710
    48  C   -0.093826
    49  C   -0.175395
    50  C    0.163972
    51  C    0.153765
    52  C    0.033917
    53  C    0.084712
    54  C   -0.125745
    55  C    0.109139
    56  C    0.165812
    57  C    0.063229
    58  C    0.073356
    59  C   -0.090694
    60  C    0.106447
    61  C    0.105079
    62  C    0.052226
    63  C    0.146768
    64  C   -0.135428
    65  C    0.067844
    66  C    0.110306
    67  H   -0.063511
    68  H   -0.086316
    69  H   -0.072806
    70  H   -0.007939
    71  H   -0.028354
    72  H    0.000373
    73  H   -0.014629
    74  H    0.005339
    75  H    0.006736
    76  H   -0.011632
    77  H   -0.016136
    78  H    0.001290
    79  H    0.015908
    80  H    0.016449
    81  H   -0.024381
    82  H    0.008118
    83  H    0.007014
    84  H   -0.015479
    85  H   -0.016064
    86  H   -0.040030
    87  H    0.000604
    88  H    0.003239
    89  H   -0.015835
    90  H   -0.000470
    91  H   -0.027924
    92  H   -0.008538
    93  H   -0.003225
    94  H   -0.013513
    95  H    0.016025
    96  H    0.009640
    97  H   -0.009943
    98  H    0.000701
    99  H    0.012057
   100  H    0.020872
   101  H   -0.003720
   102  H   -0.001328
   103  H   -0.007323
   104  H   -0.042477
   105  H    0.002926
   106  H   -0.015819
   107  H    0.026130
   108  H   -0.019516
   109  H   -0.024006
   110  H   -0.029150
   111  H   -0.010176
   112  H   -0.030449
   113  H   -0.031886
   114  H   -0.035321
   115  H   -0.010992
   116  H   -0.012902
   117  H   -0.019649
   118  H   -0.027355
   119  H   -0.031660
   120  H   -0.029932
   121  H   -0.017912
   122  H   -0.044828
   123  H   -0.031027
   124  H   -0.027321
   125  H   -0.023058
   126  H   -0.002700
   127  H   -0.005875
   128  H   -0.055934
   129  H   -0.052781
   130  H   -0.028656
   131  H   -0.028866
   132  H   -0.028412
   133  H   -0.038179
   134  H   -0.029542
   135  H    0.004850
   136  H   -0.006567
   137  H   -0.016012
   138  H   -0.015402
   139  H   -0.024117
   140  H   -0.007954
 Sum of Mulliken charges =  -0.00000

 Dipole moment (field-independent basis, Debye):
    X=              1.1559    Y=             -3.2204    Z=              2.4586  Tot=              4.2132
 Quadrupole moment (field-independent basis, Debye-Ang):
   XX=           -368.3688   YY=           -436.8115   ZZ=           -413.7667
   XY=             28.6003   XZ=            -13.3215   YZ=            -36.2878

 Normal termination of Gaussian 16 at Wed May  4 08:53:13 2022.
