 Gaussian 16, Revision A.03,
 Gaussian 16:  ES64L-G16RevA.03 25-Dec-2016

 -----------------------------------
 #p cam-b3lyp/Def2SVP td=(nstates=5)
 -----------------------------------

 --------------------------------------------------------
 step_1501_chromophore_23 TDDFT with cam-b3lyp functional
 --------------------------------------------------------
 Symbolic Z-matrix:
 Charge =  0 Multiplicity = 1

                         Standard orientation:
 ---------------------------------------------------------------------
 Center     Atomic      Atomic             Coordinates (Angstroms)
 Number     Number       Type             X           Y           Z
 ---------------------------------------------------------------------
      1         12           0       -4.398384   -0.421642   -0.161501
      2          6           0       -3.043593    2.838730    0.353464
      3          6           0       -2.309859   -0.714815   -2.854692
      4          6           0       -5.415319   -3.629954   -0.502632
      5          6           0       -6.124789   -0.034795    2.730892
      6          7           0       -2.847207    0.921729   -1.085849
      7          6           0       -2.457435    2.212504   -0.675862
      8          6           0       -1.410430    2.770020   -1.657158
      9          6           0       -1.491814    1.768733   -2.867465
     10          6           0       -2.246747    0.556654   -2.250555
     11          6           0       -2.115764    2.283501   -4.134286
     12          6           0       -0.020365    2.706721   -0.938962
     13          6           0        0.822837    4.052632   -1.083286
     14          6           0        2.059995    3.891339   -1.870946
     15          8           0        2.132124    3.731001   -3.068546
     16          8           0        3.139711    4.028590   -1.087447
     17          7           0       -3.811571   -2.048438   -1.397480
     18          6           0       -3.084963   -1.896156   -2.608852
     19          6           0       -3.164248   -3.075914   -3.419068
     20          6           0       -4.047772   -3.984808   -2.651205
     21          6           0       -4.444140   -3.233337   -1.434049
     22          6           0       -2.537803   -3.181258   -4.803049
     23          6           0       -4.338305   -5.352805   -3.160387
     24          8           0       -3.946195   -5.818368   -4.237463
     25          6           0       -5.299241   -6.242623   -2.382255
     26          7           0       -5.451241   -1.663265    1.109918
     27          6           0       -5.857624   -2.973749    0.671991
     28          6           0       -6.747636   -3.635539    1.733936
     29          6           0       -6.760051   -2.560970    2.849103
     30          6           0       -6.124228   -1.315919    2.188516
     31          6           0       -8.081843   -4.125372    1.202520
     32          6           0       -6.110667   -2.945090    4.257678
     33          6           0       -6.962360   -2.737634    5.475556
     34          7           0       -4.663198    1.131514    1.219994
     35          6           0       -5.421852    1.160687    2.362720
     36          6           0       -5.481911    2.427504    2.909473
     37          6           0       -4.555348    3.149988    2.136992
     38          6           0       -4.061055    2.302361    1.170354
     39          6           0       -6.285070    2.807134    4.102027
     40          6           0       -3.997716    4.499331    1.931892
     41          8           0       -4.176033    5.646877    2.475282
     42          6           0       -2.859428    4.262948    0.838336
     43          6           0       -3.102172    5.229255   -0.294212
     44          8           0       -4.161017    5.486091   -0.800353
     45          8           0       -1.897221    5.900845   -0.525827
     46          6           0       -2.097315    6.997887   -1.475128
     47          6           0        4.498757    3.930979   -1.668298
     48          6           0        5.534628    3.309927   -0.667784
     49          6           0        5.971469    2.035974   -0.610064
     50          6           0        5.413385    0.957805   -1.482090
     51          6           0        7.041660    1.643202    0.393201
     52          6           0        8.320546    0.991860   -0.286762
     53          6           0        9.705049    1.465440    0.312293
     54          6           0       10.697109    0.319878    0.711277
     55          6           0       12.187055    0.803541    0.504386
     56          6           0       10.431078   -0.188191    2.135910
     57          6           0       10.050494   -1.710201    2.170542
     58          6           0        8.870441   -2.050551    3.223311
     59          6           0        7.424854   -2.206986    2.579737
     60          6           0        6.340248   -1.360261    3.257627
     61          6           0        7.139108   -3.731404    2.653279
     62          6           0        7.291704   -4.544193    1.331604
     63          6           0        6.044616   -4.941049    0.526905
     64          6           0        6.206812   -4.427189   -0.940045
     65          6           0        5.645605   -2.958510   -1.095902
     66          6           0        5.578160   -5.408700   -1.987009
     67          1           0       -1.715545   -0.731905   -3.771053
     68          1           0       -5.909221   -4.586907   -0.687263
     69          1           0       -6.649004   -0.061791    3.688394
     70          1           0       -1.717041    3.699677   -2.136909
     71          1           0       -0.500165    1.388461   -3.109283
     72          1           0       -1.316226    2.819116   -4.647142
     73          1           0       -2.731401    3.110302   -3.779383
     74          1           0       -2.609248    1.521669   -4.737295
     75          1           0        0.600218    1.871465   -1.262496
     76          1           0       -0.184114    2.715911    0.138052
     77          1           0        1.040277    4.430544   -0.084435
     78          1           0        0.258165    4.838854   -1.582811
     79          1           0       -3.336734   -3.258323   -5.540960
     80          1           0       -1.939528   -4.092595   -4.816312
     81          1           0       -1.941924   -2.280121   -4.947152
     82          1           0       -6.322052   -5.874548   -2.468174
     83          1           0       -5.135918   -6.353768   -1.311013
     84          1           0       -5.325698   -7.208219   -2.886974
     85          1           0       -6.079458   -4.427415    2.072549
     86          1           0       -7.796099   -2.259692    3.004141
     87          1           0       -8.114584   -5.209886    1.308827
     88          1           0       -8.263363   -3.771692    0.188229
     89          1           0       -8.854262   -3.699381    1.842309
     90          1           0       -5.105044   -2.563427    4.435907
     91          1           0       -6.104126   -4.034476    4.223165
     92          1           0       -7.574722   -1.859782    5.267413
     93          1           0       -6.327129   -2.687104    6.359319
     94          1           0       -7.697479   -3.509855    5.699119
     95          1           0       -6.503402    3.874185    4.069619
     96          1           0       -5.668821    2.472939    4.936927
     97          1           0       -7.234128    2.272084    4.136915
     98          1           0       -1.867583    4.376997    1.275018
     99          1           0       -1.124128    7.458587   -1.645750
    100          1           0       -2.851810    7.743811   -1.224178
    101          1           0       -2.452190    6.622698   -2.434744
    102          1           0        4.702553    4.927581   -2.061102
    103          1           0        4.522397    3.169166   -2.447514
    104          1           0        6.071023    4.089758   -0.126748
    105          1           0        4.374818    1.221208   -1.680189
    106          1           0        5.316720    0.108924   -0.804711
    107          1           0        6.041188    0.765786   -2.352375
    108          1           0        6.646135    0.790416    0.945464
    109          1           0        7.230625    2.430886    1.122150
    110          1           0        8.305354    1.400157   -1.297448
    111          1           0        8.204122   -0.077486   -0.463272
    112          1           0        9.500019    2.041767    1.214332
    113          1           0       10.252478    2.057318   -0.421075
    114          1           0       10.514076   -0.308477   -0.161005
    115          1           0       12.521858    0.317259   -0.411443
    116          1           0       12.832704    0.595812    1.357258
    117          1           0       12.105533    1.881156    0.358958
    118          1           0        9.604190    0.350291    2.600385
    119          1           0       11.326992    0.033853    2.715899
    120          1           0       10.880860   -2.325446    2.516269
    121          1           0        9.618305   -2.110637    1.252652
    122          1           0        8.797705   -1.229904    3.936420
    123          1           0        9.197897   -2.910897    3.807204
    124          1           0        7.429085   -1.899899    1.534696
    125          1           0        5.453620   -1.577268    2.662230
    126          1           0        6.549373   -0.309173    3.060946
    127          1           0        6.137412   -1.621450    4.296241
    128          1           0        6.172617   -3.986889    3.088548
    129          1           0        7.735936   -4.165290    3.455766
    130          1           0        7.998512   -5.365400    1.455200
    131          1           0        7.817044   -3.813096    0.717852
    132          1           0        5.094296   -4.573399    0.914114
    133          1           0        5.997878   -6.029659    0.509991
    134          1           0        7.264721   -4.342714   -1.186022
    135          1           0        5.500963   -2.514379   -0.111246
    136          1           0        4.762300   -2.969173   -1.734713
    137          1           0        6.375191   -2.310634   -1.580861
    138          1           0        6.387587   -5.938670   -2.489664
    139          1           0        5.054078   -4.743366   -2.672600
    140          1           0        4.917018   -6.187139   -1.607515
 ---------------------------------------------------------------------

 SCF Done:  E(RCAM-B3LYP) =  -3007.15614472     A.U. after   17 cycles

 Excitation energies and oscillator strengths:

 Excited State   1:      Singlet-A      1.6713 eV  741.84 nm  f=0.3785  <S**2>=0.000
     245 -> 248        0.15234
     246 -> 247        0.69047
 This state for optimization and/or second-order correction.
 Total Energy, E(TD-HF/TD-DFT) =  -3007.09472531
 Copying the excited state density for this state as the 1-particle RhoCI density.

 Excited State   2:      Singlet-A      2.1963 eV  564.51 nm  f=0.1789  <S**2>=0.000
     245 -> 247        0.65524
     246 -> 248       -0.23776

 Excited State   3:      Singlet-A      3.1416 eV  394.66 nm  f=0.0028  <S**2>=0.000
     243 -> 247        0.49122
     244 -> 247       -0.48922

 Excited State   4:      Singlet-A      3.2558 eV  380.81 nm  f=0.0156  <S**2>=0.000
     241 -> 247       -0.12195
     241 -> 249        0.10461
     243 -> 247        0.47299
     244 -> 247        0.46508

 Excited State   5:      Singlet-A      3.3519 eV  369.89 nm  f=0.0006  <S**2>=0.000
     241 -> 247        0.55766
     241 -> 249       -0.29676
     241 -> 250       -0.19451
     243 -> 247        0.10145
     244 -> 247        0.13967

 The electronic state is 1-A.
 Alpha  occ. eigenvalues --  -46.88977 -19.25591 -19.23963 -19.20873 -19.18787
 Alpha  occ. eigenvalues --  -19.18696 -19.18458 -14.42558 -14.42205 -14.40209
 Alpha  occ. eigenvalues --  -14.38747 -10.39563 -10.38006 -10.35485 -10.35075
 Alpha  occ. eigenvalues --  -10.32435 -10.32028 -10.31645 -10.31548 -10.31459
 Alpha  occ. eigenvalues --  -10.31030 -10.30853 -10.30676 -10.29494 -10.28945
 Alpha  occ. eigenvalues --  -10.28524 -10.28475 -10.28401 -10.28379 -10.28141
 Alpha  occ. eigenvalues --  -10.28053 -10.27992 -10.27869 -10.27743 -10.27660
 Alpha  occ. eigenvalues --  -10.27641 -10.27569 -10.27078 -10.27029 -10.26918
 Alpha  occ. eigenvalues --  -10.26649 -10.26530 -10.26502 -10.26486 -10.26303
 Alpha  occ. eigenvalues --  -10.26191 -10.26080 -10.26050 -10.26003 -10.25985
 Alpha  occ. eigenvalues --  -10.25850 -10.25845 -10.25699 -10.25609 -10.25483
 Alpha  occ. eigenvalues --  -10.25379 -10.25334 -10.25109 -10.25022 -10.24886
 Alpha  occ. eigenvalues --  -10.24856 -10.24787 -10.24766 -10.24623 -10.24457
 Alpha  occ. eigenvalues --  -10.24319  -3.17480  -1.92383  -1.91908  -1.91803
 Alpha  occ. eigenvalues --   -1.16730  -1.16247  -1.09146  -1.08978  -1.07081
 Alpha  occ. eigenvalues --   -1.06358  -1.05064  -1.03699  -1.03116  -1.02355
 Alpha  occ. eigenvalues --   -0.93095  -0.90740  -0.89758  -0.89483  -0.89364
 Alpha  occ. eigenvalues --   -0.89047  -0.88570  -0.87767  -0.87206  -0.87144
 Alpha  occ. eigenvalues --   -0.86341  -0.85786  -0.84732  -0.83924  -0.83431
 Alpha  occ. eigenvalues --   -0.82465  -0.82051  -0.81171  -0.80817  -0.80731
 Alpha  occ. eigenvalues --   -0.80103  -0.78354  -0.78027  -0.77555  -0.76253
 Alpha  occ. eigenvalues --   -0.76159  -0.75862  -0.75471  -0.75325  -0.74031
 Alpha  occ. eigenvalues --   -0.73834  -0.73138  -0.72097  -0.70534  -0.69036
 Alpha  occ. eigenvalues --   -0.68905  -0.68181  -0.67708  -0.66919  -0.66233
 Alpha  occ. eigenvalues --   -0.65779  -0.65227  -0.65059  -0.64506  -0.64044
 Alpha  occ. eigenvalues --   -0.63215  -0.62910  -0.62649  -0.62519  -0.60375
 Alpha  occ. eigenvalues --   -0.59838  -0.59370  -0.59084  -0.58854  -0.58519
 Alpha  occ. eigenvalues --   -0.57946  -0.57101  -0.56866  -0.56395  -0.55540
 Alpha  occ. eigenvalues --   -0.55355  -0.54951  -0.54530  -0.54320  -0.53890
 Alpha  occ. eigenvalues --   -0.53527  -0.53280  -0.53187  -0.52958  -0.52833
 Alpha  occ. eigenvalues --   -0.52683  -0.52543  -0.52277  -0.52095  -0.51905
 Alpha  occ. eigenvalues --   -0.51784  -0.51558  -0.51269  -0.51106  -0.50590
 Alpha  occ. eigenvalues --   -0.50509  -0.50397  -0.50220  -0.50121  -0.50013
 Alpha  occ. eigenvalues --   -0.49456  -0.49358  -0.49217  -0.49073  -0.48917
 Alpha  occ. eigenvalues --   -0.48569  -0.48504  -0.48281  -0.48060  -0.47745
 Alpha  occ. eigenvalues --   -0.47501  -0.47384  -0.47095  -0.46998  -0.46718
 Alpha  occ. eigenvalues --   -0.46590  -0.46561  -0.46350  -0.46134  -0.45832
 Alpha  occ. eigenvalues --   -0.45671  -0.45569  -0.45368  -0.45190  -0.45007
 Alpha  occ. eigenvalues --   -0.44829  -0.44775  -0.44567  -0.44409  -0.44251
 Alpha  occ. eigenvalues --   -0.44029  -0.43593  -0.43494  -0.43257  -0.43192
 Alpha  occ. eigenvalues --   -0.43043  -0.42627  -0.42479  -0.42310  -0.42071
 Alpha  occ. eigenvalues --   -0.41956  -0.41790  -0.41502  -0.41423  -0.41203
 Alpha  occ. eigenvalues --   -0.41106  -0.40911  -0.40688  -0.40430  -0.39964
 Alpha  occ. eigenvalues --   -0.39691  -0.39625  -0.39168  -0.39035  -0.38941
 Alpha  occ. eigenvalues --   -0.38743  -0.38283  -0.38202  -0.37706  -0.37593
 Alpha  occ. eigenvalues --   -0.37559  -0.37236  -0.37123  -0.36873  -0.36297
 Alpha  occ. eigenvalues --   -0.36039  -0.35829  -0.35394  -0.35168  -0.34814
 Alpha  occ. eigenvalues --   -0.33814  -0.33478  -0.33285  -0.31781  -0.31126
 Alpha  occ. eigenvalues --   -0.30645  -0.30597  -0.30052  -0.29651  -0.24701
 Alpha  occ. eigenvalues --   -0.21854
 Alpha virt. eigenvalues --   -0.09787  -0.01937   0.00068   0.02110   0.02280
 Alpha virt. eigenvalues --    0.04190   0.04966   0.05090   0.06148   0.06802
 Alpha virt. eigenvalues --    0.07073   0.07703   0.08408   0.08513   0.08848

 Mulliken charges:
               1
     1  Mg   0.815975
     2  C   -0.013594
     3  C   -0.041740
     4  C   -0.083104
     5  C   -0.082738
     6  N   -0.281115
     7  C   -0.076770
     8  C   -0.027679
     9  C   -0.068441
    10  C    0.003865
    11  C    0.098279
    12  C    0.080302
    13  C    0.080055
    14  C    0.099934
    15  O   -0.243210
    16  O   -0.325313
    17  N   -0.368406
    18  C    0.129254
    19  C   -0.135297
    20  C   -0.059420
    21  C    0.187720
    22  C    0.155959
    23  C    0.001125
    24  O   -0.218007
    25  C    0.025739
    26  N   -0.334550
    27  C    0.028020
    28  C   -0.048930
    29  C   -0.020789
    30  C    0.011163
    31  C    0.105252
    32  C    0.057586
    33  C   -0.005448
    34  N   -0.304384
    35  C    0.130701
    36  C   -0.182732
    37  C   -0.011543
    38  C    0.106534
    39  C    0.137450
    40  C    0.108005
    41  O   -0.229659
    42  C    0.012565
    43  C    0.184493
    44  O   -0.181568
    45  O   -0.350016
    46  C    0.180449
    47  C    0.257141
    48  C   -0.117374
    49  C   -0.188295
    50  C    0.097989
    51  C    0.098617
    52  C   -0.019632
    53  C    0.038434
    54  C   -0.182447
    55  C    0.053645
    56  C    0.110488
    57  C    0.015302
    58  C    0.021534
    59  C   -0.143645
    60  C    0.055669
    61  C    0.047691
    62  C    0.004946
    63  C    0.086312
    64  C   -0.192536
    65  C    0.017286
    66  C    0.052223
    67  H   -0.028813
    68  H   -0.049642
    69  H   -0.041168
    70  H    0.022463
    71  H    0.006876
    72  H    0.027265
    73  H    0.009381
    74  H    0.030539
    75  H    0.034460
    76  H    0.019996
    77  H    0.021252
    78  H    0.030643
    79  H    0.044503
    80  H    0.045340
    81  H    0.001350
    82  H    0.036100
    83  H    0.035021
    84  H    0.022460
    85  H    0.020359
    86  H   -0.003860
    87  H    0.024789
    88  H    0.028866
    89  H    0.010927
    90  H    0.028927
    91  H   -0.000081
    92  H    0.010270
    93  H    0.021683
    94  H    0.009852
    95  H    0.041563
    96  H    0.034491
    97  H    0.014023
    98  H    0.043311
    99  H    0.035607
   100  H    0.046255
   101  H    0.019373
   102  H    0.028154
   103  H    0.023168
   104  H   -0.009097
   105  H    0.026853
   106  H    0.007093
   107  H    0.049496
   108  H    0.003502
   109  H    0.007046
   110  H    0.000298
   111  H    0.011678
   112  H   -0.004209
   113  H   -0.002188
   114  H   -0.003805
   115  H    0.012711
   116  H    0.010440
   117  H    0.004006
   118  H   -0.002209
   119  H   -0.002261
   120  H   -0.000607
   121  H    0.004432
   122  H   -0.015617
   123  H   -0.001877
   124  H   -0.004848
   125  H   -0.000781
   126  H    0.017027
   127  H    0.018322
   128  H   -0.024628
   129  H   -0.020664
   130  H    0.001345
   131  H   -0.007151
   132  H    0.000486
   133  H   -0.007087
   134  H    0.003367
   135  H    0.019586
   136  H    0.016502
   137  H    0.004871
   138  H    0.008557
   139  H   -0.001015
   140  H    0.015409
 Sum of Mulliken charges =  -0.00000

 Dipole moment (field-independent basis, Debye):
    X=              1.2447    Y=             -3.8985    Z=              1.8559  Tot=              4.4935
 Quadrupole moment (field-independent basis, Debye-Ang):
   XX=           -368.5552   YY=           -433.7189   ZZ=           -412.6221
   XY=             33.9134   XZ=            -11.2943   YZ=            -36.9303

 Normal termination of Gaussian 16 at Wed May  4 07:52:16 2022.
