 Gaussian 16, Revision A.03,
 Gaussian 16:  ES64L-G16RevA.03 25-Dec-2016

 ---------------------------------
 #p PBE1PBE/Def2SVP td=(nstates=5)
 ---------------------------------

 ------------------------------------------------------
 step_1501_chromophore_23 TDDFT with PBE1PBE functional
 ------------------------------------------------------
 Symbolic Z-matrix:
 Charge =  0 Multiplicity = 1

                         Standard orientation:
 ---------------------------------------------------------------------
 Center     Atomic      Atomic             Coordinates (Angstroms)
 Number     Number       Type             X           Y           Z
 ---------------------------------------------------------------------
      1         12           0       -4.398384   -0.421642   -0.161501
      2          6           0       -3.043593    2.838730    0.353464
      3          6           0       -2.309859   -0.714815   -2.854692
      4          6           0       -5.415319   -3.629954   -0.502632
      5          6           0       -6.124789   -0.034795    2.730892
      6          7           0       -2.847207    0.921729   -1.085849
      7          6           0       -2.457435    2.212504   -0.675862
      8          6           0       -1.410430    2.770020   -1.657158
      9          6           0       -1.491814    1.768733   -2.867465
     10          6           0       -2.246747    0.556654   -2.250555
     11          6           0       -2.115764    2.283501   -4.134286
     12          6           0       -0.020365    2.706721   -0.938962
     13          6           0        0.822837    4.052632   -1.083286
     14          6           0        2.059995    3.891339   -1.870946
     15          8           0        2.132124    3.731001   -3.068546
     16          8           0        3.139711    4.028590   -1.087447
     17          7           0       -3.811571   -2.048438   -1.397480
     18          6           0       -3.084963   -1.896156   -2.608852
     19          6           0       -3.164248   -3.075914   -3.419068
     20          6           0       -4.047772   -3.984808   -2.651205
     21          6           0       -4.444140   -3.233337   -1.434049
     22          6           0       -2.537803   -3.181258   -4.803049
     23          6           0       -4.338305   -5.352805   -3.160387
     24          8           0       -3.946195   -5.818368   -4.237463
     25          6           0       -5.299241   -6.242623   -2.382255
     26          7           0       -5.451241   -1.663265    1.109918
     27          6           0       -5.857624   -2.973749    0.671991
     28          6           0       -6.747636   -3.635539    1.733936
     29          6           0       -6.760051   -2.560970    2.849103
     30          6           0       -6.124228   -1.315919    2.188516
     31          6           0       -8.081843   -4.125372    1.202520
     32          6           0       -6.110667   -2.945090    4.257678
     33          6           0       -6.962360   -2.737634    5.475556
     34          7           0       -4.663198    1.131514    1.219994
     35          6           0       -5.421852    1.160687    2.362720
     36          6           0       -5.481911    2.427504    2.909473
     37          6           0       -4.555348    3.149988    2.136992
     38          6           0       -4.061055    2.302361    1.170354
     39          6           0       -6.285070    2.807134    4.102027
     40          6           0       -3.997716    4.499331    1.931892
     41          8           0       -4.176033    5.646877    2.475282
     42          6           0       -2.859428    4.262948    0.838336
     43          6           0       -3.102172    5.229255   -0.294212
     44          8           0       -4.161017    5.486091   -0.800353
     45          8           0       -1.897221    5.900845   -0.525827
     46          6           0       -2.097315    6.997887   -1.475128
     47          6           0        4.498757    3.930979   -1.668298
     48          6           0        5.534628    3.309927   -0.667784
     49          6           0        5.971469    2.035974   -0.610064
     50          6           0        5.413385    0.957805   -1.482090
     51          6           0        7.041660    1.643202    0.393201
     52          6           0        8.320546    0.991860   -0.286762
     53          6           0        9.705049    1.465440    0.312293
     54          6           0       10.697109    0.319878    0.711277
     55          6           0       12.187055    0.803541    0.504386
     56          6           0       10.431078   -0.188191    2.135910
     57          6           0       10.050494   -1.710201    2.170542
     58          6           0        8.870441   -2.050551    3.223311
     59          6           0        7.424854   -2.206986    2.579737
     60          6           0        6.340248   -1.360261    3.257627
     61          6           0        7.139108   -3.731404    2.653279
     62          6           0        7.291704   -4.544193    1.331604
     63          6           0        6.044616   -4.941049    0.526905
     64          6           0        6.206812   -4.427189   -0.940045
     65          6           0        5.645605   -2.958510   -1.095902
     66          6           0        5.578160   -5.408700   -1.987009
     67          1           0       -1.715545   -0.731905   -3.771053
     68          1           0       -5.909221   -4.586907   -0.687263
     69          1           0       -6.649004   -0.061791    3.688394
     70          1           0       -1.717041    3.699677   -2.136909
     71          1           0       -0.500165    1.388461   -3.109283
     72          1           0       -1.316226    2.819116   -4.647142
     73          1           0       -2.731401    3.110302   -3.779383
     74          1           0       -2.609248    1.521669   -4.737295
     75          1           0        0.600218    1.871465   -1.262496
     76          1           0       -0.184114    2.715911    0.138052
     77          1           0        1.040277    4.430544   -0.084435
     78          1           0        0.258165    4.838854   -1.582811
     79          1           0       -3.336734   -3.258323   -5.540960
     80          1           0       -1.939528   -4.092595   -4.816312
     81          1           0       -1.941924   -2.280121   -4.947152
     82          1           0       -6.322052   -5.874548   -2.468174
     83          1           0       -5.135918   -6.353768   -1.311013
     84          1           0       -5.325698   -7.208219   -2.886974
     85          1           0       -6.079458   -4.427415    2.072549
     86          1           0       -7.796099   -2.259692    3.004141
     87          1           0       -8.114584   -5.209886    1.308827
     88          1           0       -8.263363   -3.771692    0.188229
     89          1           0       -8.854262   -3.699381    1.842309
     90          1           0       -5.105044   -2.563427    4.435907
     91          1           0       -6.104126   -4.034476    4.223165
     92          1           0       -7.574722   -1.859782    5.267413
     93          1           0       -6.327129   -2.687104    6.359319
     94          1           0       -7.697479   -3.509855    5.699119
     95          1           0       -6.503402    3.874185    4.069619
     96          1           0       -5.668821    2.472939    4.936927
     97          1           0       -7.234128    2.272084    4.136915
     98          1           0       -1.867583    4.376997    1.275018
     99          1           0       -1.124128    7.458587   -1.645750
    100          1           0       -2.851810    7.743811   -1.224178
    101          1           0       -2.452190    6.622698   -2.434744
    102          1           0        4.702553    4.927581   -2.061102
    103          1           0        4.522397    3.169166   -2.447514
    104          1           0        6.071023    4.089758   -0.126748
    105          1           0        4.374818    1.221208   -1.680189
    106          1           0        5.316720    0.108924   -0.804711
    107          1           0        6.041188    0.765786   -2.352375
    108          1           0        6.646135    0.790416    0.945464
    109          1           0        7.230625    2.430886    1.122150
    110          1           0        8.305354    1.400157   -1.297448
    111          1           0        8.204122   -0.077486   -0.463272
    112          1           0        9.500019    2.041767    1.214332
    113          1           0       10.252478    2.057318   -0.421075
    114          1           0       10.514076   -0.308477   -0.161005
    115          1           0       12.521858    0.317259   -0.411443
    116          1           0       12.832704    0.595812    1.357258
    117          1           0       12.105533    1.881156    0.358958
    118          1           0        9.604190    0.350291    2.600385
    119          1           0       11.326992    0.033853    2.715899
    120          1           0       10.880860   -2.325446    2.516269
    121          1           0        9.618305   -2.110637    1.252652
    122          1           0        8.797705   -1.229904    3.936420
    123          1           0        9.197897   -2.910897    3.807204
    124          1           0        7.429085   -1.899899    1.534696
    125          1           0        5.453620   -1.577268    2.662230
    126          1           0        6.549373   -0.309173    3.060946
    127          1           0        6.137412   -1.621450    4.296241
    128          1           0        6.172617   -3.986889    3.088548
    129          1           0        7.735936   -4.165290    3.455766
    130          1           0        7.998512   -5.365400    1.455200
    131          1           0        7.817044   -3.813096    0.717852
    132          1           0        5.094296   -4.573399    0.914114
    133          1           0        5.997878   -6.029659    0.509991
    134          1           0        7.264721   -4.342714   -1.186022
    135          1           0        5.500963   -2.514379   -0.111246
    136          1           0        4.762300   -2.969173   -1.734713
    137          1           0        6.375191   -2.310634   -1.580861
    138          1           0        6.387587   -5.938670   -2.489664
    139          1           0        5.054078   -4.743366   -2.672600
    140          1           0        4.917018   -6.187139   -1.607515
 ---------------------------------------------------------------------

 SCF Done:  E(RPBE1PBE) =  -3005.34509365     A.U. after   16 cycles

 Excitation energies and oscillator strengths:

 Excited State   1:      Singlet-A      1.8190 eV  681.61 nm  f=0.3548  <S**2>=0.000
     245 -> 248        0.14648
     246 -> 247        0.69827
     246 <- 247       -0.12061
 This state for optimization and/or second-order correction.
 Total Energy, E(TD-HF/TD-DFT) =  -3005.27824712
 Copying the excited state density for this state as the 1-particle RhoCI density.

 Excited State   2:      Singlet-A      2.2017 eV  563.13 nm  f=0.1710  <S**2>=0.000
     245 -> 247        0.66335
     246 -> 248       -0.21240

 Excited State   3:      Singlet-A      2.7792 eV  446.11 nm  f=0.0010  <S**2>=0.000
     241 -> 247       -0.16217
     242 -> 247       -0.29915
     243 -> 247        0.34528
     244 -> 247        0.48003

 Excited State   4:      Singlet-A      2.8129 eV  440.77 nm  f=0.0023  <S**2>=0.000
     241 -> 247       -0.31750
     242 -> 247        0.11280
     243 -> 247        0.46010
     244 -> 247       -0.38230

 Excited State   5:      Singlet-A      2.8554 eV  434.21 nm  f=0.0013  <S**2>=0.000
     241 -> 247       -0.29690
     242 -> 247        0.52606
     243 -> 247       -0.10009
     244 -> 247        0.31798

 The electronic state is 1-A.
 Alpha  occ. eigenvalues --  -46.92370 -19.26259 -19.24643 -19.21090 -19.19247
 Alpha  occ. eigenvalues --  -19.18780 -19.18727 -14.41961 -14.41820 -14.39746
 Alpha  occ. eigenvalues --  -14.38535 -10.36611 -10.34999 -10.32829 -10.32058
 Alpha  occ. eigenvalues --  -10.30071 -10.29409 -10.29181 -10.28958 -10.28702
 Alpha  occ. eigenvalues --  -10.28699 -10.28558 -10.28493 -10.26925 -10.26899
 Alpha  occ. eigenvalues --  -10.26356 -10.26309 -10.26271 -10.26074 -10.26001
 Alpha  occ. eigenvalues --  -10.25665 -10.25502 -10.25442 -10.25427 -10.25383
 Alpha  occ. eigenvalues --  -10.25356 -10.25222 -10.24872 -10.24782 -10.24490
 Alpha  occ. eigenvalues --  -10.24478 -10.24061 -10.24037 -10.23889 -10.23790
 Alpha  occ. eigenvalues --  -10.23778 -10.23672 -10.23618 -10.23558 -10.23453
 Alpha  occ. eigenvalues --  -10.23397 -10.23337 -10.23331 -10.23087 -10.23068
 Alpha  occ. eigenvalues --  -10.22931 -10.22915 -10.22880 -10.22414 -10.22410
 Alpha  occ. eigenvalues --  -10.22368 -10.22313 -10.22240 -10.22050 -10.21886
 Alpha  occ. eigenvalues --  -10.21835  -3.14454  -1.87298  -1.86801  -1.86700
 Alpha  occ. eigenvalues --   -1.11491  -1.11063  -1.03826  -1.03730  -1.01946
 Alpha  occ. eigenvalues --   -1.01222  -0.99970  -0.98334  -0.97611  -0.96884
 Alpha  occ. eigenvalues --   -0.87530  -0.84862  -0.84090  -0.83641  -0.83485
 Alpha  occ. eigenvalues --   -0.83292  -0.82668  -0.82151  -0.81629  -0.81237
 Alpha  occ. eigenvalues --   -0.80537  -0.79958  -0.79036  -0.78230  -0.77623
 Alpha  occ. eigenvalues --   -0.76734  -0.76184  -0.75297  -0.75172  -0.74954
 Alpha  occ. eigenvalues --   -0.74282  -0.72656  -0.72372  -0.71705  -0.70598
 Alpha  occ. eigenvalues --   -0.70419  -0.70136  -0.69547  -0.69444  -0.68321
 Alpha  occ. eigenvalues --   -0.68172  -0.67467  -0.66512  -0.64808  -0.63481
 Alpha  occ. eigenvalues --   -0.63327  -0.62421  -0.62128  -0.61157  -0.60703
 Alpha  occ. eigenvalues --   -0.60265  -0.59497  -0.59415  -0.59108  -0.58130
 Alpha  occ. eigenvalues --   -0.57378  -0.57216  -0.57109  -0.57065  -0.54900
 Alpha  occ. eigenvalues --   -0.54425  -0.53996  -0.53491  -0.53414  -0.52994
 Alpha  occ. eigenvalues --   -0.52538  -0.51565  -0.51174  -0.50910  -0.50100
 Alpha  occ. eigenvalues --   -0.49991  -0.49399  -0.49088  -0.48897  -0.48346
 Alpha  occ. eigenvalues --   -0.48030  -0.47955  -0.47578  -0.47526  -0.47341
 Alpha  occ. eigenvalues --   -0.47199  -0.47094  -0.46759  -0.46653  -0.46368
 Alpha  occ. eigenvalues --   -0.46318  -0.46133  -0.45644  -0.45605  -0.45296
 Alpha  occ. eigenvalues --   -0.45053  -0.44893  -0.44832  -0.44709  -0.44587
 Alpha  occ. eigenvalues --   -0.44033  -0.43922  -0.43809  -0.43615  -0.43522
 Alpha  occ. eigenvalues --   -0.43181  -0.43130  -0.42962  -0.42623  -0.42437
 Alpha  occ. eigenvalues --   -0.42192  -0.41989  -0.41749  -0.41623  -0.41374
 Alpha  occ. eigenvalues --   -0.41274  -0.41208  -0.41009  -0.40825  -0.40614
 Alpha  occ. eigenvalues --   -0.40408  -0.40273  -0.40115  -0.39885  -0.39655
 Alpha  occ. eigenvalues --   -0.39587  -0.39517  -0.39412  -0.39188  -0.38992
 Alpha  occ. eigenvalues --   -0.38924  -0.38315  -0.38245  -0.38026  -0.37871
 Alpha  occ. eigenvalues --   -0.37806  -0.37521  -0.37317  -0.37057  -0.36857
 Alpha  occ. eigenvalues --   -0.36691  -0.36576  -0.36275  -0.36200  -0.36096
 Alpha  occ. eigenvalues --   -0.35892  -0.35795  -0.35614  -0.35485  -0.34752
 Alpha  occ. eigenvalues --   -0.34524  -0.34451  -0.34101  -0.33946  -0.33802
 Alpha  occ. eigenvalues --   -0.33584  -0.33267  -0.33032  -0.32586  -0.32480
 Alpha  occ. eigenvalues --   -0.32345  -0.32093  -0.32075  -0.31886  -0.31195
 Alpha  occ. eigenvalues --   -0.30969  -0.30698  -0.30335  -0.30054  -0.29991
 Alpha  occ. eigenvalues --   -0.28899  -0.28785  -0.28238  -0.27447  -0.25900
 Alpha  occ. eigenvalues --   -0.25755  -0.25714  -0.25501  -0.25382  -0.21608
 Alpha  occ. eigenvalues --   -0.19470
 Alpha virt. eigenvalues --   -0.12154  -0.05573  -0.04106  -0.02237  -0.00522
 Alpha virt. eigenvalues --   -0.00166   0.00362   0.00806   0.01976   0.03004
 Alpha virt. eigenvalues --    0.03442   0.03873   0.04571   0.05049   0.05186

 Mulliken charges:
               1
     1  Mg   0.963737
     2  C   -0.035789
     3  C   -0.042534
     4  C   -0.076074
     5  C   -0.077214
     6  N   -0.383102
     7  C   -0.003312
     8  C   -0.105088
     9  C   -0.135355
    10  C    0.043525
    11  C    0.037216
    12  C    0.033704
    13  C    0.001072
    14  C    0.175634
    15  O   -0.278632
    16  O   -0.357131
    17  N   -0.477507
    18  C    0.144416
    19  C   -0.152273
    20  C   -0.102262
    21  C    0.212564
    22  C    0.093859
    23  C    0.049004
    24  O   -0.254715
    25  C   -0.051257
    26  N   -0.434984
    27  C    0.059331
    28  C   -0.129418
    29  C   -0.090218
    30  C    0.056305
    31  C    0.044219
    32  C   -0.008810
    33  C   -0.075114
    34  N   -0.434311
    35  C    0.149508
    36  C   -0.200253
    37  C   -0.061271
    38  C    0.170562
    39  C    0.082800
    40  C    0.203173
    41  O   -0.270585
    42  C   -0.093341
    43  C    0.273505
    44  O   -0.216728
    45  O   -0.379719
    46  C    0.121554
    47  C    0.212344
    48  C   -0.123397
    49  C   -0.229346
    50  C    0.024994
    51  C    0.025853
    52  C   -0.080653
    53  C   -0.015946
    54  C   -0.265222
    55  C   -0.006272
    56  C    0.055472
    57  C   -0.051970
    58  C   -0.027298
    59  C   -0.239445
    60  C   -0.010131
    61  C    0.002460
    62  C   -0.062276
    63  C    0.029791
    64  C   -0.283179
    65  C   -0.047634
    66  C   -0.008412
    67  H    0.002714
    68  H   -0.015037
    69  H   -0.005438
    70  H    0.060842
    71  H    0.042941
    72  H    0.055282
    73  H    0.037586
    74  H    0.057811
    75  H    0.064921
    76  H    0.054433
    77  H    0.053313
    78  H    0.065747
    79  H    0.071015
    80  H    0.071659
    81  H    0.029351
    82  H    0.062739
    83  H    0.060191
    84  H    0.050672
    85  H    0.058286
    86  H    0.034413
    87  H    0.051971
    88  H    0.055861
    89  H    0.038369
    90  H    0.059628
    91  H    0.035652
    92  H    0.037000
    93  H    0.049563
    94  H    0.037907
    95  H    0.069712
    96  H    0.064082
    97  H    0.041617
    98  H    0.079877
    99  H    0.057395
   100  H    0.068715
   101  H    0.042107
   102  H    0.054505
   103  H    0.050305
   104  H    0.020946
   105  H    0.055905
   106  H    0.039457
   107  H    0.075390
   108  H    0.046521
   109  H    0.036109
   110  H    0.035980
   111  H    0.042099
   112  H    0.028406
   113  H    0.030189
   114  H    0.034540
   115  H    0.040328
   116  H    0.037426
   117  H    0.031371
   118  H    0.030325
   119  H    0.029671
   120  H    0.032497
   121  H    0.039127
   122  H    0.017426
   123  H    0.028924
   124  H    0.037566
   125  H    0.029192
   126  H    0.046291
   127  H    0.045812
   128  H    0.007961
   129  H    0.011828
   130  H    0.033307
   131  H    0.028962
   132  H    0.031988
   133  H    0.027024
   134  H    0.040523
   135  H    0.048907
   136  H    0.043233
   137  H    0.033637
   138  H    0.036395
   139  H    0.026652
   140  H    0.041957
 Sum of Mulliken charges =  -0.00000

 Dipole moment (field-independent basis, Debye):
    X=              1.0689    Y=             -3.6750    Z=              2.2808  Tot=              4.4553
 Quadrupole moment (field-independent basis, Debye-Ang):
   XX=           -363.3933   YY=           -431.1820   ZZ=           -408.7439
   XY=             33.3846   XZ=            -14.1001   YZ=            -37.6034

 Normal termination of Gaussian 16 at Wed May  4 08:11:20 2022.
