 Gaussian 16, Revision A.03,
 Gaussian 16:  ES64L-G16RevA.03 25-Dec-2016

 --------------------------------
 #p wB97XD/Def2SVP td=(nstates=5)
 --------------------------------

 -----------------------------------------------------
 step_1501_chromophore_23 TDDFT with wB97XD functional
 -----------------------------------------------------
 Symbolic Z-matrix:
 Charge =  0 Multiplicity = 1

                         Standard orientation:
 ---------------------------------------------------------------------
 Center     Atomic      Atomic             Coordinates (Angstroms)
 Number     Number       Type             X           Y           Z
 ---------------------------------------------------------------------
      1         12           0       -4.398384   -0.421642   -0.161501
      2          6           0       -3.043593    2.838730    0.353464
      3          6           0       -2.309859   -0.714815   -2.854692
      4          6           0       -5.415319   -3.629954   -0.502632
      5          6           0       -6.124789   -0.034795    2.730892
      6          7           0       -2.847207    0.921729   -1.085849
      7          6           0       -2.457435    2.212504   -0.675862
      8          6           0       -1.410430    2.770020   -1.657158
      9          6           0       -1.491814    1.768733   -2.867465
     10          6           0       -2.246747    0.556654   -2.250555
     11          6           0       -2.115764    2.283501   -4.134286
     12          6           0       -0.020365    2.706721   -0.938962
     13          6           0        0.822837    4.052632   -1.083286
     14          6           0        2.059995    3.891339   -1.870946
     15          8           0        2.132124    3.731001   -3.068546
     16          8           0        3.139711    4.028590   -1.087447
     17          7           0       -3.811571   -2.048438   -1.397480
     18          6           0       -3.084963   -1.896156   -2.608852
     19          6           0       -3.164248   -3.075914   -3.419068
     20          6           0       -4.047772   -3.984808   -2.651205
     21          6           0       -4.444140   -3.233337   -1.434049
     22          6           0       -2.537803   -3.181258   -4.803049
     23          6           0       -4.338305   -5.352805   -3.160387
     24          8           0       -3.946195   -5.818368   -4.237463
     25          6           0       -5.299241   -6.242623   -2.382255
     26          7           0       -5.451241   -1.663265    1.109918
     27          6           0       -5.857624   -2.973749    0.671991
     28          6           0       -6.747636   -3.635539    1.733936
     29          6           0       -6.760051   -2.560970    2.849103
     30          6           0       -6.124228   -1.315919    2.188516
     31          6           0       -8.081843   -4.125372    1.202520
     32          6           0       -6.110667   -2.945090    4.257678
     33          6           0       -6.962360   -2.737634    5.475556
     34          7           0       -4.663198    1.131514    1.219994
     35          6           0       -5.421852    1.160687    2.362720
     36          6           0       -5.481911    2.427504    2.909473
     37          6           0       -4.555348    3.149988    2.136992
     38          6           0       -4.061055    2.302361    1.170354
     39          6           0       -6.285070    2.807134    4.102027
     40          6           0       -3.997716    4.499331    1.931892
     41          8           0       -4.176033    5.646877    2.475282
     42          6           0       -2.859428    4.262948    0.838336
     43          6           0       -3.102172    5.229255   -0.294212
     44          8           0       -4.161017    5.486091   -0.800353
     45          8           0       -1.897221    5.900845   -0.525827
     46          6           0       -2.097315    6.997887   -1.475128
     47          6           0        4.498757    3.930979   -1.668298
     48          6           0        5.534628    3.309927   -0.667784
     49          6           0        5.971469    2.035974   -0.610064
     50          6           0        5.413385    0.957805   -1.482090
     51          6           0        7.041660    1.643202    0.393201
     52          6           0        8.320546    0.991860   -0.286762
     53          6           0        9.705049    1.465440    0.312293
     54          6           0       10.697109    0.319878    0.711277
     55          6           0       12.187055    0.803541    0.504386
     56          6           0       10.431078   -0.188191    2.135910
     57          6           0       10.050494   -1.710201    2.170542
     58          6           0        8.870441   -2.050551    3.223311
     59          6           0        7.424854   -2.206986    2.579737
     60          6           0        6.340248   -1.360261    3.257627
     61          6           0        7.139108   -3.731404    2.653279
     62          6           0        7.291704   -4.544193    1.331604
     63          6           0        6.044616   -4.941049    0.526905
     64          6           0        6.206812   -4.427189   -0.940045
     65          6           0        5.645605   -2.958510   -1.095902
     66          6           0        5.578160   -5.408700   -1.987009
     67          1           0       -1.715545   -0.731905   -3.771053
     68          1           0       -5.909221   -4.586907   -0.687263
     69          1           0       -6.649004   -0.061791    3.688394
     70          1           0       -1.717041    3.699677   -2.136909
     71          1           0       -0.500165    1.388461   -3.109283
     72          1           0       -1.316226    2.819116   -4.647142
     73          1           0       -2.731401    3.110302   -3.779383
     74          1           0       -2.609248    1.521669   -4.737295
     75          1           0        0.600218    1.871465   -1.262496
     76          1           0       -0.184114    2.715911    0.138052
     77          1           0        1.040277    4.430544   -0.084435
     78          1           0        0.258165    4.838854   -1.582811
     79          1           0       -3.336734   -3.258323   -5.540960
     80          1           0       -1.939528   -4.092595   -4.816312
     81          1           0       -1.941924   -2.280121   -4.947152
     82          1           0       -6.322052   -5.874548   -2.468174
     83          1           0       -5.135918   -6.353768   -1.311013
     84          1           0       -5.325698   -7.208219   -2.886974
     85          1           0       -6.079458   -4.427415    2.072549
     86          1           0       -7.796099   -2.259692    3.004141
     87          1           0       -8.114584   -5.209886    1.308827
     88          1           0       -8.263363   -3.771692    0.188229
     89          1           0       -8.854262   -3.699381    1.842309
     90          1           0       -5.105044   -2.563427    4.435907
     91          1           0       -6.104126   -4.034476    4.223165
     92          1           0       -7.574722   -1.859782    5.267413
     93          1           0       -6.327129   -2.687104    6.359319
     94          1           0       -7.697479   -3.509855    5.699119
     95          1           0       -6.503402    3.874185    4.069619
     96          1           0       -5.668821    2.472939    4.936927
     97          1           0       -7.234128    2.272084    4.136915
     98          1           0       -1.867583    4.376997    1.275018
     99          1           0       -1.124128    7.458587   -1.645750
    100          1           0       -2.851810    7.743811   -1.224178
    101          1           0       -2.452190    6.622698   -2.434744
    102          1           0        4.702553    4.927581   -2.061102
    103          1           0        4.522397    3.169166   -2.447514
    104          1           0        6.071023    4.089758   -0.126748
    105          1           0        4.374818    1.221208   -1.680189
    106          1           0        5.316720    0.108924   -0.804711
    107          1           0        6.041188    0.765786   -2.352375
    108          1           0        6.646135    0.790416    0.945464
    109          1           0        7.230625    2.430886    1.122150
    110          1           0        8.305354    1.400157   -1.297448
    111          1           0        8.204122   -0.077486   -0.463272
    112          1           0        9.500019    2.041767    1.214332
    113          1           0       10.252478    2.057318   -0.421075
    114          1           0       10.514076   -0.308477   -0.161005
    115          1           0       12.521858    0.317259   -0.411443
    116          1           0       12.832704    0.595812    1.357258
    117          1           0       12.105533    1.881156    0.358958
    118          1           0        9.604190    0.350291    2.600385
    119          1           0       11.326992    0.033853    2.715899
    120          1           0       10.880860   -2.325446    2.516269
    121          1           0        9.618305   -2.110637    1.252652
    122          1           0        8.797705   -1.229904    3.936420
    123          1           0        9.197897   -2.910897    3.807204
    124          1           0        7.429085   -1.899899    1.534696
    125          1           0        5.453620   -1.577268    2.662230
    126          1           0        6.549373   -0.309173    3.060946
    127          1           0        6.137412   -1.621450    4.296241
    128          1           0        6.172617   -3.986889    3.088548
    129          1           0        7.735936   -4.165290    3.455766
    130          1           0        7.998512   -5.365400    1.455200
    131          1           0        7.817044   -3.813096    0.717852
    132          1           0        5.094296   -4.573399    0.914114
    133          1           0        5.997878   -6.029659    0.509991
    134          1           0        7.264721   -4.342714   -1.186022
    135          1           0        5.500963   -2.514379   -0.111246
    136          1           0        4.762300   -2.969173   -1.734713
    137          1           0        6.375191   -2.310634   -1.580861
    138          1           0        6.387587   -5.938670   -2.489664
    139          1           0        5.054078   -4.743366   -2.672600
    140          1           0        4.917018   -6.187139   -1.607515
 ---------------------------------------------------------------------

 SCF Done:  E(RwB97XD) =  -3007.85702597     A.U. after   19 cycles

 Excitation energies and oscillator strengths:

 Excited State   1:      Singlet-A      1.6213 eV  764.72 nm  f=0.3791  <S**2>=0.000
     245 -> 248        0.15764
     246 -> 247        0.68819
     245 <- 248        0.10654
 This state for optimization and/or second-order correction.
 Total Energy, E(TD-HF/TD-DFT) =  -3007.79744458
 Copying the excited state density for this state as the 1-particle RhoCI density.

 Excited State   2:      Singlet-A      2.1413 eV  579.00 nm  f=0.1728  <S**2>=0.000
     245 -> 247        0.65253
     246 -> 248       -0.24182

 Excited State   3:      Singlet-A      3.1673 eV  391.45 nm  f=0.0028  <S**2>=0.000
     243 -> 247        0.53250
     244 -> 247       -0.43340

 Excited State   4:      Singlet-A      3.2999 eV  375.72 nm  f=0.0114  <S**2>=0.000
     243 -> 247        0.42241
     244 -> 247        0.51131
     246 -> 248        0.12110

 Excited State   5:      Singlet-A      3.4110 eV  363.48 nm  f=0.0002  <S**2>=0.000
     240 -> 247        0.36349
     240 -> 248        0.14475
     240 -> 249        0.17665
     240 -> 250       -0.13922
     241 -> 247       -0.10091
     242 -> 247        0.40587
     242 -> 249       -0.23705
     242 -> 250       -0.16640

 The electronic state is 1-A.
 Alpha  occ. eigenvalues --  -46.95330 -19.30811 -19.29220 -19.25782 -19.23847
 Alpha  occ. eigenvalues --  -19.23771 -19.23419 -14.47210 -14.46780 -14.44858
 Alpha  occ. eigenvalues --  -14.43314 -10.43406 -10.41804 -10.39524 -10.39093
 Alpha  occ. eigenvalues --  -10.36538 -10.35942 -10.35734 -10.35649 -10.35208
 Alpha  occ. eigenvalues --  -10.35181 -10.34853 -10.34608 -10.33748 -10.32881
 Alpha  occ. eigenvalues --  -10.32614 -10.32507 -10.32425 -10.32414 -10.32192
 Alpha  occ. eigenvalues --  -10.32062 -10.32053 -10.31989 -10.31749 -10.31742
 Alpha  occ. eigenvalues --  -10.31701 -10.31628 -10.30983 -10.30929 -10.30890
 Alpha  occ. eigenvalues --  -10.30631 -10.30518 -10.30435 -10.30424 -10.30254
 Alpha  occ. eigenvalues --  -10.30064 -10.30033 -10.30005 -10.29947 -10.29875
 Alpha  occ. eigenvalues --  -10.29661 -10.29636 -10.29606 -10.29593 -10.29432
 Alpha  occ. eigenvalues --  -10.29298 -10.29262 -10.29097 -10.28850 -10.28794
 Alpha  occ. eigenvalues --  -10.28710 -10.28691 -10.28687 -10.28458 -10.28269
 Alpha  occ. eigenvalues --  -10.28251  -3.21274  -1.94866  -1.94372  -1.94266
 Alpha  occ. eigenvalues --   -1.18871  -1.18447  -1.11406  -1.11170  -1.09295
 Alpha  occ. eigenvalues --   -1.08519  -1.07110  -1.05702  -1.05152  -1.04417
 Alpha  occ. eigenvalues --   -0.95051  -0.92551  -0.91640  -0.91300  -0.91164
 Alpha  occ. eigenvalues --   -0.90976  -0.90340  -0.89678  -0.89125  -0.88909
 Alpha  occ. eigenvalues --   -0.88302  -0.87726  -0.86621  -0.85823  -0.85297
 Alpha  occ. eigenvalues --   -0.84395  -0.83885  -0.83079  -0.82770  -0.82620
 Alpha  occ. eigenvalues --   -0.81945  -0.80259  -0.79927  -0.79541  -0.78175
 Alpha  occ. eigenvalues --   -0.78049  -0.77788  -0.77259  -0.77136  -0.75890
 Alpha  occ. eigenvalues --   -0.75784  -0.75072  -0.74085  -0.72461  -0.70930
 Alpha  occ. eigenvalues --   -0.70907  -0.70057  -0.69731  -0.68791  -0.68147
 Alpha  occ. eigenvalues --   -0.67751  -0.67077  -0.67057  -0.66520  -0.65829
 Alpha  occ. eigenvalues --   -0.65039  -0.64742  -0.64629  -0.64512  -0.62402
 Alpha  occ. eigenvalues --   -0.61785  -0.61399  -0.60987  -0.60826  -0.60450
 Alpha  occ. eigenvalues --   -0.59954  -0.59024  -0.58726  -0.58394  -0.57518
 Alpha  occ. eigenvalues --   -0.57310  -0.56827  -0.56470  -0.56235  -0.55781
 Alpha  occ. eigenvalues --   -0.55436  -0.55243  -0.55035  -0.54849  -0.54758
 Alpha  occ. eigenvalues --   -0.54557  -0.54408  -0.54145  -0.54029  -0.53774
 Alpha  occ. eigenvalues --   -0.53716  -0.53524  -0.53215  -0.52968  -0.52511
 Alpha  occ. eigenvalues --   -0.52448  -0.52256  -0.52120  -0.52010  -0.51895
 Alpha  occ. eigenvalues --   -0.51355  -0.51310  -0.51187  -0.50978  -0.50869
 Alpha  occ. eigenvalues --   -0.50504  -0.50406  -0.50210  -0.49927  -0.49689
 Alpha  occ. eigenvalues --   -0.49473  -0.49328  -0.49070  -0.48943  -0.48655
 Alpha  occ. eigenvalues --   -0.48490  -0.48471  -0.48240  -0.48036  -0.47757
 Alpha  occ. eigenvalues --   -0.47510  -0.47468  -0.47282  -0.47070  -0.46842
 Alpha  occ. eigenvalues --   -0.46747  -0.46672  -0.46473  -0.46317  -0.46182
 Alpha  occ. eigenvalues --   -0.45947  -0.45454  -0.45431  -0.45198  -0.45110
 Alpha  occ. eigenvalues --   -0.44945  -0.44540  -0.44367  -0.44184  -0.43976
 Alpha  occ. eigenvalues --   -0.43829  -0.43690  -0.43552  -0.43345  -0.43186
 Alpha  occ. eigenvalues --   -0.42964  -0.42819  -0.42590  -0.42335  -0.41808
 Alpha  occ. eigenvalues --   -0.41548  -0.41536  -0.41118  -0.40918  -0.40817
 Alpha  occ. eigenvalues --   -0.40632  -0.40236  -0.40068  -0.39650  -0.39543
 Alpha  occ. eigenvalues --   -0.39425  -0.39140  -0.39096  -0.38791  -0.38244
 Alpha  occ. eigenvalues --   -0.37960  -0.37664  -0.37369  -0.37022  -0.36815
 Alpha  occ. eigenvalues --   -0.35655  -0.35538  -0.35383  -0.34011  -0.33097
 Alpha  occ. eigenvalues --   -0.32625  -0.32598  -0.32304  -0.31772  -0.26618
 Alpha  occ. eigenvalues --   -0.23664
 Alpha virt. eigenvalues --   -0.08146  -0.00001   0.02112   0.04235   0.05364
 Alpha virt. eigenvalues --    0.06439   0.07221   0.07431   0.08737   0.09590
 Alpha virt. eigenvalues --    0.09935   0.10344   0.11450   0.11694   0.11746

 Mulliken charges:
               1
     1  Mg   0.954514
     2  C   -0.032817
     3  C   -0.054523
     4  C   -0.094167
     5  C   -0.090167
     6  N   -0.348478
     7  C   -0.035591
     8  C   -0.073012
     9  C   -0.111392
    10  C    0.028720
    11  C    0.047697
    12  C    0.043153
    13  C    0.019046
    14  C    0.162161
    15  O   -0.274929
    16  O   -0.355548
    17  N   -0.447603
    18  C    0.141779
    19  C   -0.146208
    20  C   -0.100779
    21  C    0.212762
    22  C    0.106311
    23  C    0.046122
    24  O   -0.248246
    25  C   -0.037071
    26  N   -0.407598
    27  C    0.053750
    28  C   -0.102070
    29  C   -0.064122
    30  C    0.039434
    31  C    0.054194
    32  C    0.005763
    33  C   -0.058806
    34  N   -0.395351
    35  C    0.140037
    36  C   -0.195601
    37  C   -0.058300
    38  C    0.146315
    39  C    0.093469
    40  C    0.182398
    41  O   -0.263454
    42  C   -0.054675
    43  C    0.251205
    44  O   -0.211578
    45  O   -0.378215
    46  C    0.136076
    47  C    0.229921
    48  C   -0.137312
    49  C   -0.213596
    50  C    0.044109
    51  C    0.054099
    52  C   -0.064621
    53  C    0.003786
    54  C   -0.239416
    55  C    0.007434
    56  C    0.071517
    57  C   -0.029290
    58  C   -0.014494
    59  C   -0.196742
    60  C    0.007134
    61  C    0.010070
    62  C   -0.033375
    63  C    0.038863
    64  C   -0.250663
    65  C   -0.029466
    66  C    0.004459
    67  H   -0.004648
    68  H   -0.027543
    69  H   -0.016248
    70  H    0.041702
    71  H    0.033287
    72  H    0.050970
    73  H    0.030681
    74  H    0.052602
    75  H    0.057846
    76  H    0.044804
    77  H    0.049608
    78  H    0.055361
    79  H    0.068682
    80  H    0.069157
    81  H    0.024862
    82  H    0.057599
    83  H    0.055539
    84  H    0.049718
    85  H    0.047079
    86  H    0.020543
    87  H    0.047186
    88  H    0.050038
    89  H    0.033226
    90  H    0.054027
    91  H    0.024512
    92  H    0.028648
    93  H    0.044747
    94  H    0.031862
    95  H    0.065553
    96  H    0.057717
    97  H    0.035115
    98  H    0.073640
    99  H    0.054646
   100  H    0.065237
   101  H    0.036868
   102  H    0.052221
   103  H    0.042109
   104  H    0.018131
   105  H    0.049070
   106  H    0.028328
   107  H    0.071279
   108  H    0.025123
   109  H    0.030464
   110  H    0.025085
   111  H    0.032169
   112  H    0.017178
   113  H    0.021771
   114  H    0.020977
   115  H    0.035243
   116  H    0.031601
   117  H    0.024060
   118  H    0.016379
   119  H    0.022319
   120  H    0.026103
   121  H    0.023777
   122  H    0.007536
   123  H    0.021095
   124  H    0.011077
   125  H    0.021007
   126  H    0.037500
   127  H    0.041230
   128  H   -0.000663
   129  H    0.003030
   130  H    0.027947
   131  H    0.007481
   132  H    0.023819
   133  H    0.019360
   134  H    0.029305
   135  H    0.035928
   136  H    0.036871
   137  H    0.025945
   138  H    0.030898
   139  H    0.019220
   140  H    0.036386
 Sum of Mulliken charges =  -0.00000

 Dipole moment (field-independent basis, Debye):
    X=              1.2618    Y=             -4.0433    Z=              1.7271  Tot=              4.5742
 Quadrupole moment (field-independent basis, Debye-Ang):
   XX=           -364.7415   YY=           -429.6641   ZZ=           -408.3901
   XY=             35.2136   XZ=            -11.3051   YZ=            -36.9131

 Normal termination of Gaussian 16 at Wed May  4 08:40:18 2022.
