 Gaussian 16, Revision A.03,
 Gaussian 16:  ES64L-G16RevA.03 25-Dec-2016

 --------------------
 #p ZINDO=(nstates=5)
 --------------------

 ------------------------------
 step_1501_chromophore_23 ZINDO
 ------------------------------
 Symbolic Z-matrix:
 Charge =  0 Multiplicity = 1

                         Standard orientation:
 ---------------------------------------------------------------------
 Center     Atomic      Atomic             Coordinates (Angstroms)
 Number     Number       Type             X           Y           Z
 ---------------------------------------------------------------------
      1         12           0       -4.398384   -0.421642   -0.161501
      2          6           0       -3.043593    2.838730    0.353464
      3          6           0       -2.309859   -0.714815   -2.854692
      4          6           0       -5.415319   -3.629954   -0.502632
      5          6           0       -6.124789   -0.034795    2.730892
      6          7           0       -2.847207    0.921729   -1.085849
      7          6           0       -2.457435    2.212504   -0.675862
      8          6           0       -1.410430    2.770020   -1.657158
      9          6           0       -1.491814    1.768733   -2.867465
     10          6           0       -2.246747    0.556654   -2.250555
     11          6           0       -2.115764    2.283501   -4.134286
     12          6           0       -0.020365    2.706721   -0.938962
     13          6           0        0.822837    4.052632   -1.083286
     14          6           0        2.059995    3.891339   -1.870946
     15          8           0        2.132124    3.731001   -3.068546
     16          8           0        3.139711    4.028590   -1.087447
     17          7           0       -3.811571   -2.048438   -1.397480
     18          6           0       -3.084963   -1.896156   -2.608852
     19          6           0       -3.164248   -3.075914   -3.419068
     20          6           0       -4.047772   -3.984808   -2.651205
     21          6           0       -4.444140   -3.233337   -1.434049
     22          6           0       -2.537803   -3.181258   -4.803049
     23          6           0       -4.338305   -5.352805   -3.160387
     24          8           0       -3.946195   -5.818368   -4.237463
     25          6           0       -5.299241   -6.242623   -2.382255
     26          7           0       -5.451241   -1.663265    1.109918
     27          6           0       -5.857624   -2.973749    0.671991
     28          6           0       -6.747636   -3.635539    1.733936
     29          6           0       -6.760051   -2.560970    2.849103
     30          6           0       -6.124228   -1.315919    2.188516
     31          6           0       -8.081843   -4.125372    1.202520
     32          6           0       -6.110667   -2.945090    4.257678
     33          6           0       -6.962360   -2.737634    5.475556
     34          7           0       -4.663198    1.131514    1.219994
     35          6           0       -5.421852    1.160687    2.362720
     36          6           0       -5.481911    2.427504    2.909473
     37          6           0       -4.555348    3.149988    2.136992
     38          6           0       -4.061055    2.302361    1.170354
     39          6           0       -6.285070    2.807134    4.102027
     40          6           0       -3.997716    4.499331    1.931892
     41          8           0       -4.176033    5.646877    2.475282
     42          6           0       -2.859428    4.262948    0.838336
     43          6           0       -3.102172    5.229255   -0.294212
     44          8           0       -4.161017    5.486091   -0.800353
     45          8           0       -1.897221    5.900845   -0.525827
     46          6           0       -2.097315    6.997887   -1.475128
     47          6           0        4.498757    3.930979   -1.668298
     48          6           0        5.534628    3.309927   -0.667784
     49          6           0        5.971469    2.035974   -0.610064
     50          6           0        5.413385    0.957805   -1.482090
     51          6           0        7.041660    1.643202    0.393201
     52          6           0        8.320546    0.991860   -0.286762
     53          6           0        9.705049    1.465440    0.312293
     54          6           0       10.697109    0.319878    0.711277
     55          6           0       12.187055    0.803541    0.504386
     56          6           0       10.431078   -0.188191    2.135910
     57          6           0       10.050494   -1.710201    2.170542
     58          6           0        8.870441   -2.050551    3.223311
     59          6           0        7.424854   -2.206986    2.579737
     60          6           0        6.340248   -1.360261    3.257627
     61          6           0        7.139108   -3.731404    2.653279
     62          6           0        7.291704   -4.544193    1.331604
     63          6           0        6.044616   -4.941049    0.526905
     64          6           0        6.206812   -4.427189   -0.940045
     65          6           0        5.645605   -2.958510   -1.095902
     66          6           0        5.578160   -5.408700   -1.987009
     67          1           0       -1.715545   -0.731905   -3.771053
     68          1           0       -5.909221   -4.586907   -0.687263
     69          1           0       -6.649004   -0.061791    3.688394
     70          1           0       -1.717041    3.699677   -2.136909
     71          1           0       -0.500165    1.388461   -3.109283
     72          1           0       -1.316226    2.819116   -4.647142
     73          1           0       -2.731401    3.110302   -3.779383
     74          1           0       -2.609248    1.521669   -4.737295
     75          1           0        0.600218    1.871465   -1.262496
     76          1           0       -0.184114    2.715911    0.138052
     77          1           0        1.040277    4.430544   -0.084435
     78          1           0        0.258165    4.838854   -1.582811
     79          1           0       -3.336734   -3.258323   -5.540960
     80          1           0       -1.939528   -4.092595   -4.816312
     81          1           0       -1.941924   -2.280121   -4.947152
     82          1           0       -6.322052   -5.874548   -2.468174
     83          1           0       -5.135918   -6.353768   -1.311013
     84          1           0       -5.325698   -7.208219   -2.886974
     85          1           0       -6.079458   -4.427415    2.072549
     86          1           0       -7.796099   -2.259692    3.004141
     87          1           0       -8.114584   -5.209886    1.308827
     88          1           0       -8.263363   -3.771692    0.188229
     89          1           0       -8.854262   -3.699381    1.842309
     90          1           0       -5.105044   -2.563427    4.435907
     91          1           0       -6.104126   -4.034476    4.223165
     92          1           0       -7.574722   -1.859782    5.267413
     93          1           0       -6.327129   -2.687104    6.359319
     94          1           0       -7.697479   -3.509855    5.699119
     95          1           0       -6.503402    3.874185    4.069619
     96          1           0       -5.668821    2.472939    4.936927
     97          1           0       -7.234128    2.272084    4.136915
     98          1           0       -1.867583    4.376997    1.275018
     99          1           0       -1.124128    7.458587   -1.645750
    100          1           0       -2.851810    7.743811   -1.224178
    101          1           0       -2.452190    6.622698   -2.434744
    102          1           0        4.702553    4.927581   -2.061102
    103          1           0        4.522397    3.169166   -2.447514
    104          1           0        6.071023    4.089758   -0.126748
    105          1           0        4.374818    1.221208   -1.680189
    106          1           0        5.316720    0.108924   -0.804711
    107          1           0        6.041188    0.765786   -2.352375
    108          1           0        6.646135    0.790416    0.945464
    109          1           0        7.230625    2.430886    1.122150
    110          1           0        8.305354    1.400157   -1.297448
    111          1           0        8.204122   -0.077486   -0.463272
    112          1           0        9.500019    2.041767    1.214332
    113          1           0       10.252478    2.057318   -0.421075
    114          1           0       10.514076   -0.308477   -0.161005
    115          1           0       12.521858    0.317259   -0.411443
    116          1           0       12.832704    0.595812    1.357258
    117          1           0       12.105533    1.881156    0.358958
    118          1           0        9.604190    0.350291    2.600385
    119          1           0       11.326992    0.033853    2.715899
    120          1           0       10.880860   -2.325446    2.516269
    121          1           0        9.618305   -2.110637    1.252652
    122          1           0        8.797705   -1.229904    3.936420
    123          1           0        9.197897   -2.910897    3.807204
    124          1           0        7.429085   -1.899899    1.534696
    125          1           0        5.453620   -1.577268    2.662230
    126          1           0        6.549373   -0.309173    3.060946
    127          1           0        6.137412   -1.621450    4.296241
    128          1           0        6.172617   -3.986889    3.088548
    129          1           0        7.735936   -4.165290    3.455766
    130          1           0        7.998512   -5.365400    1.455200
    131          1           0        7.817044   -3.813096    0.717852
    132          1           0        5.094296   -4.573399    0.914114
    133          1           0        5.997878   -6.029659    0.509991
    134          1           0        7.264721   -4.342714   -1.186022
    135          1           0        5.500963   -2.514379   -0.111246
    136          1           0        4.762300   -2.969173   -1.734713
    137          1           0        6.375191   -2.310634   -1.580861
    138          1           0        6.387587   -5.938670   -2.489664
    139          1           0        5.054078   -4.743366   -2.672600
    140          1           0        4.917018   -6.187139   -1.607515
 ---------------------------------------------------------------------

 SCF Done:  E(RZINDO/S) =  -474.151071523     A.U. after   19 cycles

 Excitation energies and oscillator strengths:

 Excited State   1:      Singlet-A      1.2281 eV 1009.54 nm  f=0.6138  <S**2>=0.000
     175 ->178         0.15508
     176 ->177         0.66987
 This state for optimization and/or second-order correction.
 Total Energy, E(CIS/TDA) =  -474.105938649
 Copying the excited state density for this state as the 1-particle RhoCI density.

 Excited State   2:      Singlet-A      1.9258 eV  643.81 nm  f=0.1037  <S**2>=0.000
     175 ->177         0.57267
     176 ->178        -0.36965

 Excited State   3:      Singlet-A      2.9267 eV  423.63 nm  f=0.0005  <S**2>=0.000
     168 ->177         0.33330
     168 ->178        -0.25580
     168 ->179         0.31946
     168 ->180         0.26562
     168 ->185        -0.24331
     171 ->177        -0.15011

 Excited State   4:      Singlet-A      2.9857 eV  415.26 nm  f=0.8388  <S**2>=0.000
     175 ->177         0.32103
     176 ->178         0.56394
     176 ->179        -0.18674

 Excited State   5:      Singlet-A      3.0039 eV  412.75 nm  f=0.0019  <S**2>=0.000
     169 ->179         0.10503
     169 ->180        -0.11034
     170 ->177         0.20846
     170 ->179        -0.25594
     170 ->180         0.24602
     170 ->185         0.11947
     170 ->187         0.11710
     171 ->177         0.29561
     174 ->177        -0.33996

 The electronic state is 1-A.
 Alpha  occ. eigenvalues --   -1.87034  -1.80659  -1.79510  -1.74078  -1.72507
 Alpha  occ. eigenvalues --   -1.71109  -1.64287  -1.59816  -1.58640  -1.56815
 Alpha  occ. eigenvalues --   -1.54377  -1.51460  -1.48245  -1.46972  -1.45503
 Alpha  occ. eigenvalues --   -1.45373  -1.42903  -1.42083  -1.39226  -1.37136
 Alpha  occ. eigenvalues --   -1.36255  -1.34734  -1.32408  -1.31189  -1.29039
 Alpha  occ. eigenvalues --   -1.28548  -1.26849  -1.23069  -1.20630  -1.18640
 Alpha  occ. eigenvalues --   -1.17294  -1.15714  -1.15304  -1.14324  -1.13346
 Alpha  occ. eigenvalues --   -1.12659  -1.10220  -1.09952  -1.05734  -1.03595
 Alpha  occ. eigenvalues --   -1.02954  -1.01806  -0.98382  -0.98188  -0.96599
 Alpha  occ. eigenvalues --   -0.96274  -0.94833  -0.93935  -0.93005  -0.92331
 Alpha  occ. eigenvalues --   -0.91727  -0.90878  -0.88408  -0.88312  -0.87534
 Alpha  occ. eigenvalues --   -0.86550  -0.84030  -0.82871  -0.82283  -0.80272
 Alpha  occ. eigenvalues --   -0.79503  -0.78426  -0.77351  -0.76827  -0.76209
 Alpha  occ. eigenvalues --   -0.75950  -0.75582  -0.74580  -0.74004  -0.73727
 Alpha  occ. eigenvalues --   -0.73278  -0.73095  -0.72461  -0.72125  -0.71536
 Alpha  occ. eigenvalues --   -0.70505  -0.69660  -0.69192  -0.68320  -0.68052
 Alpha  occ. eigenvalues --   -0.67554  -0.67079  -0.66833  -0.66574  -0.66150
 Alpha  occ. eigenvalues --   -0.65224  -0.64720  -0.64307  -0.63968  -0.63807
 Alpha  occ. eigenvalues --   -0.63650  -0.62806  -0.62417  -0.62075  -0.61786
 Alpha  occ. eigenvalues --   -0.61657  -0.61317  -0.61192  -0.60694  -0.60302
 Alpha  occ. eigenvalues --   -0.59991  -0.59413  -0.59065  -0.58836  -0.58287
 Alpha  occ. eigenvalues --   -0.58036  -0.57756  -0.57550  -0.57204  -0.56968
 Alpha  occ. eigenvalues --   -0.56549  -0.56130  -0.55940  -0.55565  -0.55029
 Alpha  occ. eigenvalues --   -0.54617  -0.53795  -0.53714  -0.53374  -0.52678
 Alpha  occ. eigenvalues --   -0.52259  -0.52004  -0.51820  -0.51716  -0.51538
 Alpha  occ. eigenvalues --   -0.51246  -0.51037  -0.50863  -0.50623  -0.50425
 Alpha  occ. eigenvalues --   -0.50082  -0.49751  -0.49381  -0.49118  -0.49053
 Alpha  occ. eigenvalues --   -0.48899  -0.48587  -0.48531  -0.48166  -0.48072
 Alpha  occ. eigenvalues --   -0.47357  -0.47175  -0.46832  -0.46657  -0.46438
 Alpha  occ. eigenvalues --   -0.46276  -0.46165  -0.45802  -0.45598  -0.45264
 Alpha  occ. eigenvalues --   -0.45177  -0.45125  -0.44746  -0.44383  -0.44196
 Alpha  occ. eigenvalues --   -0.43715  -0.43602  -0.42924  -0.42667  -0.42448
 Alpha  occ. eigenvalues --   -0.42036  -0.41699  -0.41580  -0.39619  -0.38626
 Alpha  occ. eigenvalues --   -0.38470  -0.37344  -0.36024  -0.34921  -0.34814
 Alpha  occ. eigenvalues --   -0.33624  -0.33077  -0.32979  -0.31969  -0.27326
 Alpha  occ. eigenvalues --   -0.22415
 Alpha virt. eigenvalues --   -0.09506  -0.02436  -0.00886   0.01170   0.01796
 Alpha virt. eigenvalues --    0.02551   0.02820   0.03004   0.04241   0.04445
 Alpha virt. eigenvalues --    0.05977   0.06319   0.07185   0.07605   0.07879

 Mulliken charges:
               1
     1  Mg   0.429964
     2  C   -0.018819
     3  C   -0.067625
     4  C   -0.094728
     5  C   -0.082179
     6  N   -0.293519
     7  C    0.099162
     8  C    0.000828
     9  C    0.004459
    10  C    0.160293
    11  C   -0.048677
    12  C   -0.018020
    13  C   -0.002546
    14  C    0.482670
    15  O   -0.539909
    16  O   -0.273530
    17  N   -0.336659
    18  C    0.116446
    19  C    0.052321
    20  C   -0.065099
    21  C    0.170626
    22  C   -0.029218
    23  C    0.329910
    24  O   -0.527991
    25  C   -0.035398
    26  N   -0.281768
    27  C    0.140733
    28  C    0.010155
    29  C    0.001575
    30  C    0.116973
    31  C   -0.043715
    32  C   -0.027591
    33  C   -0.054308
    34  N   -0.321866
    35  C    0.083368
    36  C    0.020862
    37  C   -0.057884
    38  C    0.118146
    39  C   -0.037680
    40  C    0.319679
    41  O   -0.541850
    42  C    0.050910
    43  C    0.487061
    44  O   -0.497526
    45  O   -0.280319
    46  C    0.073477
    47  C    0.092247
    48  C   -0.107385
    49  C    0.018103
    50  C   -0.044291
    51  C   -0.023438
    52  C   -0.041287
    53  C   -0.040292
    54  C   -0.026856
    55  C   -0.067040
    56  C   -0.023018
    57  C   -0.047905
    58  C   -0.051456
    59  C   -0.007048
    60  C   -0.055298
    61  C   -0.040518
    62  C   -0.040367
    63  C   -0.025149
    64  C   -0.019596
    65  C   -0.062608
    66  C   -0.063996
    67  H    0.022899
    68  H    0.028479
    69  H    0.012771
    70  H    0.049702
    71  H    0.025845
    72  H    0.021988
    73  H    0.026565
    74  H    0.036018
    75  H    0.042134
    76  H    0.026130
    77  H    0.032265
    78  H    0.046851
    79  H    0.046646
    80  H    0.047548
    81  H    0.027930
    82  H    0.033774
    83  H    0.033166
    84  H    0.033729
    85  H    0.033811
    86  H    0.024043
    87  H    0.024192
    88  H    0.030888
    89  H    0.021626
    90  H    0.036812
    91  H    0.010671
    92  H    0.019305
    93  H    0.022297
    94  H    0.016075
    95  H    0.037168
    96  H    0.035184
    97  H    0.022235
    98  H    0.054824
    99  H    0.026155
   100  H    0.054127
   101  H    0.033943
   102  H    0.050915
   103  H    0.045663
   104  H    0.021688
   105  H    0.029118
   106  H    0.019759
   107  H    0.045543
   108  H    0.018596
   109  H    0.032155
   110  H    0.009325
   111  H    0.030967
   112  H    0.019528
   113  H    0.021451
   114  H    0.025337
   115  H    0.020680
   116  H    0.024954
   117  H    0.020904
   118  H    0.022476
   119  H    0.025202
   120  H    0.020557
   121  H    0.028208
   122  H    0.010161
   123  H    0.023662
   124  H    0.025546
   125  H    0.008853
   126  H    0.019561
   127  H    0.030240
   128  H    0.007696
   129  H    0.014371
   130  H    0.022522
   131  H    0.012018
   132  H    0.026378
   133  H    0.014440
   134  H    0.020917
   135  H    0.020575
   136  H    0.025490
   137  H    0.012288
   138  H    0.015728
   139  H    0.020419
   140  H    0.024322
 Sum of Mulliken charges =  -0.00000

 Dipole moment (field-independent basis, Debye):
    X=              1.5798    Y=             -6.6169    Z=              0.9658  Tot=              6.8711
 N-N= 4.486734055272D+03 E-N= 0.000000000000D+00  KE=-9.647057432371D+03
 Leave Link  601 at Wed May  4 08:53:19 2022, MaxMem=  6710886400 cpu:               0.8 elap:               0.0
 (Enter /sw/apps/gaussian-16.0/g16/l9999.exe)
 1\1\GINC-BP1-COMPUTE058\SP\RZINDO CIS\STO-3G\C55H74Mg1N4O6\OF15641\04-
 May-2022\0\\#p ZINDO=(nstates=5)\\step_1501_chromophore_23 ZINDO\\0,1\
 Mg,0,-9.653,40.783,41.465\C,0,-8.621,37.404,40.967\C,0,-6.805,41.749,3
 9.835\C,0,-10.738,43.983,41.628\C,0,-12.556,39.586,42.744\N,0,-7.954,3
 9.667,40.499\C,0,-7.768,38.273,40.408\C,0,-6.423,37.977,39.72\C,0,-5.7
 08,39.378,39.724\C,0,-6.883,40.354,40.018\C,0,-4.542,39.543,40.658\C,0
 ,-6.742,37.488,38.267\C,0,-5.923,36.185,37.849\C,0,-4.959,36.42,36.757

 Normal termination of Gaussian 16 at Wed May  4 08:53:19 2022.
