 Gaussian 16, Revision A.03,
 Gaussian 16:  ES64L-G16RevA.03 25-Dec-2016

 ------------------------------
 #p blyp/Def2SVP td=(nstates=5)
 ------------------------------

 --------------------------------------------------
 step_1551_chromophore_7 TDDFT with blyp functional
 --------------------------------------------------
 Symbolic Z-matrix:
 Charge =  0 Multiplicity = 1

                         Standard orientation:
 ---------------------------------------------------------------------
 Center     Atomic      Atomic             Coordinates (Angstroms)
 Number     Number       Type             X           Y           Z
 ---------------------------------------------------------------------
      1         12           0        5.807665    0.643934   -0.010834
      2          6           0        3.883786   -2.126610    0.158096
      3          6           0        3.561551    2.269363   -1.940157
      4          6           0        8.136603    3.159440   -0.239500
      5          6           0        8.399938   -1.142532    1.774234
      6          7           0        3.913085    0.072395   -0.664003
      7          6           0        3.291914   -1.093962   -0.544256
      8          6           0        1.863751   -0.989894   -1.039995
      9          6           0        1.806936    0.363243   -1.827589
     10          6           0        3.190042    0.978730   -1.494772
     11          6           0        1.483025    0.435728   -3.380897
     12          6           0        0.804775   -1.182039    0.146661
     13          6           0       -0.652780   -0.618408   -0.099389
     14          6           0       -1.732892   -1.697403    0.339063
     15          8           0       -2.068052   -2.037005    1.480584
     16          8           0       -2.239027   -2.313927   -0.756668
     17          7           0        5.842426    2.453083   -0.995436
     18          6           0        4.802109    2.956394   -1.703207
     19          6           0        5.197830    4.310732   -2.113946
     20          6           0        6.450354    4.625788   -1.557423
     21          6           0        6.851847    3.418331   -0.847462
     22          6           0        4.399703    5.103309   -2.982326
     23          6           0        7.230877    5.876667   -1.612449
     24          8           0        8.137396    6.061478   -0.824838
     25          6           0        6.813839    6.980272   -2.536331
     26          7           0        8.093559    0.835316    0.476889
     27          6           0        8.738571    2.038642    0.360453
     28          6           0        9.933646    2.221774    1.289914
     29          6           0       10.052444    0.788519    1.936464
     30          6           0        8.791371    0.114950    1.360122
     31          6           0       11.191373    2.432369    0.490350
     32          6           0        9.924095    0.860985    3.502404
     33          6           0       10.631355   -0.184052    4.366661
     34          7           0        6.072592   -1.189459    0.892018
     35          6           0        7.159845   -1.813092    1.563561
     36          6           0        6.751168   -3.256443    1.838826
     37          6           0        5.520705   -3.378671    1.364033
     38          6           0        5.125085   -2.141121    0.791363
     39          6           0        7.626592   -4.224538    2.484504
     40          6           0        4.451698   -4.293660    1.279382
     41          8           0        4.202438   -5.404462    1.717348
     42          6           0        3.256844   -3.538921    0.468461
     43          6           0        2.861055   -4.233262   -0.723652
     44          8           0        3.282757   -3.991874   -1.846888
     45          8           0        1.802426   -5.054042   -0.429248
     46          6           0        1.321267   -5.744526   -1.593039
     47          6           0       -3.306895   -3.324475   -0.521897
     48          6           0       -4.607975   -2.918944   -1.180845
     49          6           0       -5.804137   -3.560129   -1.204027
     50          6           0       -6.269879   -4.738976   -0.318195
     51          6           0       -7.069857   -2.857638   -1.928842
     52          6           0       -7.778018   -1.861140   -0.958681
     53          6           0       -8.242790   -0.662918   -1.799724
     54          6           0       -9.792300   -0.716232   -2.157670
     55          6           0      -10.026674   -0.848140   -3.638673
     56          6           0      -10.587755    0.457085   -1.607223
     57          6           0      -12.082994    0.139001   -1.329865
     58          6           0      -12.828672    1.405477   -0.888053
     59          6           0      -13.912956    1.074194    0.137914
     60          6           0      -14.900257   -0.004839   -0.408474
     61          6           0      -14.714199    2.297847    0.677233
     62          6           0      -14.617890    2.286420    2.229065
     63          6           0      -13.221221    2.807907    2.763541
     64          6           0      -13.277085    3.914688    3.861950
     65          6           0      -12.076908    4.911139    3.901968
     66          6           0      -13.580445    3.452098    5.215671
     67          1           0        2.741583    2.768931   -2.461869
     68          1           0        8.850492    3.983248   -0.282864
     69          1           0        9.190906   -1.621976    2.354971
     70          1           0        1.777728   -1.805120   -1.758841
     71          1           0        1.132645    1.066188   -1.338136
     72          1           0        2.470219    0.669182   -3.780895
     73          1           0        0.763098    1.225333   -3.596060
     74          1           0        1.128175   -0.571959   -3.596481
     75          1           0        1.277140   -0.743622    1.025030
     76          1           0        0.690301   -2.250254    0.332156
     77          1           0       -0.767604   -0.370947   -1.154709
     78          1           0       -0.769738    0.308876    0.461400
     79          1           0        3.553494    4.613064   -3.463515
     80          1           0        5.075333    5.489258   -3.745829
     81          1           0        3.888979    5.877188   -2.410385
     82          1           0        6.998110    6.835555   -3.601222
     83          1           0        7.357255    7.866737   -2.210577
     84          1           0        5.758898    7.155143   -2.323575
     85          1           0        9.818624    2.962534    2.081566
     86          1           0       10.895204    0.213004    1.551728
     87          1           0       12.074641    1.846712    0.748161
     88          1           0       11.426384    3.493420    0.575241
     89          1           0       11.048015    2.430878   -0.589865
     90          1           0        8.866755    0.809193    3.757006
     91          1           0       10.363398    1.830235    3.738074
     92          1           0       11.139421   -0.903539    3.724824
     93          1           0        9.968560   -0.621428    5.113005
     94          1           0       11.495910    0.236275    4.879974
     95          1           0        6.973328   -4.849230    3.094451
     96          1           0        8.389451   -3.786672    3.126539
     97          1           0        8.060033   -4.962711    1.808816
     98          1           0        2.366728   -3.353288    1.069239
     99          1           0        0.882710   -6.635522   -1.143519
    100          1           0        2.106752   -6.123377   -2.246857
    101          1           0        0.604907   -5.220114   -2.225472
    102          1           0       -3.629844   -3.495697    0.504309
    103          1           0       -2.885365   -4.276947   -0.844410
    104          1           0       -4.624132   -1.898598   -1.564184
    105          1           0       -5.415589   -5.227316    0.150545
    106          1           0       -6.887712   -5.342697   -0.982670
    107          1           0       -6.951807   -4.451800    0.482476
    108          1           0       -7.769460   -3.661368   -2.157594
    109          1           0       -6.698357   -2.404966   -2.848471
    110          1           0       -7.170660   -1.492640   -0.131581
    111          1           0       -8.620060   -2.379864   -0.500295
    112          1           0       -7.689894   -0.471749   -2.719775
    113          1           0       -8.137744    0.131047   -1.060504
    114          1           0      -10.151354   -1.628969   -1.683296
    115          1           0       -9.198897   -1.304602   -4.180466
    116          1           0      -10.215421    0.136392   -4.068013
    117          1           0      -10.777793   -1.587855   -3.916458
    118          1           0      -10.551216    1.386897   -2.175869
    119          1           0      -10.138541    0.787947   -0.671148
    120          1           0      -12.093195   -0.634196   -0.561459
    121          1           0      -12.432459   -0.266010   -2.279834
    122          1           0      -13.333112    1.903441   -1.715828
    123          1           0      -12.090021    2.050577   -0.410617
    124          1           0      -13.397536    0.644552    0.996648
    125          1           0      -14.518081   -0.978468   -0.102573
    126          1           0      -14.929130   -0.052613   -1.496981
    127          1           0      -15.883332    0.059932    0.058881
    128          1           0      -15.762545    2.386229    0.391625
    129          1           0      -14.347543    3.248988    0.292286
    130          1           0      -14.837109    1.249571    2.483940
    131          1           0      -15.367980    2.930500    2.689285
    132          1           0      -12.469011    3.048948    2.011881
    133          1           0      -12.821724    1.893629    3.201739
    134          1           0      -14.119050    4.532821    3.550283
    135          1           0      -11.419620    4.566720    4.699746
    136          1           0      -12.444629    5.936842    3.914238
    137          1           0      -11.508716    4.727741    2.989586
    138          1           0      -14.638554    3.286934    5.417860
    139          1           0      -13.192215    4.106834    5.995858
    140          1           0      -13.094032    2.499558    5.430737
 ---------------------------------------------------------------------

 SCF Done:  E(RB-LYP) =  -3007.36937727     A.U. after   20 cycles

 Excitation energies and oscillator strengths:

 Excited State   1:      Singlet-A      1.8033 eV  687.53 nm  f=0.3126  <S**2>=0.000
     245 -> 248        0.19186
     246 -> 247        0.68819
     246 <- 247       -0.14681
 This state for optimization and/or second-order correction.
 Total Energy, E(TD-HF/TD-DFT) =  -3007.30310592
 Copying the excited state density for this state as the 1-particle RhoCI density.

 Excited State   2:      Singlet-A      1.9845 eV  624.76 nm  f=0.0360  <S**2>=0.000
     244 -> 247        0.39593
     245 -> 247        0.54295
     246 -> 248       -0.20300

 Excited State   3:      Singlet-A      2.0602 eV  601.82 nm  f=0.0240  <S**2>=0.000
     244 -> 247        0.58361
     245 -> 247       -0.35105
     246 -> 248        0.16475

 Excited State   4:      Singlet-A      2.1683 eV  571.81 nm  f=0.0027  <S**2>=0.000
     243 -> 247        0.70466

 Excited State   5:      Singlet-A      2.2155 eV  559.62 nm  f=0.0000  <S**2>=0.000
     242 -> 247        0.70707

 The electronic state is 1-A.
 Alpha  occ. eigenvalues --  -46.27010 -18.82794 -18.82160 -18.76637 -18.76416
 Alpha  occ. eigenvalues --  -18.76354 -18.75206 -14.03081 -14.02527 -14.01314
 Alpha  occ. eigenvalues --  -14.01251 -10.04659 -10.03089 -10.00156  -9.99378
 Alpha  occ. eigenvalues --   -9.98282  -9.96929  -9.96747  -9.96342  -9.96233
 Alpha  occ. eigenvalues --   -9.95853  -9.95641  -9.95556  -9.95443  -9.94753
 Alpha  occ. eigenvalues --   -9.94713  -9.94286  -9.94260  -9.94131  -9.93954
 Alpha  occ. eigenvalues --   -9.93571  -9.93471  -9.93459  -9.93280  -9.93078
 Alpha  occ. eigenvalues --   -9.92970  -9.92837  -9.92796  -9.92748  -9.92659
 Alpha  occ. eigenvalues --   -9.92406  -9.92372  -9.92351  -9.92340  -9.92123
 Alpha  occ. eigenvalues --   -9.91951  -9.91892  -9.91878  -9.91839  -9.91751
 Alpha  occ. eigenvalues --   -9.91716  -9.91705  -9.91469  -9.91412  -9.91365
 Alpha  occ. eigenvalues --   -9.91173  -9.91149  -9.91139  -9.91088  -9.91043
 Alpha  occ. eigenvalues --   -9.90825  -9.90821  -9.90720  -9.90684  -9.90662
 Alpha  occ. eigenvalues --   -9.90190  -2.91666  -1.72091  -1.71550  -1.71383
 Alpha  occ. eigenvalues --   -0.98177  -0.98028  -0.91959  -0.91936  -0.89956
 Alpha  occ. eigenvalues --   -0.88986  -0.86354  -0.85818  -0.85120  -0.84505
 Alpha  occ. eigenvalues --   -0.74740  -0.73507  -0.72668  -0.72405  -0.72251
 Alpha  occ. eigenvalues --   -0.71973  -0.71706  -0.71650  -0.71074  -0.71059
 Alpha  occ. eigenvalues --   -0.70566  -0.68862  -0.68134  -0.67700  -0.67119
 Alpha  occ. eigenvalues --   -0.66517  -0.66079  -0.65425  -0.64927  -0.64484
 Alpha  occ. eigenvalues --   -0.63834  -0.63131  -0.62497  -0.61554  -0.60536
 Alpha  occ. eigenvalues --   -0.60143  -0.60008  -0.59625  -0.59348  -0.59087
 Alpha  occ. eigenvalues --   -0.58227  -0.57760  -0.56537  -0.55525  -0.54657
 Alpha  occ. eigenvalues --   -0.54242  -0.53956  -0.52839  -0.52135  -0.51643
 Alpha  occ. eigenvalues --   -0.51197  -0.50865  -0.50704  -0.50196  -0.49939
 Alpha  occ. eigenvalues --   -0.49800  -0.49280  -0.48456  -0.48305  -0.46718
 Alpha  occ. eigenvalues --   -0.46240  -0.46200  -0.45499  -0.44944  -0.44632
 Alpha  occ. eigenvalues --   -0.44152  -0.43981  -0.43295  -0.42673  -0.42272
 Alpha  occ. eigenvalues --   -0.42244  -0.41610  -0.41477  -0.41290  -0.40928
 Alpha  occ. eigenvalues --   -0.40784  -0.40633  -0.40285  -0.40261  -0.40044
 Alpha  occ. eigenvalues --   -0.39918  -0.39710  -0.39590  -0.39532  -0.39294
 Alpha  occ. eigenvalues --   -0.39083  -0.38728  -0.38594  -0.38452  -0.38415
 Alpha  occ. eigenvalues --   -0.38050  -0.37991  -0.37661  -0.37332  -0.37254
 Alpha  occ. eigenvalues --   -0.37101  -0.37020  -0.36990  -0.36566  -0.36294
 Alpha  occ. eigenvalues --   -0.36158  -0.36090  -0.35988  -0.35708  -0.35497
 Alpha  occ. eigenvalues --   -0.35442  -0.35281  -0.35134  -0.34836  -0.34746
 Alpha  occ. eigenvalues --   -0.34696  -0.34534  -0.34197  -0.34037  -0.33996
 Alpha  occ. eigenvalues --   -0.33914  -0.33779  -0.33697  -0.33408  -0.33230
 Alpha  occ. eigenvalues --   -0.32881  -0.32750  -0.32636  -0.32586  -0.32093
 Alpha  occ. eigenvalues --   -0.32033  -0.31837  -0.31581  -0.31457  -0.31301
 Alpha  occ. eigenvalues --   -0.31250  -0.30964  -0.30717  -0.30700  -0.30540
 Alpha  occ. eigenvalues --   -0.30373  -0.30318  -0.30092  -0.30068  -0.29746
 Alpha  occ. eigenvalues --   -0.29658  -0.29487  -0.29358  -0.28998  -0.28924
 Alpha  occ. eigenvalues --   -0.28756  -0.28638  -0.28264  -0.28228  -0.27682
 Alpha  occ. eigenvalues --   -0.27346  -0.27295  -0.27093  -0.26685  -0.26260
 Alpha  occ. eigenvalues --   -0.26087  -0.25874  -0.25788  -0.25526  -0.25431
 Alpha  occ. eigenvalues --   -0.25183  -0.25128  -0.24577  -0.24164  -0.23653
 Alpha  occ. eigenvalues --   -0.23486  -0.22099  -0.21860  -0.21813  -0.21453
 Alpha  occ. eigenvalues --   -0.20433  -0.19323  -0.19017  -0.18579  -0.17006
 Alpha  occ. eigenvalues --   -0.15478
 Alpha virt. eigenvalues --   -0.11181  -0.06835  -0.06228  -0.04718  -0.02956
 Alpha virt. eigenvalues --   -0.02798  -0.02359  -0.02079  -0.01096   0.00358
 Alpha virt. eigenvalues --    0.01378   0.01764   0.02402   0.02551   0.03071

 Mulliken charges:
               1
     1  Mg   0.693594
     2  C    0.021760
     3  C   -0.061189
     4  C   -0.018401
     5  C   -0.052151
     6  N   -0.273586
     7  C   -0.089343
     8  C    0.074339
     9  C   -0.057435
    10  C    0.018826
    11  C    0.148993
    12  C    0.059267
    13  C    0.144029
    14  C    0.073975
    15  O   -0.202101
    16  O   -0.262319
    17  N   -0.310676
    18  C    0.157671
    19  C   -0.145216
    20  C    0.080330
    21  C    0.089246
    22  C    0.165637
    23  C   -0.107596
    24  O   -0.159491
    25  C    0.127782
    26  N   -0.145465
    27  C   -0.001741
    28  C    0.002023
    29  C    0.052949
    30  C   -0.070517
    31  C    0.117691
    32  C    0.071450
    33  C    0.081582
    34  N   -0.275298
    35  C    0.125773
    36  C   -0.186479
    37  C    0.178256
    38  C    0.074944
    39  C    0.165479
    40  C   -0.059166
    41  O   -0.115166
    42  C   -0.004063
    43  C    0.130642
    44  O   -0.193092
    45  O   -0.253455
    46  C    0.213749
    47  C    0.289708
    48  C   -0.079732
    49  C   -0.154945
    50  C    0.120806
    51  C    0.090974
    52  C    0.064692
    53  C    0.125742
    54  C   -0.045407
    55  C    0.119268
    56  C    0.063130
    57  C    0.065156
    58  C    0.139533
    59  C   -0.108541
    60  C    0.129966
    61  C    0.118122
    62  C    0.048762
    63  C    0.101604
    64  C   -0.098392
    65  C    0.115891
    66  C    0.121489
    67  H   -0.064196
    68  H   -0.046968
    69  H   -0.077932
    70  H   -0.026401
    71  H   -0.017882
    72  H    0.003405
    73  H   -0.000826
    74  H    0.003483
    75  H   -0.003971
    76  H    0.023424
    77  H   -0.005510
    78  H    0.002973
    79  H   -0.027291
    80  H    0.009525
    81  H    0.004420
    82  H    0.022964
    83  H   -0.018059
    84  H   -0.000894
    85  H   -0.002408
    86  H   -0.021268
    87  H   -0.003427
    88  H   -0.017716
    89  H   -0.009708
    90  H   -0.005558
    91  H   -0.016142
    92  H   -0.013199
    93  H    0.003025
    94  H   -0.019560
    95  H   -0.001845
    96  H   -0.003567
    97  H    0.008492
    98  H    0.014374
    99  H    0.005421
   100  H    0.009833
   101  H    0.013045
   102  H    0.021543
   103  H    0.011530
   104  H   -0.031211
   105  H   -0.006825
   106  H   -0.007264
   107  H    0.006616
   108  H   -0.030590
   109  H   -0.011415
   110  H   -0.015308
   111  H   -0.025638
   112  H   -0.024796
   113  H   -0.048589
   114  H   -0.048751
   115  H   -0.035482
   116  H   -0.013946
   117  H   -0.020803
   118  H   -0.034557
   119  H   -0.047740
   120  H   -0.030710
   121  H   -0.033894
   122  H   -0.029706
   123  H   -0.033720
   124  H   -0.031720
   125  H   -0.031191
   126  H   -0.014846
   127  H   -0.016132
   128  H   -0.042657
   129  H   -0.050431
   130  H   -0.024428
   131  H   -0.036035
   132  H   -0.028261
   133  H   -0.042594
   134  H   -0.040131
   135  H   -0.015741
   136  H    0.001300
   137  H   -0.037172
   138  H   -0.019488
   139  H   -0.023404
   140  H   -0.029731
 Sum of Mulliken charges =  -0.00000

 Dipole moment (field-independent basis, Debye):
    X=             -1.8616    Y=              1.8627    Z=             -1.3924  Tot=              2.9789
 Quadrupole moment (field-independent basis, Debye-Ang):
   XX=           -379.1122   YY=           -419.8590   ZZ=           -404.2682
   XY=              3.7775   XZ=             18.5236   YZ=              0.3038

 Normal termination of Gaussian 16 at Thu Apr 28 13:47:07 2022.
