 Gaussian 16, Revision A.03,
 Gaussian 16:  ES64L-G16RevA.03 25-Dec-2016

 -----------------------------------
 #p cam-b3lyp/Def2SVP td=(nstates=5)
 -----------------------------------

 -------------------------------------------------------
 step_1551_chromophore_7 TDDFT with cam-b3lyp functional
 -------------------------------------------------------
 Symbolic Z-matrix:
 Charge =  0 Multiplicity = 1

                         Standard orientation:
 ---------------------------------------------------------------------
 Center     Atomic      Atomic             Coordinates (Angstroms)
 Number     Number       Type             X           Y           Z
 ---------------------------------------------------------------------
      1         12           0        5.807665    0.643934   -0.010834
      2          6           0        3.883786   -2.126610    0.158096
      3          6           0        3.561551    2.269363   -1.940157
      4          6           0        8.136603    3.159440   -0.239500
      5          6           0        8.399938   -1.142532    1.774234
      6          7           0        3.913085    0.072395   -0.664003
      7          6           0        3.291914   -1.093962   -0.544256
      8          6           0        1.863751   -0.989894   -1.039995
      9          6           0        1.806936    0.363243   -1.827589
     10          6           0        3.190042    0.978730   -1.494772
     11          6           0        1.483025    0.435728   -3.380897
     12          6           0        0.804775   -1.182039    0.146661
     13          6           0       -0.652780   -0.618408   -0.099389
     14          6           0       -1.732892   -1.697403    0.339063
     15          8           0       -2.068052   -2.037005    1.480584
     16          8           0       -2.239027   -2.313927   -0.756668
     17          7           0        5.842426    2.453083   -0.995436
     18          6           0        4.802109    2.956394   -1.703207
     19          6           0        5.197830    4.310732   -2.113946
     20          6           0        6.450354    4.625788   -1.557423
     21          6           0        6.851847    3.418331   -0.847462
     22          6           0        4.399703    5.103309   -2.982326
     23          6           0        7.230877    5.876667   -1.612449
     24          8           0        8.137396    6.061478   -0.824838
     25          6           0        6.813839    6.980272   -2.536331
     26          7           0        8.093559    0.835316    0.476889
     27          6           0        8.738571    2.038642    0.360453
     28          6           0        9.933646    2.221774    1.289914
     29          6           0       10.052444    0.788519    1.936464
     30          6           0        8.791371    0.114950    1.360122
     31          6           0       11.191373    2.432369    0.490350
     32          6           0        9.924095    0.860985    3.502404
     33          6           0       10.631355   -0.184052    4.366661
     34          7           0        6.072592   -1.189459    0.892018
     35          6           0        7.159845   -1.813092    1.563561
     36          6           0        6.751168   -3.256443    1.838826
     37          6           0        5.520705   -3.378671    1.364033
     38          6           0        5.125085   -2.141121    0.791363
     39          6           0        7.626592   -4.224538    2.484504
     40          6           0        4.451698   -4.293660    1.279382
     41          8           0        4.202438   -5.404462    1.717348
     42          6           0        3.256844   -3.538921    0.468461
     43          6           0        2.861055   -4.233262   -0.723652
     44          8           0        3.282757   -3.991874   -1.846888
     45          8           0        1.802426   -5.054042   -0.429248
     46          6           0        1.321267   -5.744526   -1.593039
     47          6           0       -3.306895   -3.324475   -0.521897
     48          6           0       -4.607975   -2.918944   -1.180845
     49          6           0       -5.804137   -3.560129   -1.204027
     50          6           0       -6.269879   -4.738976   -0.318195
     51          6           0       -7.069857   -2.857638   -1.928842
     52          6           0       -7.778018   -1.861140   -0.958681
     53          6           0       -8.242790   -0.662918   -1.799724
     54          6           0       -9.792300   -0.716232   -2.157670
     55          6           0      -10.026674   -0.848140   -3.638673
     56          6           0      -10.587755    0.457085   -1.607223
     57          6           0      -12.082994    0.139001   -1.329865
     58          6           0      -12.828672    1.405477   -0.888053
     59          6           0      -13.912956    1.074194    0.137914
     60          6           0      -14.900257   -0.004839   -0.408474
     61          6           0      -14.714199    2.297847    0.677233
     62          6           0      -14.617890    2.286420    2.229065
     63          6           0      -13.221221    2.807907    2.763541
     64          6           0      -13.277085    3.914688    3.861950
     65          6           0      -12.076908    4.911139    3.901968
     66          6           0      -13.580445    3.452098    5.215671
     67          1           0        2.741583    2.768931   -2.461869
     68          1           0        8.850492    3.983248   -0.282864
     69          1           0        9.190906   -1.621976    2.354971
     70          1           0        1.777728   -1.805120   -1.758841
     71          1           0        1.132645    1.066188   -1.338136
     72          1           0        2.470219    0.669182   -3.780895
     73          1           0        0.763098    1.225333   -3.596060
     74          1           0        1.128175   -0.571959   -3.596481
     75          1           0        1.277140   -0.743622    1.025030
     76          1           0        0.690301   -2.250254    0.332156
     77          1           0       -0.767604   -0.370947   -1.154709
     78          1           0       -0.769738    0.308876    0.461400
     79          1           0        3.553494    4.613064   -3.463515
     80          1           0        5.075333    5.489258   -3.745829
     81          1           0        3.888979    5.877188   -2.410385
     82          1           0        6.998110    6.835555   -3.601222
     83          1           0        7.357255    7.866737   -2.210577
     84          1           0        5.758898    7.155143   -2.323575
     85          1           0        9.818624    2.962534    2.081566
     86          1           0       10.895204    0.213004    1.551728
     87          1           0       12.074641    1.846712    0.748161
     88          1           0       11.426384    3.493420    0.575241
     89          1           0       11.048015    2.430878   -0.589865
     90          1           0        8.866755    0.809193    3.757006
     91          1           0       10.363398    1.830235    3.738074
     92          1           0       11.139421   -0.903539    3.724824
     93          1           0        9.968560   -0.621428    5.113005
     94          1           0       11.495910    0.236275    4.879974
     95          1           0        6.973328   -4.849230    3.094451
     96          1           0        8.389451   -3.786672    3.126539
     97          1           0        8.060033   -4.962711    1.808816
     98          1           0        2.366728   -3.353288    1.069239
     99          1           0        0.882710   -6.635522   -1.143519
    100          1           0        2.106752   -6.123377   -2.246857
    101          1           0        0.604907   -5.220114   -2.225472
    102          1           0       -3.629844   -3.495697    0.504309
    103          1           0       -2.885365   -4.276947   -0.844410
    104          1           0       -4.624132   -1.898598   -1.564184
    105          1           0       -5.415589   -5.227316    0.150545
    106          1           0       -6.887712   -5.342697   -0.982670
    107          1           0       -6.951807   -4.451800    0.482476
    108          1           0       -7.769460   -3.661368   -2.157594
    109          1           0       -6.698357   -2.404966   -2.848471
    110          1           0       -7.170660   -1.492640   -0.131581
    111          1           0       -8.620060   -2.379864   -0.500295
    112          1           0       -7.689894   -0.471749   -2.719775
    113          1           0       -8.137744    0.131047   -1.060504
    114          1           0      -10.151354   -1.628969   -1.683296
    115          1           0       -9.198897   -1.304602   -4.180466
    116          1           0      -10.215421    0.136392   -4.068013
    117          1           0      -10.777793   -1.587855   -3.916458
    118          1           0      -10.551216    1.386897   -2.175869
    119          1           0      -10.138541    0.787947   -0.671148
    120          1           0      -12.093195   -0.634196   -0.561459
    121          1           0      -12.432459   -0.266010   -2.279834
    122          1           0      -13.333112    1.903441   -1.715828
    123          1           0      -12.090021    2.050577   -0.410617
    124          1           0      -13.397536    0.644552    0.996648
    125          1           0      -14.518081   -0.978468   -0.102573
    126          1           0      -14.929130   -0.052613   -1.496981
    127          1           0      -15.883332    0.059932    0.058881
    128          1           0      -15.762545    2.386229    0.391625
    129          1           0      -14.347543    3.248988    0.292286
    130          1           0      -14.837109    1.249571    2.483940
    131          1           0      -15.367980    2.930500    2.689285
    132          1           0      -12.469011    3.048948    2.011881
    133          1           0      -12.821724    1.893629    3.201739
    134          1           0      -14.119050    4.532821    3.550283
    135          1           0      -11.419620    4.566720    4.699746
    136          1           0      -12.444629    5.936842    3.914238
    137          1           0      -11.508716    4.727741    2.989586
    138          1           0      -14.638554    3.286934    5.417860
    139          1           0      -13.192215    4.106834    5.995858
    140          1           0      -13.094032    2.499558    5.430737
 ---------------------------------------------------------------------

 SCF Done:  E(RCAM-B3LYP) =  -3007.16359413     A.U. after   18 cycles

 Excitation energies and oscillator strengths:

 Excited State   1:      Singlet-A      1.7178 eV  721.77 nm  f=0.3834  <S**2>=0.000
     245 -> 248       -0.18684
     246 -> 247        0.68338
     245 <- 248       -0.10822
 This state for optimization and/or second-order correction.
 Total Energy, E(TD-HF/TD-DFT) =  -3007.10046691
 Copying the excited state density for this state as the 1-particle RhoCI density.

 Excited State   2:      Singlet-A      2.2605 eV  548.49 nm  f=0.0814  <S**2>=0.000
     245 -> 247        0.62665
     246 -> 248        0.31889

 Excited State   3:      Singlet-A      3.4619 eV  358.13 nm  f=0.7189  <S**2>=0.000
     245 -> 247       -0.30510
     246 -> 248        0.61359
     245 <- 247        0.11012

 Excited State   4:      Singlet-A      3.5310 eV  351.13 nm  f=0.0007  <S**2>=0.000
     240 -> 247        0.54819
     240 -> 249        0.36852
     240 -> 250        0.15614

 Excited State   5:      Singlet-A      3.6244 eV  342.08 nm  f=0.0301  <S**2>=0.000
     242 -> 247        0.14634
     243 -> 247        0.65839

 The electronic state is 1-A.
 Alpha  occ. eigenvalues --  -46.88489 -19.25669 -19.25313 -19.19871 -19.19754
 Alpha  occ. eigenvalues --  -19.19607 -19.18192 -14.41769 -14.41507 -14.39905
 Alpha  occ. eigenvalues --  -14.39576 -10.40012 -10.38743 -10.35862 -10.34271
 Alpha  occ. eigenvalues --  -10.32340 -10.31088 -10.31057 -10.30976 -10.30942
 Alpha  occ. eigenvalues --  -10.29916 -10.29811 -10.29609 -10.29526 -10.29433
 Alpha  occ. eigenvalues --  -10.29033 -10.28839 -10.28404 -10.28347 -10.28079
 Alpha  occ. eigenvalues --  -10.27546 -10.27523 -10.27511 -10.27349 -10.27278
 Alpha  occ. eigenvalues --  -10.27057 -10.26856 -10.26737 -10.26552 -10.26504
 Alpha  occ. eigenvalues --  -10.26389 -10.26365 -10.26239 -10.26140 -10.25972
 Alpha  occ. eigenvalues --  -10.25840 -10.25734 -10.25626 -10.25617 -10.25573
 Alpha  occ. eigenvalues --  -10.25550 -10.25454 -10.25407 -10.25068 -10.25052
 Alpha  occ. eigenvalues --  -10.24995 -10.24837 -10.24812 -10.24750 -10.24742
 Alpha  occ. eigenvalues --  -10.24490 -10.24407 -10.24392 -10.24269 -10.24252
 Alpha  occ. eigenvalues --  -10.23725  -3.17054  -1.91955  -1.91505  -1.91369
 Alpha  occ. eigenvalues --   -1.16933  -1.16460  -1.10660  -1.10172  -1.08145
 Alpha  occ. eigenvalues --   -1.06827  -1.04191  -1.03500  -1.02757  -1.01764
 Alpha  occ. eigenvalues --   -0.91986  -0.90367  -0.89470  -0.89155  -0.88973
 Alpha  occ. eigenvalues --   -0.88792  -0.88451  -0.88174  -0.87678  -0.87630
 Alpha  occ. eigenvalues --   -0.87112  -0.85138  -0.84391  -0.84002  -0.83236
 Alpha  occ. eigenvalues --   -0.82587  -0.82177  -0.81443  -0.80765  -0.80304
 Alpha  occ. eigenvalues --   -0.79612  -0.78899  -0.78036  -0.77022  -0.76001
 Alpha  occ. eigenvalues --   -0.75482  -0.75354  -0.74918  -0.74597  -0.74348
 Alpha  occ. eigenvalues --   -0.73265  -0.72801  -0.71449  -0.70314  -0.69431
 Alpha  occ. eigenvalues --   -0.68887  -0.68538  -0.67190  -0.66477  -0.65848
 Alpha  occ. eigenvalues --   -0.65349  -0.64971  -0.64773  -0.64152  -0.63959
 Alpha  occ. eigenvalues --   -0.63580  -0.63247  -0.62303  -0.62117  -0.60506
 Alpha  occ. eigenvalues --   -0.59699  -0.59643  -0.59032  -0.58387  -0.58288
 Alpha  occ. eigenvalues --   -0.57757  -0.57372  -0.56383  -0.56094  -0.55467
 Alpha  occ. eigenvalues --   -0.55090  -0.54650  -0.54575  -0.54409  -0.53875
 Alpha  occ. eigenvalues --   -0.53752  -0.53610  -0.53138  -0.52878  -0.52841
 Alpha  occ. eigenvalues --   -0.52707  -0.52338  -0.52131  -0.52010  -0.51963
 Alpha  occ. eigenvalues --   -0.51780  -0.51443  -0.51147  -0.50930  -0.50770
 Alpha  occ. eigenvalues --   -0.50638  -0.50201  -0.49913  -0.49830  -0.49641
 Alpha  occ. eigenvalues --   -0.49446  -0.49382  -0.49179  -0.49067  -0.48828
 Alpha  occ. eigenvalues --   -0.48296  -0.48152  -0.48061  -0.47978  -0.47642
 Alpha  occ. eigenvalues --   -0.47517  -0.47207  -0.47161  -0.47076  -0.46792
 Alpha  occ. eigenvalues --   -0.46631  -0.46359  -0.46241  -0.45910  -0.45774
 Alpha  occ. eigenvalues --   -0.45676  -0.45455  -0.45430  -0.45243  -0.44994
 Alpha  occ. eigenvalues --   -0.44763  -0.44605  -0.44368  -0.44162  -0.43912
 Alpha  occ. eigenvalues --   -0.43687  -0.43560  -0.43231  -0.42970  -0.42806
 Alpha  occ. eigenvalues --   -0.42626  -0.42456  -0.42385  -0.42268  -0.42100
 Alpha  occ. eigenvalues --   -0.41854  -0.41745  -0.41520  -0.41360  -0.40951
 Alpha  occ. eigenvalues --   -0.40939  -0.40654  -0.40434  -0.40218  -0.39989
 Alpha  occ. eigenvalues --   -0.39922  -0.39701  -0.39210  -0.39104  -0.38580
 Alpha  occ. eigenvalues --   -0.38262  -0.38233  -0.37825  -0.37528  -0.37495
 Alpha  occ. eigenvalues --   -0.37029  -0.36977  -0.36529  -0.36525  -0.36247
 Alpha  occ. eigenvalues --   -0.36190  -0.35902  -0.35093  -0.34622  -0.34552
 Alpha  occ. eigenvalues --   -0.34430  -0.33948  -0.33045  -0.31750  -0.31116
 Alpha  occ. eigenvalues --   -0.30889  -0.30439  -0.29442  -0.28995  -0.23791
 Alpha  occ. eigenvalues --   -0.20690
 Alpha virt. eigenvalues --   -0.08125  -0.01643   0.00231   0.02276   0.03037
 Alpha virt. eigenvalues --    0.04666   0.04913   0.05083   0.06096   0.06484
 Alpha virt. eigenvalues --    0.08188   0.08782   0.08864   0.09018   0.09329

 Mulliken charges:
               1
     1  Mg   0.826408
     2  C   -0.015207
     3  C   -0.074472
     4  C   -0.030760
     5  C   -0.062752
     6  N   -0.351922
     7  C   -0.032662
     8  C    0.022830
     9  C   -0.109929
    10  C    0.038133
    11  C    0.089498
    12  C    0.011910
    13  C    0.078777
    14  C    0.151356
    15  O   -0.245476
    16  O   -0.326527
    17  N   -0.396322
    18  C    0.162618
    19  C   -0.149798
    20  C    0.007608
    21  C    0.111781
    22  C    0.095052
    23  C   -0.026974
    24  O   -0.202437
    25  C    0.044954
    26  N   -0.206288
    27  C    0.013093
    28  C   -0.058725
    29  C   -0.003381
    30  C   -0.046492
    31  C    0.058489
    32  C    0.015792
    33  C    0.016509
    34  N   -0.364475
    35  C    0.133820
    36  C   -0.173620
    37  C    0.088336
    38  C    0.116324
    39  C    0.111242
    40  C    0.044413
    41  O   -0.151222
    42  C   -0.079065
    43  C    0.217661
    44  O   -0.228045
    45  O   -0.313951
    46  C    0.171725
    47  C    0.261238
    48  C   -0.102631
    49  C   -0.178140
    50  C    0.062210
    51  C    0.037346
    52  C    0.013429
    53  C    0.065333
    54  C   -0.101664
    55  C    0.057749
    56  C    0.012188
    57  C    0.012171
    58  C    0.089179
    59  C   -0.164711
    60  C    0.068720
    61  C    0.063272
    62  C   -0.003399
    63  C    0.048523
    64  C   -0.157804
    65  C    0.056422
    66  C    0.057392
    67  H   -0.029460
    68  H   -0.008666
    69  H   -0.041056
    70  H    0.009710
    71  H    0.015692
    72  H    0.030489
    73  H    0.022357
    74  H    0.026166
    75  H    0.027136
    76  H    0.046393
    77  H    0.028408
    78  H    0.035694
    79  H    0.001578
    80  H    0.033319
    81  H    0.029943
    82  H    0.050554
    83  H    0.017755
    84  H    0.026809
    85  H    0.031638
    86  H    0.012897
    87  H    0.020532
    88  H    0.007965
    89  H    0.017857
    90  H    0.023812
    91  H    0.012388
    92  H    0.008027
    93  H    0.026889
    94  H    0.006688
    95  H    0.027595
    96  H    0.022639
    97  H    0.038917
    98  H    0.057690
    99  H    0.030059
   100  H    0.035539
   101  H    0.034852
   102  H    0.052595
   103  H    0.036956
   104  H    0.001698
   105  H    0.016146
   106  H    0.016233
   107  H    0.030267
   108  H   -0.002240
   109  H    0.016331
   110  H    0.013340
   111  H    0.001530
   112  H    0.003668
   113  H   -0.016389
   114  H   -0.016598
   115  H   -0.010216
   116  H    0.010340
   117  H    0.004308
   118  H   -0.005945
   119  H   -0.019245
   120  H   -0.003126
   121  H   -0.006515
   122  H   -0.001355
   123  H   -0.006851
   124  H   -0.001946
   125  H   -0.006386
   126  H    0.009645
   127  H    0.008940
   128  H   -0.011355
   129  H   -0.019884
   130  H    0.002439
   131  H   -0.007526
   132  H   -0.002867
   133  H   -0.014725
   134  H   -0.008682
   135  H    0.007970
   136  H    0.025229
   137  H   -0.012029
   138  H    0.005015
   139  H    0.003228
   140  H   -0.005456
 Sum of Mulliken charges =  -0.00000

 Dipole moment (field-independent basis, Debye):
    X=             -1.8397    Y=              1.4596    Z=             -1.2809  Tot=              2.6751
 Quadrupole moment (field-independent basis, Debye-Ang):
   XX=           -376.6208   YY=           -416.4262   ZZ=           -403.5758
   XY=              1.2840   XZ=             20.7395   YZ=             -1.0670

 Normal termination of Gaussian 16 at Thu Apr 28 12:50:23 2022.
