 Gaussian 16, Revision A.03,
 Gaussian 16:  ES64L-G16RevA.03 25-Dec-2016

 ---------------------------------
 #p PBE1PBE/Def2SVP td=(nstates=5)
 ---------------------------------

 -----------------------------------------------------
 step_1551_chromophore_7 TDDFT with PBE1PBE functional
 -----------------------------------------------------
 Symbolic Z-matrix:
 Charge =  0 Multiplicity = 1

                         Standard orientation:
 ---------------------------------------------------------------------
 Center     Atomic      Atomic             Coordinates (Angstroms)
 Number     Number       Type             X           Y           Z
 ---------------------------------------------------------------------
      1         12           0        5.807665    0.643934   -0.010834
      2          6           0        3.883786   -2.126610    0.158096
      3          6           0        3.561551    2.269363   -1.940157
      4          6           0        8.136603    3.159440   -0.239500
      5          6           0        8.399938   -1.142532    1.774234
      6          7           0        3.913085    0.072395   -0.664003
      7          6           0        3.291914   -1.093962   -0.544256
      8          6           0        1.863751   -0.989894   -1.039995
      9          6           0        1.806936    0.363243   -1.827589
     10          6           0        3.190042    0.978730   -1.494772
     11          6           0        1.483025    0.435728   -3.380897
     12          6           0        0.804775   -1.182039    0.146661
     13          6           0       -0.652780   -0.618408   -0.099389
     14          6           0       -1.732892   -1.697403    0.339063
     15          8           0       -2.068052   -2.037005    1.480584
     16          8           0       -2.239027   -2.313927   -0.756668
     17          7           0        5.842426    2.453083   -0.995436
     18          6           0        4.802109    2.956394   -1.703207
     19          6           0        5.197830    4.310732   -2.113946
     20          6           0        6.450354    4.625788   -1.557423
     21          6           0        6.851847    3.418331   -0.847462
     22          6           0        4.399703    5.103309   -2.982326
     23          6           0        7.230877    5.876667   -1.612449
     24          8           0        8.137396    6.061478   -0.824838
     25          6           0        6.813839    6.980272   -2.536331
     26          7           0        8.093559    0.835316    0.476889
     27          6           0        8.738571    2.038642    0.360453
     28          6           0        9.933646    2.221774    1.289914
     29          6           0       10.052444    0.788519    1.936464
     30          6           0        8.791371    0.114950    1.360122
     31          6           0       11.191373    2.432369    0.490350
     32          6           0        9.924095    0.860985    3.502404
     33          6           0       10.631355   -0.184052    4.366661
     34          7           0        6.072592   -1.189459    0.892018
     35          6           0        7.159845   -1.813092    1.563561
     36          6           0        6.751168   -3.256443    1.838826
     37          6           0        5.520705   -3.378671    1.364033
     38          6           0        5.125085   -2.141121    0.791363
     39          6           0        7.626592   -4.224538    2.484504
     40          6           0        4.451698   -4.293660    1.279382
     41          8           0        4.202438   -5.404462    1.717348
     42          6           0        3.256844   -3.538921    0.468461
     43          6           0        2.861055   -4.233262   -0.723652
     44          8           0        3.282757   -3.991874   -1.846888
     45          8           0        1.802426   -5.054042   -0.429248
     46          6           0        1.321267   -5.744526   -1.593039
     47          6           0       -3.306895   -3.324475   -0.521897
     48          6           0       -4.607975   -2.918944   -1.180845
     49          6           0       -5.804137   -3.560129   -1.204027
     50          6           0       -6.269879   -4.738976   -0.318195
     51          6           0       -7.069857   -2.857638   -1.928842
     52          6           0       -7.778018   -1.861140   -0.958681
     53          6           0       -8.242790   -0.662918   -1.799724
     54          6           0       -9.792300   -0.716232   -2.157670
     55          6           0      -10.026674   -0.848140   -3.638673
     56          6           0      -10.587755    0.457085   -1.607223
     57          6           0      -12.082994    0.139001   -1.329865
     58          6           0      -12.828672    1.405477   -0.888053
     59          6           0      -13.912956    1.074194    0.137914
     60          6           0      -14.900257   -0.004839   -0.408474
     61          6           0      -14.714199    2.297847    0.677233
     62          6           0      -14.617890    2.286420    2.229065
     63          6           0      -13.221221    2.807907    2.763541
     64          6           0      -13.277085    3.914688    3.861950
     65          6           0      -12.076908    4.911139    3.901968
     66          6           0      -13.580445    3.452098    5.215671
     67          1           0        2.741583    2.768931   -2.461869
     68          1           0        8.850492    3.983248   -0.282864
     69          1           0        9.190906   -1.621976    2.354971
     70          1           0        1.777728   -1.805120   -1.758841
     71          1           0        1.132645    1.066188   -1.338136
     72          1           0        2.470219    0.669182   -3.780895
     73          1           0        0.763098    1.225333   -3.596060
     74          1           0        1.128175   -0.571959   -3.596481
     75          1           0        1.277140   -0.743622    1.025030
     76          1           0        0.690301   -2.250254    0.332156
     77          1           0       -0.767604   -0.370947   -1.154709
     78          1           0       -0.769738    0.308876    0.461400
     79          1           0        3.553494    4.613064   -3.463515
     80          1           0        5.075333    5.489258   -3.745829
     81          1           0        3.888979    5.877188   -2.410385
     82          1           0        6.998110    6.835555   -3.601222
     83          1           0        7.357255    7.866737   -2.210577
     84          1           0        5.758898    7.155143   -2.323575
     85          1           0        9.818624    2.962534    2.081566
     86          1           0       10.895204    0.213004    1.551728
     87          1           0       12.074641    1.846712    0.748161
     88          1           0       11.426384    3.493420    0.575241
     89          1           0       11.048015    2.430878   -0.589865
     90          1           0        8.866755    0.809193    3.757006
     91          1           0       10.363398    1.830235    3.738074
     92          1           0       11.139421   -0.903539    3.724824
     93          1           0        9.968560   -0.621428    5.113005
     94          1           0       11.495910    0.236275    4.879974
     95          1           0        6.973328   -4.849230    3.094451
     96          1           0        8.389451   -3.786672    3.126539
     97          1           0        8.060033   -4.962711    1.808816
     98          1           0        2.366728   -3.353288    1.069239
     99          1           0        0.882710   -6.635522   -1.143519
    100          1           0        2.106752   -6.123377   -2.246857
    101          1           0        0.604907   -5.220114   -2.225472
    102          1           0       -3.629844   -3.495697    0.504309
    103          1           0       -2.885365   -4.276947   -0.844410
    104          1           0       -4.624132   -1.898598   -1.564184
    105          1           0       -5.415589   -5.227316    0.150545
    106          1           0       -6.887712   -5.342697   -0.982670
    107          1           0       -6.951807   -4.451800    0.482476
    108          1           0       -7.769460   -3.661368   -2.157594
    109          1           0       -6.698357   -2.404966   -2.848471
    110          1           0       -7.170660   -1.492640   -0.131581
    111          1           0       -8.620060   -2.379864   -0.500295
    112          1           0       -7.689894   -0.471749   -2.719775
    113          1           0       -8.137744    0.131047   -1.060504
    114          1           0      -10.151354   -1.628969   -1.683296
    115          1           0       -9.198897   -1.304602   -4.180466
    116          1           0      -10.215421    0.136392   -4.068013
    117          1           0      -10.777793   -1.587855   -3.916458
    118          1           0      -10.551216    1.386897   -2.175869
    119          1           0      -10.138541    0.787947   -0.671148
    120          1           0      -12.093195   -0.634196   -0.561459
    121          1           0      -12.432459   -0.266010   -2.279834
    122          1           0      -13.333112    1.903441   -1.715828
    123          1           0      -12.090021    2.050577   -0.410617
    124          1           0      -13.397536    0.644552    0.996648
    125          1           0      -14.518081   -0.978468   -0.102573
    126          1           0      -14.929130   -0.052613   -1.496981
    127          1           0      -15.883332    0.059932    0.058881
    128          1           0      -15.762545    2.386229    0.391625
    129          1           0      -14.347543    3.248988    0.292286
    130          1           0      -14.837109    1.249571    2.483940
    131          1           0      -15.367980    2.930500    2.689285
    132          1           0      -12.469011    3.048948    2.011881
    133          1           0      -12.821724    1.893629    3.201739
    134          1           0      -14.119050    4.532821    3.550283
    135          1           0      -11.419620    4.566720    4.699746
    136          1           0      -12.444629    5.936842    3.914238
    137          1           0      -11.508716    4.727741    2.989586
    138          1           0      -14.638554    3.286934    5.417860
    139          1           0      -13.192215    4.106834    5.995858
    140          1           0      -13.094032    2.499558    5.430737
 ---------------------------------------------------------------------

 SCF Done:  E(RPBE1PBE) =  -3005.35232878     A.U. after   15 cycles

 Excitation energies and oscillator strengths:

 Excited State   1:      Singlet-A      1.8581 eV  667.26 nm  f=0.3760  <S**2>=0.000
     245 -> 248        0.17958
     246 -> 247        0.69102
     246 <- 247       -0.10375
 This state for optimization and/or second-order correction.
 Total Energy, E(TD-HF/TD-DFT) =  -3005.28404485
 Copying the excited state density for this state as the 1-particle RhoCI density.

 Excited State   2:      Singlet-A      2.2453 eV  552.19 nm  f=0.0824  <S**2>=0.000
     245 -> 247        0.64173
     246 -> 248       -0.28968

 Excited State   3:      Singlet-A      3.1320 eV  395.87 nm  f=0.0003  <S**2>=0.000
     241 -> 247        0.65726
     241 -> 249       -0.21246

 Excited State   4:      Singlet-A      3.1926 eV  388.35 nm  f=0.0120  <S**2>=0.000
     242 -> 247        0.17026
     243 -> 247        0.64121
     246 -> 248        0.17525

 Excited State   5:      Singlet-A      3.2561 eV  380.77 nm  f=0.0453  <S**2>=0.000
     242 -> 247        0.61138
     242 -> 249        0.10226
     243 -> 247       -0.11290
     246 -> 248       -0.23013
     246 -> 249       -0.11475

 The electronic state is 1-A.
 Alpha  occ. eigenvalues --  -46.91923 -19.26385 -19.25838 -19.19933 -19.19894
 Alpha  occ. eigenvalues --  -19.19858 -19.18580 -14.41424 -14.40894 -14.39506
 Alpha  occ. eigenvalues --  -14.39347 -10.37096 -10.35586 -10.32802 -10.31551
 Alpha  occ. eigenvalues --  -10.29767 -10.29022 -10.28624 -10.28463 -10.28113
 Alpha  occ. eigenvalues --  -10.27853 -10.27580 -10.27525 -10.27525 -10.26868
 Alpha  occ. eigenvalues --  -10.26344 -10.26295 -10.26180 -10.25968 -10.25935
 Alpha  occ. eigenvalues --  -10.25390 -10.25234 -10.25185 -10.25160 -10.25054
 Alpha  occ. eigenvalues --  -10.25054 -10.24751 -10.24170 -10.24168 -10.24052
 Alpha  occ. eigenvalues --  -10.23838 -10.23743 -10.23694 -10.23676 -10.23669
 Alpha  occ. eigenvalues --  -10.23574 -10.23460 -10.23155 -10.23130 -10.23110
 Alpha  occ. eigenvalues --  -10.23046 -10.23018 -10.22998 -10.22700 -10.22625
 Alpha  occ. eigenvalues --  -10.22560 -10.22457 -10.22352 -10.22322 -10.22284
 Alpha  occ. eigenvalues --  -10.22062 -10.21958 -10.21811 -10.21667 -10.21640
 Alpha  occ. eigenvalues --  -10.21068  -3.14067  -1.86909  -1.86437  -1.86305
 Alpha  occ. eigenvalues --   -1.11586  -1.11306  -1.05214  -1.05072  -1.02830
 Alpha  occ. eigenvalues --   -1.01710  -0.98729  -0.98103  -0.97367  -0.96608
 Alpha  occ. eigenvalues --   -0.86235  -0.84456  -0.83570  -0.83386  -0.83230
 Alpha  occ. eigenvalues --   -0.82951  -0.82633  -0.82556  -0.82002  -0.81810
 Alpha  occ. eigenvalues --   -0.81435  -0.79388  -0.78635  -0.78199  -0.77498
 Alpha  occ. eigenvalues --   -0.76798  -0.76427  -0.75720  -0.74987  -0.74665
 Alpha  occ. eigenvalues --   -0.73765  -0.73186  -0.72418  -0.71344  -0.70281
 Alpha  occ. eigenvalues --   -0.69638  -0.69444  -0.69252  -0.68762  -0.68499
 Alpha  occ. eigenvalues --   -0.67584  -0.67230  -0.65836  -0.64674  -0.63797
 Alpha  occ. eigenvalues --   -0.63110  -0.62912  -0.61776  -0.60722  -0.60219
 Alpha  occ. eigenvalues --   -0.59826  -0.59394  -0.59118  -0.58696  -0.58152
 Alpha  occ. eigenvalues --   -0.58036  -0.57417  -0.56634  -0.56489  -0.54978
 Alpha  occ. eigenvalues --   -0.54299  -0.54075  -0.53594  -0.52897  -0.52729
 Alpha  occ. eigenvalues --   -0.52199  -0.51805  -0.51000  -0.50514  -0.50112
 Alpha  occ. eigenvalues --   -0.49418  -0.49228  -0.49056  -0.48973  -0.48409
 Alpha  occ. eigenvalues --   -0.48314  -0.47999  -0.47760  -0.47367  -0.47337
 Alpha  occ. eigenvalues --   -0.47233  -0.46839  -0.46726  -0.46570  -0.46440
 Alpha  occ. eigenvalues --   -0.46294  -0.45923  -0.45642  -0.45529  -0.45359
 Alpha  occ. eigenvalues --   -0.45218  -0.44867  -0.44501  -0.44397  -0.44268
 Alpha  occ. eigenvalues --   -0.44035  -0.43934  -0.43859  -0.43675  -0.43424
 Alpha  occ. eigenvalues --   -0.42876  -0.42781  -0.42684  -0.42597  -0.42323
 Alpha  occ. eigenvalues --   -0.42162  -0.41810  -0.41717  -0.41678  -0.41556
 Alpha  occ. eigenvalues --   -0.41336  -0.41012  -0.40862  -0.40708  -0.40478
 Alpha  occ. eigenvalues --   -0.40281  -0.40255  -0.40069  -0.39993  -0.39648
 Alpha  occ. eigenvalues --   -0.39411  -0.39340  -0.39177  -0.38873  -0.38630
 Alpha  occ. eigenvalues --   -0.38445  -0.38278  -0.38140  -0.37809  -0.37527
 Alpha  occ. eigenvalues --   -0.37381  -0.37306  -0.37128  -0.37041  -0.36940
 Alpha  occ. eigenvalues --   -0.36730  -0.36521  -0.36396  -0.36202  -0.35841
 Alpha  occ. eigenvalues --   -0.35652  -0.35615  -0.35351  -0.35077  -0.34871
 Alpha  occ. eigenvalues --   -0.34762  -0.34462  -0.34088  -0.33979  -0.33391
 Alpha  occ. eigenvalues --   -0.33244  -0.33019  -0.32695  -0.32572  -0.32300
 Alpha  occ. eigenvalues --   -0.31900  -0.31819  -0.31585  -0.31371  -0.31342
 Alpha  occ. eigenvalues --   -0.31106  -0.30779  -0.29962  -0.29713  -0.29594
 Alpha  occ. eigenvalues --   -0.29126  -0.28809  -0.28645  -0.27200  -0.26362
 Alpha  occ. eigenvalues --   -0.25871  -0.25625  -0.25228  -0.24252  -0.20695
 Alpha  occ. eigenvalues --   -0.18352
 Alpha virt. eigenvalues --   -0.10686  -0.05166  -0.03964  -0.02151  -0.00030
 Alpha virt. eigenvalues --    0.00209   0.00470   0.00644   0.01657   0.03261
 Alpha virt. eigenvalues --    0.04071   0.04796   0.05351   0.05562   0.06066

 Mulliken charges:
               1
     1  Mg   0.977925
     2  C   -0.027126
     3  C   -0.068263
     4  C   -0.028595
     5  C   -0.062975
     6  N   -0.457068
     7  C    0.043073
     8  C   -0.044951
     9  C   -0.178838
    10  C    0.068550
    11  C    0.024313
    12  C   -0.043252
    13  C    0.005174
    14  C    0.213968
    15  O   -0.277995
    16  O   -0.355782
    17  N   -0.515416
    18  C    0.199486
    19  C   -0.188489
    20  C   -0.043464
    21  C    0.152196
    22  C    0.031761
    23  C    0.028556
    24  O   -0.238331
    25  C   -0.028997
    26  N   -0.305090
    27  C    0.053198
    28  C   -0.150528
    29  C   -0.077208
    30  C   -0.006058
    31  C    0.010613
    32  C   -0.042850
    33  C   -0.054180
    34  N   -0.487675
    35  C    0.158978
    36  C   -0.194845
    37  C    0.033266
    38  C    0.163421
    39  C    0.063856
    40  C    0.140485
    41  O   -0.199397
    42  C   -0.186834
    43  C    0.307349
    44  O   -0.262159
    45  O   -0.347119
    46  C    0.116393
    47  C    0.223055
    48  C   -0.117161
    49  C   -0.219455
    50  C   -0.001115
    51  C   -0.025461
    52  C   -0.045341
    53  C    0.005121
    54  C   -0.186326
    55  C    0.000850
    56  C   -0.042467
    57  C   -0.050126
    58  C    0.030531
    59  C   -0.252705
    60  C    0.010076
    61  C    0.014639
    62  C   -0.076770
    63  C    0.000008
    64  C   -0.252067
    65  C   -0.008153
    66  C   -0.002065
    67  H    0.003680
    68  H    0.023272
    69  H   -0.005662
    70  H    0.050663
    71  H    0.054936
    72  H    0.059414
    73  H    0.048795
    74  H    0.054812
    75  H    0.059380
    76  H    0.082081
    77  H    0.061341
    78  H    0.067082
    79  H    0.031015
    80  H    0.063310
    81  H    0.059681
    82  H    0.076407
    83  H    0.046797
    84  H    0.054826
    85  H    0.065620
    86  H    0.048280
    87  H    0.048006
    88  H    0.036213
    89  H    0.045398
    90  H    0.056611
    91  H    0.045460
    92  H    0.034247
    93  H    0.054297
    94  H    0.035002
    95  H    0.054403
    96  H    0.047235
    97  H    0.064882
    98  H    0.094382
    99  H    0.052133
   100  H    0.057546
   101  H    0.056258
   102  H    0.078571
   103  H    0.063081
   104  H    0.031705
   105  H    0.043528
   106  H    0.043816
   107  H    0.057294
   108  H    0.030780
   109  H    0.046892
   110  H    0.044983
   111  H    0.032756
   112  H    0.034830
   113  H    0.017854
   114  H    0.022114
   115  H    0.018050
   116  H    0.037593
   117  H    0.031289
   118  H    0.026661
   119  H    0.014376
   120  H    0.029147
   121  H    0.027978
   122  H    0.031868
   123  H    0.027358
   124  H    0.036955
   125  H    0.021816
   126  H    0.037227
   127  H    0.036405
   128  H    0.020478
   129  H    0.013141
   130  H    0.036292
   131  H    0.025093
   132  H    0.028293
   133  H    0.018171
   134  H    0.031081
   135  H    0.035943
   136  H    0.052237
   137  H    0.016624
   138  H    0.032438
   139  H    0.031046
   140  H    0.022287
 Sum of Mulliken charges =  -0.00000

 Dipole moment (field-independent basis, Debye):
    X=             -1.8493    Y=              1.9964    Z=             -1.4196  Tot=              3.0693
 Quadrupole moment (field-independent basis, Debye-Ang):
   XX=           -371.5089   YY=           -413.4511   ZZ=           -400.6319
   XY=              4.4474   XZ=             20.6605   YZ=             -1.6658

 Normal termination of Gaussian 16 at Thu Apr 28 13:11:34 2022.
