 Gaussian 16, Revision A.03,
 Gaussian 16:  ES64L-G16RevA.03 25-Dec-2016

 --------------------------------
 #p wB97XD/Def2SVP td=(nstates=5)
 --------------------------------

 ----------------------------------------------------
 step_1551_chromophore_7 TDDFT with wB97XD functional
 ----------------------------------------------------
 Symbolic Z-matrix:
 Charge =  0 Multiplicity = 1

                         Standard orientation:
 ---------------------------------------------------------------------
 Center     Atomic      Atomic             Coordinates (Angstroms)
 Number     Number       Type             X           Y           Z
 ---------------------------------------------------------------------
      1         12           0        5.807665    0.643934   -0.010834
      2          6           0        3.883786   -2.126610    0.158096
      3          6           0        3.561551    2.269363   -1.940157
      4          6           0        8.136603    3.159440   -0.239500
      5          6           0        8.399938   -1.142532    1.774234
      6          7           0        3.913085    0.072395   -0.664003
      7          6           0        3.291914   -1.093962   -0.544256
      8          6           0        1.863751   -0.989894   -1.039995
      9          6           0        1.806936    0.363243   -1.827589
     10          6           0        3.190042    0.978730   -1.494772
     11          6           0        1.483025    0.435728   -3.380897
     12          6           0        0.804775   -1.182039    0.146661
     13          6           0       -0.652780   -0.618408   -0.099389
     14          6           0       -1.732892   -1.697403    0.339063
     15          8           0       -2.068052   -2.037005    1.480584
     16          8           0       -2.239027   -2.313927   -0.756668
     17          7           0        5.842426    2.453083   -0.995436
     18          6           0        4.802109    2.956394   -1.703207
     19          6           0        5.197830    4.310732   -2.113946
     20          6           0        6.450354    4.625788   -1.557423
     21          6           0        6.851847    3.418331   -0.847462
     22          6           0        4.399703    5.103309   -2.982326
     23          6           0        7.230877    5.876667   -1.612449
     24          8           0        8.137396    6.061478   -0.824838
     25          6           0        6.813839    6.980272   -2.536331
     26          7           0        8.093559    0.835316    0.476889
     27          6           0        8.738571    2.038642    0.360453
     28          6           0        9.933646    2.221774    1.289914
     29          6           0       10.052444    0.788519    1.936464
     30          6           0        8.791371    0.114950    1.360122
     31          6           0       11.191373    2.432369    0.490350
     32          6           0        9.924095    0.860985    3.502404
     33          6           0       10.631355   -0.184052    4.366661
     34          7           0        6.072592   -1.189459    0.892018
     35          6           0        7.159845   -1.813092    1.563561
     36          6           0        6.751168   -3.256443    1.838826
     37          6           0        5.520705   -3.378671    1.364033
     38          6           0        5.125085   -2.141121    0.791363
     39          6           0        7.626592   -4.224538    2.484504
     40          6           0        4.451698   -4.293660    1.279382
     41          8           0        4.202438   -5.404462    1.717348
     42          6           0        3.256844   -3.538921    0.468461
     43          6           0        2.861055   -4.233262   -0.723652
     44          8           0        3.282757   -3.991874   -1.846888
     45          8           0        1.802426   -5.054042   -0.429248
     46          6           0        1.321267   -5.744526   -1.593039
     47          6           0       -3.306895   -3.324475   -0.521897
     48          6           0       -4.607975   -2.918944   -1.180845
     49          6           0       -5.804137   -3.560129   -1.204027
     50          6           0       -6.269879   -4.738976   -0.318195
     51          6           0       -7.069857   -2.857638   -1.928842
     52          6           0       -7.778018   -1.861140   -0.958681
     53          6           0       -8.242790   -0.662918   -1.799724
     54          6           0       -9.792300   -0.716232   -2.157670
     55          6           0      -10.026674   -0.848140   -3.638673
     56          6           0      -10.587755    0.457085   -1.607223
     57          6           0      -12.082994    0.139001   -1.329865
     58          6           0      -12.828672    1.405477   -0.888053
     59          6           0      -13.912956    1.074194    0.137914
     60          6           0      -14.900257   -0.004839   -0.408474
     61          6           0      -14.714199    2.297847    0.677233
     62          6           0      -14.617890    2.286420    2.229065
     63          6           0      -13.221221    2.807907    2.763541
     64          6           0      -13.277085    3.914688    3.861950
     65          6           0      -12.076908    4.911139    3.901968
     66          6           0      -13.580445    3.452098    5.215671
     67          1           0        2.741583    2.768931   -2.461869
     68          1           0        8.850492    3.983248   -0.282864
     69          1           0        9.190906   -1.621976    2.354971
     70          1           0        1.777728   -1.805120   -1.758841
     71          1           0        1.132645    1.066188   -1.338136
     72          1           0        2.470219    0.669182   -3.780895
     73          1           0        0.763098    1.225333   -3.596060
     74          1           0        1.128175   -0.571959   -3.596481
     75          1           0        1.277140   -0.743622    1.025030
     76          1           0        0.690301   -2.250254    0.332156
     77          1           0       -0.767604   -0.370947   -1.154709
     78          1           0       -0.769738    0.308876    0.461400
     79          1           0        3.553494    4.613064   -3.463515
     80          1           0        5.075333    5.489258   -3.745829
     81          1           0        3.888979    5.877188   -2.410385
     82          1           0        6.998110    6.835555   -3.601222
     83          1           0        7.357255    7.866737   -2.210577
     84          1           0        5.758898    7.155143   -2.323575
     85          1           0        9.818624    2.962534    2.081566
     86          1           0       10.895204    0.213004    1.551728
     87          1           0       12.074641    1.846712    0.748161
     88          1           0       11.426384    3.493420    0.575241
     89          1           0       11.048015    2.430878   -0.589865
     90          1           0        8.866755    0.809193    3.757006
     91          1           0       10.363398    1.830235    3.738074
     92          1           0       11.139421   -0.903539    3.724824
     93          1           0        9.968560   -0.621428    5.113005
     94          1           0       11.495910    0.236275    4.879974
     95          1           0        6.973328   -4.849230    3.094451
     96          1           0        8.389451   -3.786672    3.126539
     97          1           0        8.060033   -4.962711    1.808816
     98          1           0        2.366728   -3.353288    1.069239
     99          1           0        0.882710   -6.635522   -1.143519
    100          1           0        2.106752   -6.123377   -2.246857
    101          1           0        0.604907   -5.220114   -2.225472
    102          1           0       -3.629844   -3.495697    0.504309
    103          1           0       -2.885365   -4.276947   -0.844410
    104          1           0       -4.624132   -1.898598   -1.564184
    105          1           0       -5.415589   -5.227316    0.150545
    106          1           0       -6.887712   -5.342697   -0.982670
    107          1           0       -6.951807   -4.451800    0.482476
    108          1           0       -7.769460   -3.661368   -2.157594
    109          1           0       -6.698357   -2.404966   -2.848471
    110          1           0       -7.170660   -1.492640   -0.131581
    111          1           0       -8.620060   -2.379864   -0.500295
    112          1           0       -7.689894   -0.471749   -2.719775
    113          1           0       -8.137744    0.131047   -1.060504
    114          1           0      -10.151354   -1.628969   -1.683296
    115          1           0       -9.198897   -1.304602   -4.180466
    116          1           0      -10.215421    0.136392   -4.068013
    117          1           0      -10.777793   -1.587855   -3.916458
    118          1           0      -10.551216    1.386897   -2.175869
    119          1           0      -10.138541    0.787947   -0.671148
    120          1           0      -12.093195   -0.634196   -0.561459
    121          1           0      -12.432459   -0.266010   -2.279834
    122          1           0      -13.333112    1.903441   -1.715828
    123          1           0      -12.090021    2.050577   -0.410617
    124          1           0      -13.397536    0.644552    0.996648
    125          1           0      -14.518081   -0.978468   -0.102573
    126          1           0      -14.929130   -0.052613   -1.496981
    127          1           0      -15.883332    0.059932    0.058881
    128          1           0      -15.762545    2.386229    0.391625
    129          1           0      -14.347543    3.248988    0.292286
    130          1           0      -14.837109    1.249571    2.483940
    131          1           0      -15.367980    2.930500    2.689285
    132          1           0      -12.469011    3.048948    2.011881
    133          1           0      -12.821724    1.893629    3.201739
    134          1           0      -14.119050    4.532821    3.550283
    135          1           0      -11.419620    4.566720    4.699746
    136          1           0      -12.444629    5.936842    3.914238
    137          1           0      -11.508716    4.727741    2.989586
    138          1           0      -14.638554    3.286934    5.417860
    139          1           0      -13.192215    4.106834    5.995858
    140          1           0      -13.094032    2.499558    5.430737
 ---------------------------------------------------------------------

 SCF Done:  E(RwB97XD) =  -3007.86051656     A.U. after   19 cycles

 Excitation energies and oscillator strengths:

 Excited State   1:      Singlet-A      1.6672 eV  743.66 nm  f=0.3810  <S**2>=0.000
     245 -> 248       -0.19182
     246 -> 247        0.68075
     245 <- 248       -0.11697
 This state for optimization and/or second-order correction.
 Total Energy, E(TD-HF/TD-DFT) =  -3007.79924760
 Copying the excited state density for this state as the 1-particle RhoCI density.

 Excited State   2:      Singlet-A      2.2111 eV  560.74 nm  f=0.0801  <S**2>=0.000
     245 -> 247        0.62514
     246 -> 248        0.31951

 Excited State   3:      Singlet-A      3.4723 eV  357.07 nm  f=0.7400  <S**2>=0.000
     241 -> 247       -0.10865
     245 -> 247       -0.30448
     246 -> 248        0.61344
     245 <- 247        0.11526

 Excited State   4:      Singlet-A      3.5484 eV  349.41 nm  f=0.0006  <S**2>=0.000
     240 -> 247        0.53721
     240 -> 249        0.38831
     240 -> 250        0.15778

 Excited State   5:      Singlet-A      3.6696 eV  337.87 nm  f=0.0101  <S**2>=0.000
     239 -> 247       -0.10352
     241 -> 247       -0.18173
     242 -> 247        0.11439
     243 -> 247        0.63913

 The electronic state is 1-A.
 Alpha  occ. eigenvalues --  -46.94827 -19.30952 -19.30544 -19.24998 -19.24704
 Alpha  occ. eigenvalues --  -19.24612 -19.23150 -14.46354 -14.46127 -14.44552
 Alpha  occ. eigenvalues --  -14.44141 -10.43887 -10.42574 -10.39942 -10.38153
 Alpha  occ. eigenvalues --  -10.36263 -10.35207 -10.35117 -10.35001 -10.34712
 Alpha  occ. eigenvalues --  -10.33938 -10.33790 -10.33581 -10.33512 -10.33481
 Alpha  occ. eigenvalues --  -10.33245 -10.32796 -10.32483 -10.32358 -10.32126
 Alpha  occ. eigenvalues --  -10.31623 -10.31596 -10.31569 -10.31375 -10.31313
 Alpha  occ. eigenvalues --  -10.31062 -10.30975 -10.30841 -10.30514 -10.30366
 Alpha  occ. eigenvalues --  -10.30323 -10.30212 -10.30208 -10.30095 -10.30034
 Alpha  occ. eigenvalues --  -10.29733 -10.29685 -10.29659 -10.29490 -10.29465
 Alpha  occ. eigenvalues --  -10.29444 -10.29436 -10.29394 -10.28979 -10.28975
 Alpha  occ. eigenvalues --  -10.28844 -10.28794 -10.28745 -10.28678 -10.28668
 Alpha  occ. eigenvalues --  -10.28431 -10.28312 -10.28221 -10.28106 -10.28081
 Alpha  occ. eigenvalues --  -10.27512  -3.20830  -1.94420  -1.93949  -1.93816
 Alpha  occ. eigenvalues --   -1.19115  -1.18694  -1.12971  -1.12318  -1.10340
 Alpha  occ. eigenvalues --   -1.09070  -1.06228  -1.05512  -1.04800  -1.03751
 Alpha  occ. eigenvalues --   -0.94009  -0.92130  -0.91256  -0.91095  -0.90842
 Alpha  occ. eigenvalues --   -0.90671  -0.90278  -0.90053  -0.89541  -0.89469
 Alpha  occ. eigenvalues --   -0.89034  -0.87011  -0.86258  -0.85920  -0.85125
 Alpha  occ. eigenvalues --   -0.84467  -0.84087  -0.83342  -0.82663  -0.82272
 Alpha  occ. eigenvalues --   -0.81437  -0.80837  -0.79941  -0.78934  -0.77965
 Alpha  occ. eigenvalues --   -0.77334  -0.77134  -0.76865  -0.76435  -0.76168
 Alpha  occ. eigenvalues --   -0.75198  -0.74795  -0.73407  -0.72267  -0.71448
 Alpha  occ. eigenvalues --   -0.70753  -0.70479  -0.69148  -0.68357  -0.67794
 Alpha  occ. eigenvalues --   -0.67322  -0.66871  -0.66705  -0.66162  -0.65770
 Alpha  occ. eigenvalues --   -0.65567  -0.65068  -0.64119  -0.64107  -0.62508
 Alpha  occ. eigenvalues --   -0.61635  -0.61585  -0.61022  -0.60337  -0.60296
 Alpha  occ. eigenvalues --   -0.59718  -0.59295  -0.58354  -0.58029  -0.57454
 Alpha  occ. eigenvalues --   -0.56930  -0.56640  -0.56543  -0.56345  -0.55807
 Alpha  occ. eigenvalues --   -0.55705  -0.55455  -0.55110  -0.54755  -0.54713
 Alpha  occ. eigenvalues --   -0.54612  -0.54243  -0.54042  -0.53946  -0.53827
 Alpha  occ. eigenvalues --   -0.53686  -0.53452  -0.53098  -0.52829  -0.52681
 Alpha  occ. eigenvalues --   -0.52549  -0.52109  -0.51841  -0.51753  -0.51567
 Alpha  occ. eigenvalues --   -0.51348  -0.51254  -0.51064  -0.50983  -0.50752
 Alpha  occ. eigenvalues --   -0.50196  -0.50047  -0.49964  -0.49877  -0.49564
 Alpha  occ. eigenvalues --   -0.49431  -0.49125  -0.49042  -0.48996  -0.48728
 Alpha  occ. eigenvalues --   -0.48560  -0.48262  -0.48207  -0.47847  -0.47724
 Alpha  occ. eigenvalues --   -0.47512  -0.47388  -0.47299  -0.47146  -0.46935
 Alpha  occ. eigenvalues --   -0.46744  -0.46568  -0.46274  -0.46043  -0.45882
 Alpha  occ. eigenvalues --   -0.45668  -0.45437  -0.45176  -0.44872  -0.44660
 Alpha  occ. eigenvalues --   -0.44499  -0.44393  -0.44300  -0.44192  -0.44022
 Alpha  occ. eigenvalues --   -0.43772  -0.43617  -0.43434  -0.43297  -0.42854
 Alpha  occ. eigenvalues --   -0.42776  -0.42585  -0.42358  -0.42111  -0.41872
 Alpha  occ. eigenvalues --   -0.41805  -0.41551  -0.41051  -0.41014  -0.40450
 Alpha  occ. eigenvalues --   -0.40186  -0.40088  -0.39665  -0.39435  -0.39352
 Alpha  occ. eigenvalues --   -0.39002  -0.38971  -0.38449  -0.38397  -0.38376
 Alpha  occ. eigenvalues --   -0.38099  -0.37755  -0.36922  -0.36581  -0.36427
 Alpha  occ. eigenvalues --   -0.36376  -0.35897  -0.35304  -0.33995  -0.33167
 Alpha  occ. eigenvalues --   -0.32950  -0.32483  -0.31562  -0.31025  -0.25731
 Alpha  occ. eigenvalues --   -0.22502
 Alpha virt. eigenvalues --   -0.06466   0.00278   0.02258   0.04418   0.06046
 Alpha virt. eigenvalues --    0.06858   0.07102   0.07348   0.08395   0.09487
 Alpha virt. eigenvalues --    0.10778   0.11541   0.12145   0.12359   0.12807

 Mulliken charges:
               1
     1  Mg   0.966877
     2  C   -0.031077
     3  C   -0.087653
     4  C   -0.037942
     5  C   -0.072131
     6  N   -0.426883
     7  C    0.014010
     8  C   -0.023005
     9  C   -0.157284
    10  C    0.061178
    11  C    0.039728
    12  C   -0.027935
    13  C    0.020610
    14  C    0.205420
    15  O   -0.275944
    16  O   -0.355495
    17  N   -0.481148
    18  C    0.183384
    19  C   -0.172839
    20  C   -0.036586
    21  C    0.135261
    22  C    0.043953
    23  C    0.021891
    24  O   -0.234777
    25  C   -0.017181
    26  N   -0.269842
    27  C    0.035363
    28  C   -0.119761
    29  C   -0.053885
    30  C   -0.017500
    31  C    0.015460
    32  C   -0.027259
    33  C   -0.040899
    34  N   -0.454156
    35  C    0.150036
    36  C   -0.185549
    37  C    0.037509
    38  C    0.152696
    39  C    0.069975
    40  C    0.124280
    41  O   -0.187513
    42  C   -0.148975
    43  C    0.284007
    44  O   -0.256169
    45  O   -0.345336
    46  C    0.131219
    47  C    0.236232
    48  C   -0.125758
    49  C   -0.206756
    50  C    0.012884
    51  C   -0.006034
    52  C   -0.030246
    53  C    0.022403
    54  C   -0.157119
    55  C    0.010224
    56  C   -0.023770
    57  C   -0.032894
    58  C    0.047049
    59  C   -0.218482
    60  C    0.020570
    61  C    0.022321
    62  C   -0.049942
    63  C    0.011101
    64  C   -0.220181
    65  C    0.006508
    66  C    0.007820
    67  H   -0.003821
    68  H    0.017798
    69  H   -0.016366
    70  H    0.037634
    71  H    0.041659
    72  H    0.051924
    73  H    0.044329
    74  H    0.048320
    75  H    0.052288
    76  H    0.068680
    77  H    0.054085
    78  H    0.063092
    79  H    0.025382
    80  H    0.054725
    81  H    0.052867
    82  H    0.072894
    83  H    0.044389
    84  H    0.047248
    85  H    0.057125
    86  H    0.037718
    87  H    0.042113
    88  H    0.030475
    89  H    0.039584
    90  H    0.047552
    91  H    0.036897
    92  H    0.027296
    93  H    0.049525
    94  H    0.030217
    95  H    0.051335
    96  H    0.044418
    97  H    0.063094
    98  H    0.086837
    99  H    0.048877
   100  H    0.052887
   101  H    0.052975
   102  H    0.073161
   103  H    0.059279
   104  H    0.028251
   105  H    0.038508
   106  H    0.037148
   107  H    0.051995
   108  H    0.022206
   109  H    0.038091
   110  H    0.037133
   111  H    0.024114
   112  H    0.025898
   113  H    0.009085
   114  H    0.007137
   115  H    0.011051
   116  H    0.031388
   117  H    0.026244
   118  H    0.016938
   119  H    0.003157
   120  H    0.018872
   121  H    0.017167
   122  H    0.023780
   123  H    0.015308
   124  H    0.020575
   125  H    0.015069
   126  H    0.030860
   127  H    0.030867
   128  H    0.013860
   129  H    0.004599
   130  H    0.025606
   131  H    0.016056
   132  H    0.016902
   133  H    0.007654
   134  H    0.017755
   135  H    0.029028
   136  H    0.047828
   137  H    0.009865
   138  H    0.027310
   139  H    0.025104
   140  H    0.015040
 Sum of Mulliken charges =  -0.00000

 Dipole moment (field-independent basis, Debye):
    X=             -1.8592    Y=              1.3689    Z=             -1.1963  Tot=              2.6003
 Quadrupole moment (field-independent basis, Debye-Ang):
   XX=           -371.5730   YY=           -412.3155   ZZ=           -400.2551
   XY=              0.8129   XZ=             22.0715   YZ=             -1.7141

 Normal termination of Gaussian 16 at Thu Apr 28 13:36:03 2022.
