 Gaussian 16, Revision A.03,
 Gaussian 16:  ES64L-G16RevA.03 25-Dec-2016

 --------------------
 #p ZINDO=(nstates=5)
 --------------------

 -----------------------------
 step_1551_chromophore_7 ZINDO
 -----------------------------
 Symbolic Z-matrix:
 Charge =  0 Multiplicity = 1

                         Standard orientation:
 ---------------------------------------------------------------------
 Center     Atomic      Atomic             Coordinates (Angstroms)
 Number     Number       Type             X           Y           Z
 ---------------------------------------------------------------------
      1         12           0        5.807665    0.643934   -0.010834
      2          6           0        3.883786   -2.126610    0.158096
      3          6           0        3.561551    2.269363   -1.940157
      4          6           0        8.136603    3.159440   -0.239500
      5          6           0        8.399938   -1.142532    1.774234
      6          7           0        3.913085    0.072395   -0.664003
      7          6           0        3.291914   -1.093962   -0.544256
      8          6           0        1.863751   -0.989894   -1.039995
      9          6           0        1.806936    0.363243   -1.827589
     10          6           0        3.190042    0.978730   -1.494772
     11          6           0        1.483025    0.435728   -3.380897
     12          6           0        0.804775   -1.182039    0.146661
     13          6           0       -0.652780   -0.618408   -0.099389
     14          6           0       -1.732892   -1.697403    0.339063
     15          8           0       -2.068052   -2.037005    1.480584
     16          8           0       -2.239027   -2.313927   -0.756668
     17          7           0        5.842426    2.453083   -0.995436
     18          6           0        4.802109    2.956394   -1.703207
     19          6           0        5.197830    4.310732   -2.113946
     20          6           0        6.450354    4.625788   -1.557423
     21          6           0        6.851847    3.418331   -0.847462
     22          6           0        4.399703    5.103309   -2.982326
     23          6           0        7.230877    5.876667   -1.612449
     24          8           0        8.137396    6.061478   -0.824838
     25          6           0        6.813839    6.980272   -2.536331
     26          7           0        8.093559    0.835316    0.476889
     27          6           0        8.738571    2.038642    0.360453
     28          6           0        9.933646    2.221774    1.289914
     29          6           0       10.052444    0.788519    1.936464
     30          6           0        8.791371    0.114950    1.360122
     31          6           0       11.191373    2.432369    0.490350
     32          6           0        9.924095    0.860985    3.502404
     33          6           0       10.631355   -0.184052    4.366661
     34          7           0        6.072592   -1.189459    0.892018
     35          6           0        7.159845   -1.813092    1.563561
     36          6           0        6.751168   -3.256443    1.838826
     37          6           0        5.520705   -3.378671    1.364033
     38          6           0        5.125085   -2.141121    0.791363
     39          6           0        7.626592   -4.224538    2.484504
     40          6           0        4.451698   -4.293660    1.279382
     41          8           0        4.202438   -5.404462    1.717348
     42          6           0        3.256844   -3.538921    0.468461
     43          6           0        2.861055   -4.233262   -0.723652
     44          8           0        3.282757   -3.991874   -1.846888
     45          8           0        1.802426   -5.054042   -0.429248
     46          6           0        1.321267   -5.744526   -1.593039
     47          6           0       -3.306895   -3.324475   -0.521897
     48          6           0       -4.607975   -2.918944   -1.180845
     49          6           0       -5.804137   -3.560129   -1.204027
     50          6           0       -6.269879   -4.738976   -0.318195
     51          6           0       -7.069857   -2.857638   -1.928842
     52          6           0       -7.778018   -1.861140   -0.958681
     53          6           0       -8.242790   -0.662918   -1.799724
     54          6           0       -9.792300   -0.716232   -2.157670
     55          6           0      -10.026674   -0.848140   -3.638673
     56          6           0      -10.587755    0.457085   -1.607223
     57          6           0      -12.082994    0.139001   -1.329865
     58          6           0      -12.828672    1.405477   -0.888053
     59          6           0      -13.912956    1.074194    0.137914
     60          6           0      -14.900257   -0.004839   -0.408474
     61          6           0      -14.714199    2.297847    0.677233
     62          6           0      -14.617890    2.286420    2.229065
     63          6           0      -13.221221    2.807907    2.763541
     64          6           0      -13.277085    3.914688    3.861950
     65          6           0      -12.076908    4.911139    3.901968
     66          6           0      -13.580445    3.452098    5.215671
     67          1           0        2.741583    2.768931   -2.461869
     68          1           0        8.850492    3.983248   -0.282864
     69          1           0        9.190906   -1.621976    2.354971
     70          1           0        1.777728   -1.805120   -1.758841
     71          1           0        1.132645    1.066188   -1.338136
     72          1           0        2.470219    0.669182   -3.780895
     73          1           0        0.763098    1.225333   -3.596060
     74          1           0        1.128175   -0.571959   -3.596481
     75          1           0        1.277140   -0.743622    1.025030
     76          1           0        0.690301   -2.250254    0.332156
     77          1           0       -0.767604   -0.370947   -1.154709
     78          1           0       -0.769738    0.308876    0.461400
     79          1           0        3.553494    4.613064   -3.463515
     80          1           0        5.075333    5.489258   -3.745829
     81          1           0        3.888979    5.877188   -2.410385
     82          1           0        6.998110    6.835555   -3.601222
     83          1           0        7.357255    7.866737   -2.210577
     84          1           0        5.758898    7.155143   -2.323575
     85          1           0        9.818624    2.962534    2.081566
     86          1           0       10.895204    0.213004    1.551728
     87          1           0       12.074641    1.846712    0.748161
     88          1           0       11.426384    3.493420    0.575241
     89          1           0       11.048015    2.430878   -0.589865
     90          1           0        8.866755    0.809193    3.757006
     91          1           0       10.363398    1.830235    3.738074
     92          1           0       11.139421   -0.903539    3.724824
     93          1           0        9.968560   -0.621428    5.113005
     94          1           0       11.495910    0.236275    4.879974
     95          1           0        6.973328   -4.849230    3.094451
     96          1           0        8.389451   -3.786672    3.126539
     97          1           0        8.060033   -4.962711    1.808816
     98          1           0        2.366728   -3.353288    1.069239
     99          1           0        0.882710   -6.635522   -1.143519
    100          1           0        2.106752   -6.123377   -2.246857
    101          1           0        0.604907   -5.220114   -2.225472
    102          1           0       -3.629844   -3.495697    0.504309
    103          1           0       -2.885365   -4.276947   -0.844410
    104          1           0       -4.624132   -1.898598   -1.564184
    105          1           0       -5.415589   -5.227316    0.150545
    106          1           0       -6.887712   -5.342697   -0.982670
    107          1           0       -6.951807   -4.451800    0.482476
    108          1           0       -7.769460   -3.661368   -2.157594
    109          1           0       -6.698357   -2.404966   -2.848471
    110          1           0       -7.170660   -1.492640   -0.131581
    111          1           0       -8.620060   -2.379864   -0.500295
    112          1           0       -7.689894   -0.471749   -2.719775
    113          1           0       -8.137744    0.131047   -1.060504
    114          1           0      -10.151354   -1.628969   -1.683296
    115          1           0       -9.198897   -1.304602   -4.180466
    116          1           0      -10.215421    0.136392   -4.068013
    117          1           0      -10.777793   -1.587855   -3.916458
    118          1           0      -10.551216    1.386897   -2.175869
    119          1           0      -10.138541    0.787947   -0.671148
    120          1           0      -12.093195   -0.634196   -0.561459
    121          1           0      -12.432459   -0.266010   -2.279834
    122          1           0      -13.333112    1.903441   -1.715828
    123          1           0      -12.090021    2.050577   -0.410617
    124          1           0      -13.397536    0.644552    0.996648
    125          1           0      -14.518081   -0.978468   -0.102573
    126          1           0      -14.929130   -0.052613   -1.496981
    127          1           0      -15.883332    0.059932    0.058881
    128          1           0      -15.762545    2.386229    0.391625
    129          1           0      -14.347543    3.248988    0.292286
    130          1           0      -14.837109    1.249571    2.483940
    131          1           0      -15.367980    2.930500    2.689285
    132          1           0      -12.469011    3.048948    2.011881
    133          1           0      -12.821724    1.893629    3.201739
    134          1           0      -14.119050    4.532821    3.550283
    135          1           0      -11.419620    4.566720    4.699746
    136          1           0      -12.444629    5.936842    3.914238
    137          1           0      -11.508716    4.727741    2.989586
    138          1           0      -14.638554    3.286934    5.417860
    139          1           0      -13.192215    4.106834    5.995858
    140          1           0      -13.094032    2.499558    5.430737
 ---------------------------------------------------------------------

 SCF Done:  E(RZINDO/S) =  -474.350595606     A.U. after   19 cycles

 Excitation energies and oscillator strengths:

 Excited State   1:      Singlet-A      1.2932 eV  958.76 nm  f=0.5344  <S**2>=0.000
     175 ->178        -0.17859
     176 ->177         0.66528
 This state for optimization and/or second-order correction.
 Total Energy, E(CIS/TDA) =  -474.303072486
 Copying the excited state density for this state as the 1-particle RhoCI density.

 Excited State   2:      Singlet-A      1.9444 eV  637.65 nm  f=0.0133  <S**2>=0.000
     175 ->177         0.51219
     176 ->178         0.45524

 Excited State   3:      Singlet-A      2.9265 eV  423.67 nm  f=0.0011  <S**2>=0.000
     168 ->177         0.34770
     168 ->178        -0.11040
     168 ->179        -0.45414
     168 ->182         0.14456
     168 ->186        -0.15527
     176 ->179         0.18362

 Excited State   4:      Singlet-A      2.9722 eV  417.14 nm  f=1.1528  <S**2>=0.000
     175 ->177        -0.41878
     176 ->178         0.48005
     176 ->180        -0.11105

 Excited State   5:      Singlet-A      2.9947 eV  414.01 nm  f=0.0439  <S**2>=0.000
     168 ->179         0.12870
     171 ->180         0.11610
     171 ->181        -0.10838
     176 ->178         0.15131
     176 ->179         0.52500
     176 ->180         0.18606
     176 ->181        -0.16377

 The electronic state is 1-A.
 Alpha  occ. eigenvalues --   -1.85015  -1.80353  -1.78910  -1.74647  -1.72226
 Alpha  occ. eigenvalues --   -1.70868  -1.65800  -1.61128  -1.59546  -1.58949
 Alpha  occ. eigenvalues --   -1.55404  -1.50598  -1.50014  -1.47158  -1.45884
 Alpha  occ. eigenvalues --   -1.44346  -1.42475  -1.42029  -1.40291  -1.39559
 Alpha  occ. eigenvalues --   -1.37398  -1.36133  -1.32397  -1.30288  -1.28197
 Alpha  occ. eigenvalues --   -1.25590  -1.24140  -1.21700  -1.21090  -1.19610
 Alpha  occ. eigenvalues --   -1.18677  -1.15797  -1.15164  -1.14029  -1.12737
 Alpha  occ. eigenvalues --   -1.11952  -1.10981  -1.09788  -1.04454  -1.03787
 Alpha  occ. eigenvalues --   -1.02281  -1.01197  -0.98708  -0.97668  -0.97071
 Alpha  occ. eigenvalues --   -0.95398  -0.93664  -0.93106  -0.92624  -0.92316
 Alpha  occ. eigenvalues --   -0.91395  -0.90971  -0.88251  -0.88099  -0.86517
 Alpha  occ. eigenvalues --   -0.86324  -0.84540  -0.83071  -0.82103  -0.80566
 Alpha  occ. eigenvalues --   -0.79644  -0.79239  -0.78114  -0.77676  -0.76031
 Alpha  occ. eigenvalues --   -0.75792  -0.75678  -0.74447  -0.74040  -0.73641
 Alpha  occ. eigenvalues --   -0.72376  -0.72312  -0.71381  -0.71280  -0.71126
 Alpha  occ. eigenvalues --   -0.69953  -0.69258  -0.68764  -0.68130  -0.67666
 Alpha  occ. eigenvalues --   -0.67230  -0.66963  -0.66756  -0.66579  -0.65983
 Alpha  occ. eigenvalues --   -0.65497  -0.64724  -0.64184  -0.64127  -0.63712
 Alpha  occ. eigenvalues --   -0.63454  -0.63083  -0.62745  -0.62612  -0.61896
 Alpha  occ. eigenvalues --   -0.61504  -0.61040  -0.60750  -0.60405  -0.59523
 Alpha  occ. eigenvalues --   -0.59147  -0.58972  -0.58721  -0.58674  -0.58356
 Alpha  occ. eigenvalues --   -0.57989  -0.57551  -0.57112  -0.56917  -0.56393
 Alpha  occ. eigenvalues --   -0.56037  -0.55712  -0.54917  -0.54821  -0.54691
 Alpha  occ. eigenvalues --   -0.54271  -0.53621  -0.53193  -0.52932  -0.52727
 Alpha  occ. eigenvalues --   -0.52214  -0.52072  -0.51579  -0.51480  -0.51251
 Alpha  occ. eigenvalues --   -0.51017  -0.50737  -0.50637  -0.50509  -0.50336
 Alpha  occ. eigenvalues --   -0.50162  -0.49887  -0.49660  -0.49634  -0.48940
 Alpha  occ. eigenvalues --   -0.48624  -0.48272  -0.48178  -0.47936  -0.47622
 Alpha  occ. eigenvalues --   -0.47213  -0.47045  -0.46524  -0.46425  -0.46182
 Alpha  occ. eigenvalues --   -0.46146  -0.45823  -0.45716  -0.45475  -0.45363
 Alpha  occ. eigenvalues --   -0.44967  -0.44444  -0.44404  -0.43951  -0.43889
 Alpha  occ. eigenvalues --   -0.43581  -0.43350  -0.42799  -0.42582  -0.42472
 Alpha  occ. eigenvalues --   -0.42167  -0.41846  -0.41631  -0.39108  -0.39046
 Alpha  occ. eigenvalues --   -0.38140  -0.37309  -0.36029  -0.35357  -0.34305
 Alpha  occ. eigenvalues --   -0.34065  -0.32000  -0.31529  -0.31417  -0.26507
 Alpha  occ. eigenvalues --   -0.21350
 Alpha virt. eigenvalues --   -0.07774  -0.01943  -0.00718   0.01471   0.01626
 Alpha virt. eigenvalues --    0.01932   0.02807   0.03108   0.04080   0.05132
 Alpha virt. eigenvalues --    0.06448   0.06665   0.07524   0.07781   0.08280

 Mulliken charges:
               1
     1  Mg   0.429824
     2  C   -0.082264
     3  C   -0.078155
     4  C   -0.044341
     5  C   -0.065242
     6  N   -0.289085
     7  C    0.185921
     8  C    0.010561
     9  C   -0.012243
    10  C    0.079710
    11  C   -0.056458
    12  C   -0.021402
    13  C    0.007104
    14  C    0.465119
    15  O   -0.525248
    16  O   -0.264645
    17  N   -0.303682
    18  C    0.075053
    19  C   -0.006755
    20  C   -0.051770
    21  C    0.090056
    22  C   -0.039384
    23  C    0.334077
    24  O   -0.531537
    25  C   -0.034217
    26  N   -0.267066
    27  C    0.081508
    28  C    0.012113
    29  C   -0.007651
    30  C    0.161221
    31  C   -0.054621
    32  C   -0.029652
    33  C   -0.059963
    34  N   -0.333418
    35  C    0.090538
    36  C    0.083070
    37  C   -0.021725
    38  C    0.150021
    39  C   -0.035209
    40  C    0.338291
    41  O   -0.505810
    42  C    0.032369
    43  C    0.495638
    44  O   -0.531820
    45  O   -0.254765
    46  C    0.075587
    47  C    0.107416
    48  C   -0.075717
    49  C   -0.037264
    50  C   -0.043832
    51  C   -0.031815
    52  C   -0.026969
    53  C   -0.044021
    54  C   -0.009269
    55  C   -0.056205
    56  C   -0.036076
    57  C   -0.038794
    58  C   -0.028064
    59  C   -0.010079
    60  C   -0.060251
    61  C   -0.038343
    62  C   -0.037078
    63  C   -0.037622
    64  C   -0.005701
    65  C   -0.061984
    66  C   -0.044363
    67  H    0.028051
    68  H    0.041614
    69  H    0.022883
    70  H    0.037131
    71  H    0.022207
    72  H    0.036130
    73  H    0.029088
    74  H    0.028331
    75  H    0.032830
    76  H    0.031418
    77  H    0.038223
    78  H    0.042997
    79  H    0.014725
    80  H    0.026920
    81  H    0.027562
    82  H    0.042770
    83  H    0.028897
    84  H    0.035129
    85  H    0.046170
    86  H    0.043419
    87  H    0.023511
    88  H    0.010076
    89  H    0.024796
    90  H    0.028265
    91  H    0.021276
    92  H    0.017780
    93  H    0.027016
    94  H    0.015035
    95  H    0.031044
    96  H    0.029206
    97  H    0.044365
    98  H    0.060409
    99  H    0.023915
   100  H    0.044281
   101  H    0.044216
   102  H    0.062911
   103  H    0.044086
   104  H    0.032941
   105  H    0.025123
   106  H    0.026402
   107  H    0.031982
   108  H    0.021118
   109  H    0.027939
   110  H    0.024963
   111  H    0.021792
   112  H    0.032551
   113  H    0.012162
   114  H    0.018756
   115  H    0.007790
   116  H    0.021959
   117  H    0.015662
   118  H    0.017960
   119  H    0.005185
   120  H    0.023651
   121  H    0.021091
   122  H    0.023672
   123  H    0.018825
   124  H    0.020931
   125  H    0.008165
   126  H    0.024759
   127  H    0.020704
   128  H    0.016653
   129  H    0.010374
   130  H    0.023188
   131  H    0.014318
   132  H    0.025784
   133  H    0.007600
   134  H    0.008648
   135  H    0.025500
   136  H    0.031933
   137  H    0.010789
   138  H    0.012711
   139  H    0.012977
   140  H    0.011135
 Sum of Mulliken charges =  -0.00000

 Dipole moment (field-independent basis, Debye):
    X=             -2.3659    Y=             -0.0091    Z=             -0.9856  Tot=              2.5630
 N-N= 4.195328917535D+03 E-N= 0.000000000000D+00  KE=-9.065199823566D+03
 Leave Link  601 at Thu Apr 28 13:47:14 2022, MaxMem=  6710886400 cpu:               0.8 elap:               0.0
 (Enter /sw/apps/gaussian-16.0/g16/l9999.exe)
 1\1\GINC-BP1-COMPUTE154\SP\RZINDO CIS\STO-3G\C55H74Mg1N4O6\OF15641\28-
 Apr-2022\0\\#p ZINDO=(nstates=5)\\step_1551_chromophore_7 ZINDO\\0,1\M
 g,0,25.968,-0.33,29.778\C,0,27.92,-0.78,32.497\C,0,23.168,-0.054,31.64
 7\C,0,24.246,-0.221,26.807\C,0,28.864,-0.94,27.695\N,0,25.711,-0.323,3
 1.846\C,0,26.593,-0.554,32.81\C,0,25.979,-0.285,34.169\C,0,24.438,-0.1
 87,33.904\C,0,24.384,-0.203,32.355\C,0,23.394,-1.198,34.545\C,0,26.669
 ,0.963,34.899\C,0,25.841,1.663,36.051\C,0,26.771,1.909,37.315\O,0,27.6

 Normal termination of Gaussian 16 at Thu Apr 28 13:47:14 2022.
