 Gaussian 16, Revision A.03,
 Gaussian 16:  ES64L-G16RevA.03 25-Dec-2016

 ------------------------------
 #p blyp/Def2SVP td=(nstates=5)
 ------------------------------

 --------------------------------------------------
 step_701_chromophore_24 TDDFT with blyp functional
 --------------------------------------------------
 Symbolic Z-matrix:
 Charge =  0 Multiplicity = 1

                         Standard orientation:
 ---------------------------------------------------------------------
 Center     Atomic      Atomic             Coordinates (Angstroms)
 Number     Number       Type             X           Y           Z
 ---------------------------------------------------------------------
      1         12           0        5.152381    0.948826    0.296027
      2          6           0        4.057597   -2.459520    0.056125
      3          6           0        1.882009    1.813162   -0.431692
      4          6           0        6.204673    4.146866   -0.311784
      5          6           0        8.426692   -0.197102    0.428229
      6          7           0        3.175323   -0.290988   -0.242974
      7          6           0        2.930836   -1.604426   -0.047086
      8          6           0        1.480648   -2.015596   -0.345107
      9          6           0        0.834093   -0.566648   -0.684218
     10          6           0        2.075949    0.447458   -0.394406
     11          6           0        0.263999   -0.377106   -2.100527
     12          6           0        0.773431   -2.650907    0.914891
     13          6           0       -0.328391   -3.649435    0.776051
     14          6           0       -1.274502   -3.531265   -0.422875
     15          8           0       -1.224424   -4.191493   -1.503316
     16          8           0       -2.070308   -2.408699   -0.323392
     17          7           0        4.204223    2.826739    0.018570
     18          6           0        2.842540    2.900968   -0.233016
     19          6           0        2.477789    4.322728   -0.253066
     20          6           0        3.763775    5.066471   -0.340168
     21          6           0        4.775903    4.004806   -0.269753
     22          6           0        1.094929    4.794178   -0.390694
     23          6           0        4.024071    6.602933   -0.454791
     24          8           0        5.156055    7.033949   -0.516217
     25          6           0        2.809418    7.476994   -0.304822
     26          7           0        7.027154    1.826965    0.263346
     27          6           0        7.222583    3.165727   -0.046322
     28          6           0        8.715888    3.462673   -0.283697
     29          6           0        9.396812    2.209421    0.308767
     30          6           0        8.256051    1.234421    0.346636
     31          6           0        9.054539    3.745642   -1.703177
     32          6           0       10.016332    2.325743    1.702621
     33          6           0        9.027963    2.452441    2.914763
     34          7           0        6.076876   -0.921570    0.317660
     35          6           0        7.433728   -1.187630    0.422595
     36          6           0        7.574889   -2.570477    0.444309
     37          6           0        6.316545   -3.093477    0.340061
     38          6           0        5.384347   -2.096209    0.191707
     39          6           0        8.709341   -3.360090    0.596430
     40          6           0        5.559848   -4.338749    0.331335
     41          8           0        5.976053   -5.483746    0.305478
     42          6           0        4.088655   -3.954852    0.180218
     43          6           0        3.515405   -4.662138   -0.949641
     44          8           0        3.912224   -4.484468   -2.082149
     45          8           0        2.643423   -5.705303   -0.637480
     46          6           0        2.177667   -6.554404   -1.690250
     47          6           0       -2.976047   -2.061924   -1.361301
     48          6           0       -4.401648   -1.963169   -0.795940
     49          6           0       -5.440898   -2.854370   -0.848110
     50          6           0       -5.268543   -4.291083   -1.346470
     51          6           0       -6.784802   -2.644662   -0.254484
     52          6           0       -6.888444   -2.819973    1.265103
     53          6           0       -6.879232   -1.498168    2.080537
     54          6           0       -8.266141   -1.162546    2.749829
     55          6           0       -8.632410   -2.131595    3.874649
     56          6           0       -8.294334    0.324086    3.199358
     57          6           0       -9.389093    1.136272    2.457694
     58          6           0       -8.854234    1.719195    1.025600
     59          6           0       -9.763547    1.417316   -0.232067
     60          6           0       -8.954411    1.444095   -1.574764
     61          6           0      -10.901922    2.427821   -0.292773
     62          6           0      -12.195882    2.054814    0.436009
     63          6           0      -13.301666    1.586066   -0.448119
     64          6           0      -13.895927    2.684671   -1.294236
     65          6           0      -14.900704    3.534054   -0.512534
     66          6           0      -14.608485    2.119988   -2.531141
     67          1           0        0.862283    2.125989   -0.666721
     68          1           0        6.661606    5.125854   -0.472847
     69          1           0        9.477824   -0.488114    0.478286
     70          1           0        1.417868   -2.644449   -1.233758
     71          1           0       -0.003437   -0.478516    0.007910
     72          1           0        0.558210   -1.237716   -2.700149
     73          1           0        0.572317    0.565990   -2.550939
     74          1           0       -0.787627   -0.426366   -1.820466
     75          1           0        0.384279   -1.878843    1.579289
     76          1           0        1.533372   -3.290598    1.364481
     77          1           0       -0.811695   -3.798561    1.742007
     78          1           0        0.188587   -4.599632    0.643537
     79          1           0        0.406731    3.998832   -0.103899
     80          1           0        0.793597    5.315318   -1.300049
     81          1           0        0.836189    5.492240    0.405758
     82          1           0        3.105385    8.525961   -0.317928
     83          1           0        2.281871    7.234486    0.617458
     84          1           0        2.099983    7.286735   -1.109695
     85          1           0        8.955851    4.324415    0.339702
     86          1           0       10.203365    1.714440   -0.232004
     87          1           0        9.694849    3.011510   -2.192216
     88          1           0        9.718929    4.598285   -1.847971
     89          1           0        8.201214    3.948033   -2.349786
     90          1           0       10.792098    3.078466    1.840210
     91          1           0       10.483492    1.378022    1.970866
     92          1           0        9.326082    3.345195    3.463865
     93          1           0        8.998425    1.539374    3.509621
     94          1           0        7.990082    2.562798    2.598430
     95          1           0        8.713664   -3.828756    1.580167
     96          1           0        9.611892   -2.750197    0.654825
     97          1           0        8.942005   -4.117374   -0.152928
     98          1           0        3.635171   -4.429635    1.050465
     99          1           0        2.654793   -6.473919   -2.667079
    100          1           0        1.097715   -6.449227   -1.798061
    101          1           0        2.343542   -7.588190   -1.389199
    102          1           0       -2.914268   -2.687956   -2.251332
    103          1           0       -2.792209   -1.030967   -1.663641
    104          1           0       -4.724772   -0.980145   -0.451981
    105          1           0       -6.010205   -4.511509   -2.113842
    106          1           0       -5.454855   -4.883534   -0.450803
    107          1           0       -4.274797   -4.400411   -1.780562
    108          1           0       -7.569699   -3.233460   -0.727339
    109          1           0       -7.138051   -1.647548   -0.517582
    110          1           0       -6.061755   -3.398217    1.678075
    111          1           0       -7.759589   -3.452409    1.437287
    112          1           0       -6.546526   -0.712103    1.401887
    113          1           0       -6.091292   -1.720723    2.799425
    114          1           0       -8.930787   -1.525813    1.966000
    115          1           0       -7.721234   -2.637135    4.193971
    116          1           0       -9.416925   -2.848349    3.631762
    117          1           0       -9.041795   -1.599661    4.733433
    118          1           0       -7.375866    0.906732    3.120718
    119          1           0       -8.588120    0.474994    4.238022
    120          1           0       -9.798523    1.906101    3.111854
    121          1           0      -10.183522    0.413927    2.273760
    122          1           0       -8.019418    1.076533    0.744754
    123          1           0       -8.496176    2.748204    1.068809
    124          1           0      -10.219387    0.447191   -0.030269
    125          1           0       -9.576033    1.531655   -2.465367
    126          1           0       -8.588417    0.444952   -1.812081
    127          1           0       -8.212091    2.222568   -1.394031
    128          1           0      -11.128375    2.763774   -1.305229
    129          1           0      -10.391810    3.303799    0.107529
    130          1           0      -12.550841    2.833037    1.111626
    131          1           0      -11.985857    1.150635    1.006959
    132          1           0      -14.081954    1.103930    0.142501
    133          1           0      -12.853857    0.819100   -1.080169
    134          1           0      -13.111891    3.355284   -1.646344
    135          1           0      -15.911247    3.811220   -0.812571
    136          1           0      -14.507909    4.545353   -0.405031
    137          1           0      -14.857220    3.080180    0.477342
    138          1           0      -14.042249    2.595406   -3.332599
    139          1           0      -15.627434    2.500170   -2.596233
    140          1           0      -14.547422    1.046578   -2.708735
 ---------------------------------------------------------------------

 SCF Done:  E(RB-LYP) =  -3007.33300225     A.U. after   21 cycles

 Excitation energies and oscillator strengths:

 Excited State   1:      Singlet-A      1.8285 eV  678.07 nm  f=0.2336  <S**2>=0.000
     244 -> 247        0.26174
     245 -> 248        0.19434
     246 -> 247        0.63029
     246 <- 247       -0.12815
 This state for optimization and/or second-order correction.
 Total Energy, E(TD-HF/TD-DFT) =  -3007.26580652
 Copying the excited state density for this state as the 1-particle RhoCI density.

 Excited State   2:      Singlet-A      1.8890 eV  656.33 nm  f=0.0675  <S**2>=0.000
     244 -> 247        0.61872
     245 -> 247        0.19067
     246 -> 247       -0.26423

 Excited State   3:      Singlet-A      2.0076 eV  617.59 nm  f=0.0751  <S**2>=0.000
     241 -> 247        0.12040
     244 -> 247       -0.21214
     245 -> 247        0.61299
     246 -> 248       -0.24496

 Excited State   4:      Singlet-A      2.0901 eV  593.19 nm  f=0.0014  <S**2>=0.000
     243 -> 247        0.70601

 Excited State   5:      Singlet-A      2.3934 eV  518.01 nm  f=0.0008  <S**2>=0.000
     242 -> 247        0.69424

 The electronic state is 1-A.
 Alpha  occ. eigenvalues --  -46.27747 -18.82892 -18.81437 -18.77591 -18.76159
 Alpha  occ. eigenvalues --  -18.75663 -18.75407 -14.03447 -14.03302 -14.01493
 Alpha  occ. eigenvalues --  -14.00230 -10.05311 -10.03048 -10.00425  -9.99150
 Alpha  occ. eigenvalues --   -9.98316  -9.96939  -9.96761  -9.96754  -9.96469
 Alpha  occ. eigenvalues --   -9.96425  -9.96232  -9.96132  -9.95140  -9.94687
 Alpha  occ. eigenvalues --   -9.94202  -9.94024  -9.93923  -9.93866  -9.93853
 Alpha  occ. eigenvalues --   -9.93779  -9.93762  -9.93745  -9.93634  -9.93491
 Alpha  occ. eigenvalues --   -9.93477  -9.93185  -9.93065  -9.93049  -9.92718
 Alpha  occ. eigenvalues --   -9.92713  -9.92664  -9.92335  -9.92128  -9.92120
 Alpha  occ. eigenvalues --   -9.92003  -9.91965  -9.91941  -9.91921  -9.91916
 Alpha  occ. eigenvalues --   -9.91888  -9.91885  -9.91764  -9.91648  -9.91630
 Alpha  occ. eigenvalues --   -9.91510  -9.91380  -9.91369  -9.91206  -9.91145
 Alpha  occ. eigenvalues --   -9.90697  -9.90676  -9.90397  -9.90291  -9.90161
 Alpha  occ. eigenvalues --   -9.89731  -2.92258  -1.72690  -1.72167  -1.71937
 Alpha  occ. eigenvalues --   -0.98228  -0.97071  -0.92343  -0.91416  -0.89315
 Alpha  occ. eigenvalues --   -0.88982  -0.86672  -0.86012  -0.85727  -0.85066
 Alpha  occ. eigenvalues --   -0.76420  -0.74054  -0.73647  -0.73374  -0.72664
 Alpha  occ. eigenvalues --   -0.72273  -0.71676  -0.71228  -0.71092  -0.70711
 Alpha  occ. eigenvalues --   -0.69943  -0.69380  -0.68167  -0.67909  -0.67243
 Alpha  occ. eigenvalues --   -0.66621  -0.66071  -0.65797  -0.65248  -0.64564
 Alpha  occ. eigenvalues --   -0.64434  -0.62624  -0.62453  -0.61922  -0.60833
 Alpha  occ. eigenvalues --   -0.60403  -0.60145  -0.60033  -0.59887  -0.59209
 Alpha  occ. eigenvalues --   -0.58978  -0.57974  -0.56705  -0.55580  -0.55132
 Alpha  occ. eigenvalues --   -0.54427  -0.53697  -0.52940  -0.52110  -0.51562
 Alpha  occ. eigenvalues --   -0.51260  -0.50785  -0.50697  -0.50583  -0.50181
 Alpha  occ. eigenvalues --   -0.49959  -0.49584  -0.48220  -0.47810  -0.46878
 Alpha  occ. eigenvalues --   -0.46474  -0.46232  -0.45898  -0.45465  -0.44921
 Alpha  occ. eigenvalues --   -0.44493  -0.43734  -0.43335  -0.42804  -0.42678
 Alpha  occ. eigenvalues --   -0.42502  -0.42456  -0.41975  -0.41605  -0.41394
 Alpha  occ. eigenvalues --   -0.41169  -0.41019  -0.40758  -0.40688  -0.40205
 Alpha  occ. eigenvalues --   -0.40017  -0.39777  -0.39743  -0.39620  -0.39529
 Alpha  occ. eigenvalues --   -0.39187  -0.38951  -0.38679  -0.38537  -0.38425
 Alpha  occ. eigenvalues --   -0.38129  -0.37808  -0.37688  -0.37447  -0.37288
 Alpha  occ. eigenvalues --   -0.37195  -0.36986  -0.36916  -0.36810  -0.36637
 Alpha  occ. eigenvalues --   -0.36432  -0.36228  -0.36215  -0.35916  -0.35793
 Alpha  occ. eigenvalues --   -0.35560  -0.35379  -0.35278  -0.35001  -0.34890
 Alpha  occ. eigenvalues --   -0.34727  -0.34458  -0.34378  -0.34156  -0.33845
 Alpha  occ. eigenvalues --   -0.33745  -0.33592  -0.33277  -0.33103  -0.33049
 Alpha  occ. eigenvalues --   -0.32853  -0.32834  -0.32664  -0.32557  -0.32400
 Alpha  occ. eigenvalues --   -0.32116  -0.32075  -0.31642  -0.31549  -0.31397
 Alpha  occ. eigenvalues --   -0.31226  -0.31003  -0.30947  -0.30798  -0.30564
 Alpha  occ. eigenvalues --   -0.30516  -0.30368  -0.30040  -0.29998  -0.29902
 Alpha  occ. eigenvalues --   -0.29821  -0.29565  -0.29262  -0.29160  -0.28837
 Alpha  occ. eigenvalues --   -0.28806  -0.28208  -0.28129  -0.27996  -0.27675
 Alpha  occ. eigenvalues --   -0.27514  -0.27240  -0.26862  -0.26445  -0.26421
 Alpha  occ. eigenvalues --   -0.26010  -0.25903  -0.25553  -0.25440  -0.25312
 Alpha  occ. eigenvalues --   -0.24980  -0.24611  -0.24059  -0.23858  -0.23852
 Alpha  occ. eigenvalues --   -0.23075  -0.22510  -0.22087  -0.21060  -0.20722
 Alpha  occ. eigenvalues --   -0.20144  -0.19949  -0.19290  -0.18522  -0.17285
 Alpha  occ. eigenvalues --   -0.16142
 Alpha virt. eigenvalues --   -0.11694  -0.07114  -0.06079  -0.04787  -0.04520
 Alpha virt. eigenvalues --   -0.02940  -0.02473  -0.02292  -0.01649  -0.00321
 Alpha virt. eigenvalues --    0.00879   0.01536   0.01848   0.02392   0.02615

 Mulliken charges:
               1
     1  Mg   0.686390
     2  C    0.050291
     3  C   -0.054549
     4  C   -0.036023
     5  C   -0.095291
     6  N   -0.156406
     7  C   -0.101965
     8  C   -0.009755
     9  C   -0.071496
    10  C    0.037911
    11  C    0.137663
    12  C    0.094433
    13  C    0.150293
    14  C    0.106304
    15  O   -0.229722
    16  O   -0.262469
    17  N   -0.283469
    18  C    0.143782
    19  C   -0.145197
    20  C   -0.007630
    21  C    0.104222
    22  C    0.171092
    23  C   -0.052375
    24  O   -0.143058
    25  C    0.125216
    26  N   -0.244041
    27  C   -0.012078
    28  C    0.092256
    29  C    0.077854
    30  C   -0.024484
    31  C    0.141311
    32  C    0.048138
    33  C    0.046115
    34  N   -0.283648
    35  C    0.173611
    36  C   -0.148024
    37  C    0.118841
    38  C    0.094402
    39  C    0.179202
    40  C   -0.088592
    41  O   -0.122802
    42  C    0.113723
    43  C    0.071259
    44  O   -0.176093
    45  O   -0.273261
    46  C    0.206469
    47  C    0.328941
    48  C   -0.114058
    49  C   -0.161439
    50  C    0.142066
    51  C    0.125186
    52  C    0.061360
    53  C    0.084887
    54  C   -0.049863
    55  C    0.107275
    56  C    0.131878
    57  C    0.050805
    58  C    0.081474
    59  C   -0.115986
    60  C    0.108365
    61  C    0.126054
    62  C    0.120625
    63  C    0.097972
    64  C   -0.098006
    65  C    0.097689
    66  C    0.126728
    67  H   -0.051009
    68  H   -0.039682
    69  H   -0.063776
    70  H    0.016060
    71  H   -0.024278
    72  H    0.003135
    73  H    0.001913
    74  H   -0.013439
    75  H   -0.004376
    76  H   -0.010134
    77  H   -0.004334
    78  H   -0.011899
    79  H   -0.023187
    80  H    0.015783
    81  H   -0.023643
    82  H   -0.004894
    83  H    0.014739
    84  H    0.002188
    85  H   -0.026382
    86  H   -0.037659
    87  H   -0.018071
    88  H   -0.021022
    89  H   -0.000311
    90  H   -0.015858
    91  H   -0.027979
    92  H   -0.005086
    93  H   -0.009358
    94  H    0.000189
    95  H   -0.001688
    96  H   -0.051449
    97  H    0.013247
    98  H   -0.009712
    99  H    0.020059
   100  H    0.017544
   101  H    0.002063
   102  H    0.009478
   103  H   -0.008194
   104  H   -0.041926
   105  H   -0.005422
   106  H    0.002544
   107  H   -0.001334
   108  H   -0.046100
   109  H   -0.023804
   110  H   -0.031400
   111  H   -0.033700
   112  H   -0.017280
   113  H   -0.034992
   114  H   -0.028432
   115  H   -0.018456
   116  H   -0.014731
   117  H   -0.023208
   118  H   -0.028959
   119  H   -0.043467
   120  H   -0.027587
   121  H   -0.023055
   122  H   -0.035553
   123  H   -0.019145
   124  H   -0.045266
   125  H   -0.020606
   126  H   -0.019895
   127  H    0.000738
   128  H   -0.047334
   129  H   -0.060812
   130  H   -0.040828
   131  H   -0.037674
   132  H   -0.035214
   133  H   -0.046005
   134  H   -0.029083
   135  H   -0.009271
   136  H   -0.033167
   137  H   -0.022366
   138  H   -0.028517
   139  H   -0.021004
   140  H   -0.016973
 Sum of Mulliken charges =  -0.00000

 Dipole moment (field-independent basis, Debye):
    X=             -3.8472    Y=              2.9838    Z=              2.9993  Tot=              5.7184
 Quadrupole moment (field-independent basis, Debye-Ang):
   XX=           -382.9879   YY=           -436.4021   ZZ=           -408.2254
   XY=             18.7197   XZ=              8.8165   YZ=             -7.3776

 Normal termination of Gaussian 16 at Thu May  5 06:52:17 2022.
