 Gaussian 16, Revision A.03,
 Gaussian 16:  ES64L-G16RevA.03 25-Dec-2016

 -----------------------------------
 #p cam-b3lyp/Def2SVP td=(nstates=5)
 -----------------------------------

 -------------------------------------------------------
 step_701_chromophore_24 TDDFT with cam-b3lyp functional
 -------------------------------------------------------
 Symbolic Z-matrix:
 Charge =  0 Multiplicity = 1

                         Standard orientation:
 ---------------------------------------------------------------------
 Center     Atomic      Atomic             Coordinates (Angstroms)
 Number     Number       Type             X           Y           Z
 ---------------------------------------------------------------------
      1         12           0        5.152381    0.948826    0.296027
      2          6           0        4.057597   -2.459520    0.056125
      3          6           0        1.882009    1.813162   -0.431692
      4          6           0        6.204673    4.146866   -0.311784
      5          6           0        8.426692   -0.197102    0.428229
      6          7           0        3.175323   -0.290988   -0.242974
      7          6           0        2.930836   -1.604426   -0.047086
      8          6           0        1.480648   -2.015596   -0.345107
      9          6           0        0.834093   -0.566648   -0.684218
     10          6           0        2.075949    0.447458   -0.394406
     11          6           0        0.263999   -0.377106   -2.100527
     12          6           0        0.773431   -2.650907    0.914891
     13          6           0       -0.328391   -3.649435    0.776051
     14          6           0       -1.274502   -3.531265   -0.422875
     15          8           0       -1.224424   -4.191493   -1.503316
     16          8           0       -2.070308   -2.408699   -0.323392
     17          7           0        4.204223    2.826739    0.018570
     18          6           0        2.842540    2.900968   -0.233016
     19          6           0        2.477789    4.322728   -0.253066
     20          6           0        3.763775    5.066471   -0.340168
     21          6           0        4.775903    4.004806   -0.269753
     22          6           0        1.094929    4.794178   -0.390694
     23          6           0        4.024071    6.602933   -0.454791
     24          8           0        5.156055    7.033949   -0.516217
     25          6           0        2.809418    7.476994   -0.304822
     26          7           0        7.027154    1.826965    0.263346
     27          6           0        7.222583    3.165727   -0.046322
     28          6           0        8.715888    3.462673   -0.283697
     29          6           0        9.396812    2.209421    0.308767
     30          6           0        8.256051    1.234421    0.346636
     31          6           0        9.054539    3.745642   -1.703177
     32          6           0       10.016332    2.325743    1.702621
     33          6           0        9.027963    2.452441    2.914763
     34          7           0        6.076876   -0.921570    0.317660
     35          6           0        7.433728   -1.187630    0.422595
     36          6           0        7.574889   -2.570477    0.444309
     37          6           0        6.316545   -3.093477    0.340061
     38          6           0        5.384347   -2.096209    0.191707
     39          6           0        8.709341   -3.360090    0.596430
     40          6           0        5.559848   -4.338749    0.331335
     41          8           0        5.976053   -5.483746    0.305478
     42          6           0        4.088655   -3.954852    0.180218
     43          6           0        3.515405   -4.662138   -0.949641
     44          8           0        3.912224   -4.484468   -2.082149
     45          8           0        2.643423   -5.705303   -0.637480
     46          6           0        2.177667   -6.554404   -1.690250
     47          6           0       -2.976047   -2.061924   -1.361301
     48          6           0       -4.401648   -1.963169   -0.795940
     49          6           0       -5.440898   -2.854370   -0.848110
     50          6           0       -5.268543   -4.291083   -1.346470
     51          6           0       -6.784802   -2.644662   -0.254484
     52          6           0       -6.888444   -2.819973    1.265103
     53          6           0       -6.879232   -1.498168    2.080537
     54          6           0       -8.266141   -1.162546    2.749829
     55          6           0       -8.632410   -2.131595    3.874649
     56          6           0       -8.294334    0.324086    3.199358
     57          6           0       -9.389093    1.136272    2.457694
     58          6           0       -8.854234    1.719195    1.025600
     59          6           0       -9.763547    1.417316   -0.232067
     60          6           0       -8.954411    1.444095   -1.574764
     61          6           0      -10.901922    2.427821   -0.292773
     62          6           0      -12.195882    2.054814    0.436009
     63          6           0      -13.301666    1.586066   -0.448119
     64          6           0      -13.895927    2.684671   -1.294236
     65          6           0      -14.900704    3.534054   -0.512534
     66          6           0      -14.608485    2.119988   -2.531141
     67          1           0        0.862283    2.125989   -0.666721
     68          1           0        6.661606    5.125854   -0.472847
     69          1           0        9.477824   -0.488114    0.478286
     70          1           0        1.417868   -2.644449   -1.233758
     71          1           0       -0.003437   -0.478516    0.007910
     72          1           0        0.558210   -1.237716   -2.700149
     73          1           0        0.572317    0.565990   -2.550939
     74          1           0       -0.787627   -0.426366   -1.820466
     75          1           0        0.384279   -1.878843    1.579289
     76          1           0        1.533372   -3.290598    1.364481
     77          1           0       -0.811695   -3.798561    1.742007
     78          1           0        0.188587   -4.599632    0.643537
     79          1           0        0.406731    3.998832   -0.103899
     80          1           0        0.793597    5.315318   -1.300049
     81          1           0        0.836189    5.492240    0.405758
     82          1           0        3.105385    8.525961   -0.317928
     83          1           0        2.281871    7.234486    0.617458
     84          1           0        2.099983    7.286735   -1.109695
     85          1           0        8.955851    4.324415    0.339702
     86          1           0       10.203365    1.714440   -0.232004
     87          1           0        9.694849    3.011510   -2.192216
     88          1           0        9.718929    4.598285   -1.847971
     89          1           0        8.201214    3.948033   -2.349786
     90          1           0       10.792098    3.078466    1.840210
     91          1           0       10.483492    1.378022    1.970866
     92          1           0        9.326082    3.345195    3.463865
     93          1           0        8.998425    1.539374    3.509621
     94          1           0        7.990082    2.562798    2.598430
     95          1           0        8.713664   -3.828756    1.580167
     96          1           0        9.611892   -2.750197    0.654825
     97          1           0        8.942005   -4.117374   -0.152928
     98          1           0        3.635171   -4.429635    1.050465
     99          1           0        2.654793   -6.473919   -2.667079
    100          1           0        1.097715   -6.449227   -1.798061
    101          1           0        2.343542   -7.588190   -1.389199
    102          1           0       -2.914268   -2.687956   -2.251332
    103          1           0       -2.792209   -1.030967   -1.663641
    104          1           0       -4.724772   -0.980145   -0.451981
    105          1           0       -6.010205   -4.511509   -2.113842
    106          1           0       -5.454855   -4.883534   -0.450803
    107          1           0       -4.274797   -4.400411   -1.780562
    108          1           0       -7.569699   -3.233460   -0.727339
    109          1           0       -7.138051   -1.647548   -0.517582
    110          1           0       -6.061755   -3.398217    1.678075
    111          1           0       -7.759589   -3.452409    1.437287
    112          1           0       -6.546526   -0.712103    1.401887
    113          1           0       -6.091292   -1.720723    2.799425
    114          1           0       -8.930787   -1.525813    1.966000
    115          1           0       -7.721234   -2.637135    4.193971
    116          1           0       -9.416925   -2.848349    3.631762
    117          1           0       -9.041795   -1.599661    4.733433
    118          1           0       -7.375866    0.906732    3.120718
    119          1           0       -8.588120    0.474994    4.238022
    120          1           0       -9.798523    1.906101    3.111854
    121          1           0      -10.183522    0.413927    2.273760
    122          1           0       -8.019418    1.076533    0.744754
    123          1           0       -8.496176    2.748204    1.068809
    124          1           0      -10.219387    0.447191   -0.030269
    125          1           0       -9.576033    1.531655   -2.465367
    126          1           0       -8.588417    0.444952   -1.812081
    127          1           0       -8.212091    2.222568   -1.394031
    128          1           0      -11.128375    2.763774   -1.305229
    129          1           0      -10.391810    3.303799    0.107529
    130          1           0      -12.550841    2.833037    1.111626
    131          1           0      -11.985857    1.150635    1.006959
    132          1           0      -14.081954    1.103930    0.142501
    133          1           0      -12.853857    0.819100   -1.080169
    134          1           0      -13.111891    3.355284   -1.646344
    135          1           0      -15.911247    3.811220   -0.812571
    136          1           0      -14.507909    4.545353   -0.405031
    137          1           0      -14.857220    3.080180    0.477342
    138          1           0      -14.042249    2.595406   -3.332599
    139          1           0      -15.627434    2.500170   -2.596233
    140          1           0      -14.547422    1.046578   -2.708735
 ---------------------------------------------------------------------

 SCF Done:  E(RCAM-B3LYP) =  -3007.12954779     A.U. after   17 cycles

 Excitation energies and oscillator strengths:

 Excited State   1:      Singlet-A      1.7192 eV  721.16 nm  f=0.3663  <S**2>=0.000
     245 -> 248        0.19784
     246 -> 247        0.68142
     245 <- 248        0.11279
 This state for optimization and/or second-order correction.
 Total Energy, E(TD-HF/TD-DFT) =  -3007.06636708
 Copying the excited state density for this state as the 1-particle RhoCI density.

 Excited State   2:      Singlet-A      2.1919 eV  565.65 nm  f=0.1260  <S**2>=0.000
     245 -> 247        0.64136
     246 -> 248       -0.28600

 Excited State   3:      Singlet-A      3.1946 eV  388.11 nm  f=0.0009  <S**2>=0.000
     244 -> 247        0.68469

 Excited State   4:      Singlet-A      3.3055 eV  375.09 nm  f=0.0018  <S**2>=0.000
     243 -> 247        0.65976
     246 -> 248        0.17891

 Excited State   5:      Singlet-A      3.5228 eV  351.95 nm  f=0.0082  <S**2>=0.000
     240 -> 247        0.11172
     241 -> 247        0.57997
     241 -> 249        0.26403
     241 -> 250       -0.12072
     241 -> 251        0.13345
     246 -> 248       -0.10409

 The electronic state is 1-A.
 Alpha  occ. eigenvalues --  -46.89317 -19.25788 -19.24409 -19.20631 -19.19339
 Alpha  occ. eigenvalues --  -19.18904 -19.18729 -14.42264 -14.42215 -14.39876
 Alpha  occ. eigenvalues --  -14.38563 -10.40842 -10.38598 -10.35602 -10.34528
 Alpha  occ. eigenvalues --  -10.32395 -10.31547 -10.31270 -10.31212 -10.30865
 Alpha  occ. eigenvalues --  -10.30703 -10.30452 -10.30141 -10.29402 -10.28885
 Alpha  occ. eigenvalues --  -10.28758 -10.28166 -10.28112 -10.28084 -10.27869
 Alpha  occ. eigenvalues --  -10.27868 -10.27864 -10.27837 -10.27737 -10.27656
 Alpha  occ. eigenvalues --  -10.27616 -10.27408 -10.27248 -10.26895 -10.26669
 Alpha  occ. eigenvalues --  -10.26441 -10.26406 -10.26360 -10.26187 -10.25898
 Alpha  occ. eigenvalues --  -10.25893 -10.25808 -10.25753 -10.25698 -10.25608
 Alpha  occ. eigenvalues --  -10.25580 -10.25560 -10.25332 -10.25313 -10.25298
 Alpha  occ. eigenvalues --  -10.25151 -10.25054 -10.24940 -10.24786 -10.24782
 Alpha  occ. eigenvalues --  -10.24331 -10.24289 -10.23969 -10.23942 -10.23836
 Alpha  occ. eigenvalues --  -10.23731  -3.17726  -1.92636  -1.92200  -1.91992
 Alpha  occ. eigenvalues --   -1.16651  -1.15712  -1.10735  -1.09943  -1.07354
 Alpha  occ. eigenvalues --   -1.06872  -1.04444  -1.03673  -1.03314  -1.02521
 Alpha  occ. eigenvalues --   -0.93700  -0.90948  -0.90513  -0.90237  -0.89273
 Alpha  occ. eigenvalues --   -0.88983  -0.88333  -0.87863  -0.87685  -0.87228
 Alpha  occ. eigenvalues --   -0.86504  -0.85758  -0.84410  -0.84161  -0.83436
 Alpha  occ. eigenvalues --   -0.82659  -0.82193  -0.81728  -0.81165  -0.80351
 Alpha  occ. eigenvalues --   -0.80234  -0.78341  -0.78097  -0.77430  -0.76253
 Alpha  occ. eigenvalues --   -0.75742  -0.75395  -0.75393  -0.75190  -0.74376
 Alpha  occ. eigenvalues --   -0.74125  -0.72998  -0.71556  -0.70420  -0.69733
 Alpha  occ. eigenvalues --   -0.69050  -0.68315  -0.67439  -0.66514  -0.65702
 Alpha  occ. eigenvalues --   -0.65429  -0.64916  -0.64574  -0.64515  -0.64172
 Alpha  occ. eigenvalues --   -0.63973  -0.63512  -0.61940  -0.61579  -0.60513
 Alpha  occ. eigenvalues --   -0.60172  -0.59814  -0.59459  -0.58875  -0.58544
 Alpha  occ. eigenvalues --   -0.57939  -0.56935  -0.56455  -0.55933  -0.55699
 Alpha  occ. eigenvalues --   -0.55609  -0.55318  -0.55286  -0.54753  -0.54241
 Alpha  occ. eigenvalues --   -0.54207  -0.53844  -0.53454  -0.53256  -0.53108
 Alpha  occ. eigenvalues --   -0.52845  -0.52576  -0.52477  -0.52163  -0.52110
 Alpha  occ. eigenvalues --   -0.52039  -0.51602  -0.51411  -0.51154  -0.50834
 Alpha  occ. eigenvalues --   -0.50351  -0.50224  -0.49990  -0.49802  -0.49693
 Alpha  occ. eigenvalues --   -0.49618  -0.49414  -0.49253  -0.49139  -0.49001
 Alpha  occ. eigenvalues --   -0.48742  -0.48601  -0.48209  -0.48164  -0.47967
 Alpha  occ. eigenvalues --   -0.47880  -0.47388  -0.47358  -0.46950  -0.46753
 Alpha  occ. eigenvalues --   -0.46649  -0.46365  -0.46174  -0.46047  -0.45668
 Alpha  occ. eigenvalues --   -0.45526  -0.45436  -0.45228  -0.44855  -0.44630
 Alpha  occ. eigenvalues --   -0.44566  -0.44504  -0.44398  -0.44142  -0.44059
 Alpha  occ. eigenvalues --   -0.43950  -0.43629  -0.43308  -0.43086  -0.42826
 Alpha  occ. eigenvalues --   -0.42658  -0.42615  -0.42456  -0.42384  -0.42178
 Alpha  occ. eigenvalues --   -0.41746  -0.41706  -0.41361  -0.41323  -0.41203
 Alpha  occ. eigenvalues --   -0.41088  -0.40969  -0.40749  -0.40418  -0.40276
 Alpha  occ. eigenvalues --   -0.40014  -0.39159  -0.39047  -0.38868  -0.38581
 Alpha  occ. eigenvalues --   -0.38345  -0.38169  -0.37679  -0.37159  -0.37095
 Alpha  occ. eigenvalues --   -0.36935  -0.36699  -0.36620  -0.36235  -0.35971
 Alpha  occ. eigenvalues --   -0.35880  -0.35461  -0.35136  -0.34690  -0.34300
 Alpha  occ. eigenvalues --   -0.34078  -0.33710  -0.33211  -0.31399  -0.31098
 Alpha  occ. eigenvalues --   -0.30806  -0.30423  -0.29372  -0.29159  -0.23911
 Alpha  occ. eigenvalues --   -0.21474
 Alpha virt. eigenvalues --   -0.08858  -0.02024   0.00452   0.02436   0.02785
 Alpha virt. eigenvalues --    0.02978   0.04447   0.05167   0.05357   0.06756
 Alpha virt. eigenvalues --    0.07630   0.07972   0.08476   0.08732   0.08917

 Mulliken charges:
               1
     1  Mg   0.817120
     2  C    0.025975
     3  C   -0.066249
     4  C   -0.051861
     5  C   -0.100359
     6  N   -0.221651
     7  C   -0.047045
     8  C   -0.073338
     9  C   -0.105675
    10  C    0.046780
    11  C    0.082862
    12  C    0.051040
    13  C    0.085527
    14  C    0.181934
    15  O   -0.271117
    16  O   -0.325039
    17  N   -0.368586
    18  C    0.147751
    19  C   -0.149731
    20  C   -0.068637
    21  C    0.123477
    22  C    0.104415
    23  C    0.029457
    24  O   -0.184607
    25  C    0.042118
    26  N   -0.315643
    27  C    0.006984
    28  C    0.027672
    29  C    0.016831
    30  C   -0.004212
    31  C    0.078045
    32  C   -0.000608
    33  C   -0.015019
    34  N   -0.375910
    35  C    0.181636
    36  C   -0.153704
    37  C    0.043737
    38  C    0.127155
    39  C    0.118914
    40  C    0.018154
    41  O   -0.160141
    42  C    0.024008
    43  C    0.164521
    44  O   -0.210630
    45  O   -0.338368
    46  C    0.168126
    47  C    0.287639
    48  C   -0.130968
    49  C   -0.178675
    50  C    0.084003
    51  C    0.065976
    52  C    0.007054
    53  C    0.040202
    54  C   -0.109413
    55  C    0.049212
    56  C    0.074282
    57  C    0.001464
    58  C    0.030733
    59  C   -0.164770
    60  C    0.050063
    61  C    0.070883
    62  C    0.061790
    63  C    0.040069
    64  C   -0.157964
    65  C    0.037927
    66  C    0.065867
    67  H   -0.016366
    68  H   -0.000085
    69  H   -0.028643
    70  H    0.047532
    71  H    0.009423
    72  H    0.027565
    73  H    0.027693
    74  H    0.003308
    75  H    0.024930
    76  H    0.017316
    77  H    0.030829
    78  H    0.020682
    79  H    0.005763
    80  H    0.041569
    81  H    0.004693
    82  H    0.029711
    83  H    0.041242
    84  H    0.028990
    85  H    0.010451
    86  H    0.000243
    87  H    0.008025
    88  H    0.005302
    89  H    0.026578
    90  H    0.013471
    91  H    0.001050
    92  H    0.018873
    93  H    0.015240
    94  H    0.021069
    95  H    0.026637
    96  H   -0.023389
    97  H    0.041691
    98  H    0.034202
    99  H    0.046916
   100  H    0.038038
   101  H    0.023932
   102  H    0.043001
   103  H    0.018080
   104  H   -0.011999
   105  H    0.019239
   106  H    0.024017
   107  H    0.021380
   108  H   -0.012496
   109  H    0.002057
   110  H   -0.002086
   111  H   -0.004879
   112  H    0.004747
   113  H   -0.005921
   114  H    0.000546
   115  H    0.005198
   116  H    0.009263
   117  H    0.002163
   118  H    0.000536
   119  H   -0.012064
   120  H    0.001256
   121  H    0.001805
   122  H   -0.011586
   123  H    0.008091
   124  H   -0.016223
   125  H    0.005338
   126  H    0.003628
   127  H    0.023215
   128  H   -0.018812
   129  H   -0.030100
   130  H   -0.010857
   131  H   -0.009435
   132  H   -0.004227
   133  H   -0.017521
   134  H    0.002943
   135  H    0.016259
   136  H   -0.008435
   137  H    0.000753
   138  H   -0.004371
   139  H    0.003662
   140  H    0.007868
 Sum of Mulliken charges =  -0.00000

 Dipole moment (field-independent basis, Debye):
    X=             -4.1366    Y=              3.1240    Z=              3.1076  Tot=              6.0438
 Quadrupole moment (field-independent basis, Debye-Ang):
   XX=           -382.2109   YY=           -432.7861   ZZ=           -408.3302
   XY=             18.4857   XZ=              9.6531   YZ=             -8.0820

 Normal termination of Gaussian 16 at Thu May  5 05:57:33 2022.
