 Gaussian 16, Revision A.03,
 Gaussian 16:  ES64L-G16RevA.03 25-Dec-2016

 ---------------------------------
 #p PBE1PBE/Def2SVP td=(nstates=5)
 ---------------------------------

 -----------------------------------------------------
 step_701_chromophore_24 TDDFT with PBE1PBE functional
 -----------------------------------------------------
 Symbolic Z-matrix:
 Charge =  0 Multiplicity = 1

                         Standard orientation:
 ---------------------------------------------------------------------
 Center     Atomic      Atomic             Coordinates (Angstroms)
 Number     Number       Type             X           Y           Z
 ---------------------------------------------------------------------
      1         12           0        5.152381    0.948826    0.296027
      2          6           0        4.057597   -2.459520    0.056125
      3          6           0        1.882009    1.813162   -0.431692
      4          6           0        6.204673    4.146866   -0.311784
      5          6           0        8.426692   -0.197102    0.428229
      6          7           0        3.175323   -0.290988   -0.242974
      7          6           0        2.930836   -1.604426   -0.047086
      8          6           0        1.480648   -2.015596   -0.345107
      9          6           0        0.834093   -0.566648   -0.684218
     10          6           0        2.075949    0.447458   -0.394406
     11          6           0        0.263999   -0.377106   -2.100527
     12          6           0        0.773431   -2.650907    0.914891
     13          6           0       -0.328391   -3.649435    0.776051
     14          6           0       -1.274502   -3.531265   -0.422875
     15          8           0       -1.224424   -4.191493   -1.503316
     16          8           0       -2.070308   -2.408699   -0.323392
     17          7           0        4.204223    2.826739    0.018570
     18          6           0        2.842540    2.900968   -0.233016
     19          6           0        2.477789    4.322728   -0.253066
     20          6           0        3.763775    5.066471   -0.340168
     21          6           0        4.775903    4.004806   -0.269753
     22          6           0        1.094929    4.794178   -0.390694
     23          6           0        4.024071    6.602933   -0.454791
     24          8           0        5.156055    7.033949   -0.516217
     25          6           0        2.809418    7.476994   -0.304822
     26          7           0        7.027154    1.826965    0.263346
     27          6           0        7.222583    3.165727   -0.046322
     28          6           0        8.715888    3.462673   -0.283697
     29          6           0        9.396812    2.209421    0.308767
     30          6           0        8.256051    1.234421    0.346636
     31          6           0        9.054539    3.745642   -1.703177
     32          6           0       10.016332    2.325743    1.702621
     33          6           0        9.027963    2.452441    2.914763
     34          7           0        6.076876   -0.921570    0.317660
     35          6           0        7.433728   -1.187630    0.422595
     36          6           0        7.574889   -2.570477    0.444309
     37          6           0        6.316545   -3.093477    0.340061
     38          6           0        5.384347   -2.096209    0.191707
     39          6           0        8.709341   -3.360090    0.596430
     40          6           0        5.559848   -4.338749    0.331335
     41          8           0        5.976053   -5.483746    0.305478
     42          6           0        4.088655   -3.954852    0.180218
     43          6           0        3.515405   -4.662138   -0.949641
     44          8           0        3.912224   -4.484468   -2.082149
     45          8           0        2.643423   -5.705303   -0.637480
     46          6           0        2.177667   -6.554404   -1.690250
     47          6           0       -2.976047   -2.061924   -1.361301
     48          6           0       -4.401648   -1.963169   -0.795940
     49          6           0       -5.440898   -2.854370   -0.848110
     50          6           0       -5.268543   -4.291083   -1.346470
     51          6           0       -6.784802   -2.644662   -0.254484
     52          6           0       -6.888444   -2.819973    1.265103
     53          6           0       -6.879232   -1.498168    2.080537
     54          6           0       -8.266141   -1.162546    2.749829
     55          6           0       -8.632410   -2.131595    3.874649
     56          6           0       -8.294334    0.324086    3.199358
     57          6           0       -9.389093    1.136272    2.457694
     58          6           0       -8.854234    1.719195    1.025600
     59          6           0       -9.763547    1.417316   -0.232067
     60          6           0       -8.954411    1.444095   -1.574764
     61          6           0      -10.901922    2.427821   -0.292773
     62          6           0      -12.195882    2.054814    0.436009
     63          6           0      -13.301666    1.586066   -0.448119
     64          6           0      -13.895927    2.684671   -1.294236
     65          6           0      -14.900704    3.534054   -0.512534
     66          6           0      -14.608485    2.119988   -2.531141
     67          1           0        0.862283    2.125989   -0.666721
     68          1           0        6.661606    5.125854   -0.472847
     69          1           0        9.477824   -0.488114    0.478286
     70          1           0        1.417868   -2.644449   -1.233758
     71          1           0       -0.003437   -0.478516    0.007910
     72          1           0        0.558210   -1.237716   -2.700149
     73          1           0        0.572317    0.565990   -2.550939
     74          1           0       -0.787627   -0.426366   -1.820466
     75          1           0        0.384279   -1.878843    1.579289
     76          1           0        1.533372   -3.290598    1.364481
     77          1           0       -0.811695   -3.798561    1.742007
     78          1           0        0.188587   -4.599632    0.643537
     79          1           0        0.406731    3.998832   -0.103899
     80          1           0        0.793597    5.315318   -1.300049
     81          1           0        0.836189    5.492240    0.405758
     82          1           0        3.105385    8.525961   -0.317928
     83          1           0        2.281871    7.234486    0.617458
     84          1           0        2.099983    7.286735   -1.109695
     85          1           0        8.955851    4.324415    0.339702
     86          1           0       10.203365    1.714440   -0.232004
     87          1           0        9.694849    3.011510   -2.192216
     88          1           0        9.718929    4.598285   -1.847971
     89          1           0        8.201214    3.948033   -2.349786
     90          1           0       10.792098    3.078466    1.840210
     91          1           0       10.483492    1.378022    1.970866
     92          1           0        9.326082    3.345195    3.463865
     93          1           0        8.998425    1.539374    3.509621
     94          1           0        7.990082    2.562798    2.598430
     95          1           0        8.713664   -3.828756    1.580167
     96          1           0        9.611892   -2.750197    0.654825
     97          1           0        8.942005   -4.117374   -0.152928
     98          1           0        3.635171   -4.429635    1.050465
     99          1           0        2.654793   -6.473919   -2.667079
    100          1           0        1.097715   -6.449227   -1.798061
    101          1           0        2.343542   -7.588190   -1.389199
    102          1           0       -2.914268   -2.687956   -2.251332
    103          1           0       -2.792209   -1.030967   -1.663641
    104          1           0       -4.724772   -0.980145   -0.451981
    105          1           0       -6.010205   -4.511509   -2.113842
    106          1           0       -5.454855   -4.883534   -0.450803
    107          1           0       -4.274797   -4.400411   -1.780562
    108          1           0       -7.569699   -3.233460   -0.727339
    109          1           0       -7.138051   -1.647548   -0.517582
    110          1           0       -6.061755   -3.398217    1.678075
    111          1           0       -7.759589   -3.452409    1.437287
    112          1           0       -6.546526   -0.712103    1.401887
    113          1           0       -6.091292   -1.720723    2.799425
    114          1           0       -8.930787   -1.525813    1.966000
    115          1           0       -7.721234   -2.637135    4.193971
    116          1           0       -9.416925   -2.848349    3.631762
    117          1           0       -9.041795   -1.599661    4.733433
    118          1           0       -7.375866    0.906732    3.120718
    119          1           0       -8.588120    0.474994    4.238022
    120          1           0       -9.798523    1.906101    3.111854
    121          1           0      -10.183522    0.413927    2.273760
    122          1           0       -8.019418    1.076533    0.744754
    123          1           0       -8.496176    2.748204    1.068809
    124          1           0      -10.219387    0.447191   -0.030269
    125          1           0       -9.576033    1.531655   -2.465367
    126          1           0       -8.588417    0.444952   -1.812081
    127          1           0       -8.212091    2.222568   -1.394031
    128          1           0      -11.128375    2.763774   -1.305229
    129          1           0      -10.391810    3.303799    0.107529
    130          1           0      -12.550841    2.833037    1.111626
    131          1           0      -11.985857    1.150635    1.006959
    132          1           0      -14.081954    1.103930    0.142501
    133          1           0      -12.853857    0.819100   -1.080169
    134          1           0      -13.111891    3.355284   -1.646344
    135          1           0      -15.911247    3.811220   -0.812571
    136          1           0      -14.507909    4.545353   -0.405031
    137          1           0      -14.857220    3.080180    0.477342
    138          1           0      -14.042249    2.595406   -3.332599
    139          1           0      -15.627434    2.500170   -2.596233
    140          1           0      -14.547422    1.046578   -2.708735
 ---------------------------------------------------------------------

 SCF Done:  E(RPBE1PBE) =  -3005.32047198     A.U. after   16 cycles

 Excitation energies and oscillator strengths:

 Excited State   1:      Singlet-A      1.8848 eV  657.81 nm  f=0.3551  <S**2>=0.000
     245 -> 248        0.19144
     246 -> 247        0.68774
 This state for optimization and/or second-order correction.
 Total Energy, E(TD-HF/TD-DFT) =  -3005.25120704
 Copying the excited state density for this state as the 1-particle RhoCI density.

 Excited State   2:      Singlet-A      2.2069 eV  561.80 nm  f=0.1186  <S**2>=0.000
     245 -> 247        0.64997
     246 -> 248       -0.26369

 Excited State   3:      Singlet-A      2.8362 eV  437.15 nm  f=0.0021  <S**2>=0.000
     242 -> 247        0.13367
     244 -> 247        0.68253

 Excited State   4:      Singlet-A      2.9564 eV  419.37 nm  f=0.0061  <S**2>=0.000
     242 -> 247        0.21192
     243 -> 247        0.65444

 Excited State   5:      Singlet-A      3.0532 eV  406.08 nm  f=0.0051  <S**2>=0.000
     242 -> 247        0.62501
     242 -> 249        0.10455
     243 -> 247       -0.22720
     244 -> 247       -0.13212

 The electronic state is 1-A.
 Alpha  occ. eigenvalues --  -46.92707 -19.26436 -19.25010 -19.20896 -19.19565
 Alpha  occ. eigenvalues --  -19.19038 -19.18867 -14.41844 -14.41628 -14.39551
 Alpha  occ. eigenvalues --  -14.38245 -10.37857 -10.35530 -10.32761 -10.31607
 Alpha  occ. eigenvalues --  -10.29798 -10.29222 -10.29022 -10.29000 -10.28606
 Alpha  occ. eigenvalues --  -10.28517 -10.28169 -10.27346 -10.27012 -10.26670
 Alpha  occ. eigenvalues --  -10.26508 -10.25857 -10.25755 -10.25685 -10.25542
 Alpha  occ. eigenvalues --  -10.25516 -10.25462 -10.25449 -10.25444 -10.25411
 Alpha  occ. eigenvalues --  -10.25313 -10.25249 -10.24927 -10.24418 -10.24359
 Alpha  occ. eigenvalues --  -10.24171 -10.24064 -10.23733 -10.23659 -10.23608
 Alpha  occ. eigenvalues --  -10.23495 -10.23370 -10.23330 -10.23320 -10.23198
 Alpha  occ. eigenvalues --  -10.23024 -10.22959 -10.22937 -10.22907 -10.22779
 Alpha  occ. eigenvalues --  -10.22702 -10.22569 -10.22376 -10.22185 -10.22151
 Alpha  occ. eigenvalues --  -10.21839 -10.21799 -10.21491 -10.21461 -10.21366
 Alpha  occ. eigenvalues --  -10.21113  -3.14701  -1.87549  -1.87093  -1.86888
 Alpha  occ. eigenvalues --   -1.11438  -1.10407  -1.05504  -1.04608  -1.02114
 Alpha  occ. eigenvalues --   -1.01672  -0.99034  -0.98270  -0.97980  -0.97228
 Alpha  occ. eigenvalues --   -0.88022  -0.85070  -0.84603  -0.84384  -0.83597
 Alpha  occ. eigenvalues --   -0.83102  -0.82659  -0.82172  -0.81808  -0.81545
 Alpha  occ. eigenvalues --   -0.80766  -0.79994  -0.78617  -0.78423  -0.77726
 Alpha  occ. eigenvalues --   -0.76843  -0.76402  -0.75918  -0.75460  -0.74677
 Alpha  occ. eigenvalues --   -0.74457  -0.72614  -0.72412  -0.71740  -0.70552
 Alpha  occ. eigenvalues --   -0.69918  -0.69774  -0.69469  -0.69326  -0.68611
 Alpha  occ. eigenvalues --   -0.68379  -0.67435  -0.66011  -0.64691  -0.64091
 Alpha  occ. eigenvalues --   -0.63278  -0.62796  -0.61625  -0.60962  -0.60148
 Alpha  occ. eigenvalues --   -0.59718  -0.59370  -0.59122  -0.58966  -0.58601
 Alpha  occ. eigenvalues --   -0.58132  -0.57756  -0.56471  -0.55782  -0.55057
 Alpha  occ. eigenvalues --   -0.54626  -0.54317  -0.53889  -0.53422  -0.53002
 Alpha  occ. eigenvalues --   -0.52413  -0.51527  -0.51030  -0.50442  -0.50081
 Alpha  occ. eigenvalues --   -0.50002  -0.49868  -0.49777  -0.49279  -0.48710
 Alpha  occ. eigenvalues --   -0.48661  -0.48361  -0.47968  -0.47735  -0.47655
 Alpha  occ. eigenvalues --   -0.47401  -0.47197  -0.46938  -0.46721  -0.46627
 Alpha  occ. eigenvalues --   -0.46540  -0.46063  -0.45971  -0.45737  -0.45378
 Alpha  occ. eigenvalues --   -0.44918  -0.44823  -0.44549  -0.44401  -0.44260
 Alpha  occ. eigenvalues --   -0.44208  -0.44016  -0.43835  -0.43737  -0.43578
 Alpha  occ. eigenvalues --   -0.43310  -0.43248  -0.42851  -0.42754  -0.42596
 Alpha  occ. eigenvalues --   -0.42528  -0.42063  -0.41991  -0.41707  -0.41403
 Alpha  occ. eigenvalues --   -0.41299  -0.41103  -0.40803  -0.40745  -0.40421
 Alpha  occ. eigenvalues --   -0.40240  -0.40157  -0.39977  -0.39587  -0.39349
 Alpha  occ. eigenvalues --   -0.39280  -0.39214  -0.39012  -0.38878  -0.38798
 Alpha  occ. eigenvalues --   -0.38699  -0.38464  -0.38078  -0.37899  -0.37621
 Alpha  occ. eigenvalues --   -0.37448  -0.37363  -0.37227  -0.37143  -0.37017
 Alpha  occ. eigenvalues --   -0.36488  -0.36439  -0.36162  -0.36071  -0.36015
 Alpha  occ. eigenvalues --   -0.35852  -0.35730  -0.35617  -0.35209  -0.35037
 Alpha  occ. eigenvalues --   -0.34893  -0.33956  -0.33869  -0.33809  -0.33364
 Alpha  occ. eigenvalues --   -0.33258  -0.33121  -0.32474  -0.32148  -0.32010
 Alpha  occ. eigenvalues --   -0.31995  -0.31641  -0.31482  -0.31224  -0.30901
 Alpha  occ. eigenvalues --   -0.30760  -0.30328  -0.30039  -0.29480  -0.29297
 Alpha  occ. eigenvalues --   -0.29217  -0.28890  -0.28289  -0.26782  -0.26212
 Alpha  occ. eigenvalues --   -0.25747  -0.25672  -0.25001  -0.24704  -0.20909
 Alpha  occ. eigenvalues --   -0.19091
 Alpha virt. eigenvalues --   -0.11291  -0.05491  -0.03760  -0.01896  -0.01621
 Alpha virt. eigenvalues --   -0.00120   0.00021   0.00598   0.01148   0.02702
 Alpha virt. eigenvalues --    0.03911   0.04211   0.04669   0.05298   0.05534

 Mulliken charges:
               1
     1  Mg   0.959910
     2  C    0.020365
     3  C   -0.054405
     4  C   -0.044343
     5  C   -0.083141
     6  N   -0.322645
     7  C    0.034911
     8  C   -0.152814
     9  C   -0.165960
    10  C    0.077079
    11  C    0.017230
    12  C    0.002531
    13  C    0.011949
    14  C    0.244309
    15  O   -0.304113
    16  O   -0.353881
    17  N   -0.478299
    18  C    0.168914
    19  C   -0.179731
    20  C   -0.102333
    21  C    0.146523
    22  C    0.042898
    23  C    0.080407
    24  O   -0.222805
    25  C   -0.031629
    26  N   -0.416400
    27  C    0.036758
    28  C   -0.056179
    29  C   -0.064317
    30  C    0.035029
    31  C    0.026832
    32  C   -0.055942
    33  C   -0.088232
    34  N   -0.505861
    35  C    0.206810
    36  C   -0.197455
    37  C   -0.009800
    38  C    0.176301
    39  C    0.069827
    40  C    0.127228
    41  O   -0.208041
    42  C   -0.096355
    43  C    0.263845
    44  O   -0.245146
    45  O   -0.375090
    46  C    0.115125
    47  C    0.239729
    48  C   -0.139382
    49  C   -0.217700
    50  C    0.019258
    51  C   -0.004632
    52  C   -0.049714
    53  C   -0.015764
    54  C   -0.198278
    55  C   -0.005454
    56  C    0.017512
    57  C   -0.061499
    58  C   -0.029840
    59  C   -0.249721
    60  C   -0.015193
    61  C    0.025704
    62  C   -0.006192
    63  C   -0.025810
    64  C   -0.248977
    65  C   -0.018400
    66  C    0.006947
    67  H    0.013439
    68  H    0.031556
    69  H    0.002742
    70  H    0.083793
    71  H    0.045151
    72  H    0.055294
    73  H    0.055300
    74  H    0.037475
    75  H    0.054822
    76  H    0.054382
    77  H    0.061419
    78  H    0.055198
    79  H    0.033103
    80  H    0.068385
    81  H    0.034074
    82  H    0.057219
    83  H    0.068096
    84  H    0.056522
    85  H    0.047347
    86  H    0.037233
    87  H    0.035235
    88  H    0.033067
    89  H    0.053710
    90  H    0.045670
    91  H    0.035110
    92  H    0.046517
    93  H    0.043222
    94  H    0.053585
    95  H    0.054719
    96  H    0.005558
    97  H    0.067743
    98  H    0.070581
    99  H    0.067525
   100  H    0.059747
   101  H    0.046343
   102  H    0.067993
   103  H    0.045049
   104  H    0.018003
   105  H    0.047533
   106  H    0.052723
   107  H    0.049664
   108  H    0.019639
   109  H    0.039528
   110  H    0.030383
   111  H    0.026782
   112  H    0.038259
   113  H    0.027015
   114  H    0.038619
   115  H    0.032614
   116  H    0.035706
   117  H    0.029545
   118  H    0.032705
   119  H    0.020699
   120  H    0.033298
   121  H    0.035139
   122  H    0.028960
   123  H    0.038651
   124  H    0.022232
   125  H    0.032624
   126  H    0.033058
   127  H    0.050483
   128  H    0.012604
   129  H    0.003914
   130  H    0.021392
   131  H    0.026205
   132  H    0.028840
   133  H    0.017329
   134  H    0.040553
   135  H    0.042068
   136  H    0.019657
   137  H    0.028569
   138  H    0.023441
   139  H    0.031024
   140  H    0.034165
 Sum of Mulliken charges =  -0.00000

 Dipole moment (field-independent basis, Debye):
    X=             -4.0660    Y=              3.2110    Z=              3.1555  Tot=              6.0663
 Quadrupole moment (field-independent basis, Debye-Ang):
   XX=           -376.3510   YY=           -429.6715   ZZ=           -405.8816
   XY=             19.5964   XZ=              9.6568   YZ=             -8.0939

 Normal termination of Gaussian 16 at Thu May  5 06:15:41 2022.
