 Gaussian 16, Revision A.03,
 Gaussian 16:  ES64L-G16RevA.03 25-Dec-2016

 --------------------------------
 #p wB97XD/Def2SVP td=(nstates=5)
 --------------------------------

 ----------------------------------------------------
 step_701_chromophore_24 TDDFT with wB97XD functional
 ----------------------------------------------------
 Symbolic Z-matrix:
 Charge =  0 Multiplicity = 1

                         Standard orientation:
 ---------------------------------------------------------------------
 Center     Atomic      Atomic             Coordinates (Angstroms)
 Number     Number       Type             X           Y           Z
 ---------------------------------------------------------------------
      1         12           0        5.152381    0.948826    0.296027
      2          6           0        4.057597   -2.459520    0.056125
      3          6           0        1.882009    1.813162   -0.431692
      4          6           0        6.204673    4.146866   -0.311784
      5          6           0        8.426692   -0.197102    0.428229
      6          7           0        3.175323   -0.290988   -0.242974
      7          6           0        2.930836   -1.604426   -0.047086
      8          6           0        1.480648   -2.015596   -0.345107
      9          6           0        0.834093   -0.566648   -0.684218
     10          6           0        2.075949    0.447458   -0.394406
     11          6           0        0.263999   -0.377106   -2.100527
     12          6           0        0.773431   -2.650907    0.914891
     13          6           0       -0.328391   -3.649435    0.776051
     14          6           0       -1.274502   -3.531265   -0.422875
     15          8           0       -1.224424   -4.191493   -1.503316
     16          8           0       -2.070308   -2.408699   -0.323392
     17          7           0        4.204223    2.826739    0.018570
     18          6           0        2.842540    2.900968   -0.233016
     19          6           0        2.477789    4.322728   -0.253066
     20          6           0        3.763775    5.066471   -0.340168
     21          6           0        4.775903    4.004806   -0.269753
     22          6           0        1.094929    4.794178   -0.390694
     23          6           0        4.024071    6.602933   -0.454791
     24          8           0        5.156055    7.033949   -0.516217
     25          6           0        2.809418    7.476994   -0.304822
     26          7           0        7.027154    1.826965    0.263346
     27          6           0        7.222583    3.165727   -0.046322
     28          6           0        8.715888    3.462673   -0.283697
     29          6           0        9.396812    2.209421    0.308767
     30          6           0        8.256051    1.234421    0.346636
     31          6           0        9.054539    3.745642   -1.703177
     32          6           0       10.016332    2.325743    1.702621
     33          6           0        9.027963    2.452441    2.914763
     34          7           0        6.076876   -0.921570    0.317660
     35          6           0        7.433728   -1.187630    0.422595
     36          6           0        7.574889   -2.570477    0.444309
     37          6           0        6.316545   -3.093477    0.340061
     38          6           0        5.384347   -2.096209    0.191707
     39          6           0        8.709341   -3.360090    0.596430
     40          6           0        5.559848   -4.338749    0.331335
     41          8           0        5.976053   -5.483746    0.305478
     42          6           0        4.088655   -3.954852    0.180218
     43          6           0        3.515405   -4.662138   -0.949641
     44          8           0        3.912224   -4.484468   -2.082149
     45          8           0        2.643423   -5.705303   -0.637480
     46          6           0        2.177667   -6.554404   -1.690250
     47          6           0       -2.976047   -2.061924   -1.361301
     48          6           0       -4.401648   -1.963169   -0.795940
     49          6           0       -5.440898   -2.854370   -0.848110
     50          6           0       -5.268543   -4.291083   -1.346470
     51          6           0       -6.784802   -2.644662   -0.254484
     52          6           0       -6.888444   -2.819973    1.265103
     53          6           0       -6.879232   -1.498168    2.080537
     54          6           0       -8.266141   -1.162546    2.749829
     55          6           0       -8.632410   -2.131595    3.874649
     56          6           0       -8.294334    0.324086    3.199358
     57          6           0       -9.389093    1.136272    2.457694
     58          6           0       -8.854234    1.719195    1.025600
     59          6           0       -9.763547    1.417316   -0.232067
     60          6           0       -8.954411    1.444095   -1.574764
     61          6           0      -10.901922    2.427821   -0.292773
     62          6           0      -12.195882    2.054814    0.436009
     63          6           0      -13.301666    1.586066   -0.448119
     64          6           0      -13.895927    2.684671   -1.294236
     65          6           0      -14.900704    3.534054   -0.512534
     66          6           0      -14.608485    2.119988   -2.531141
     67          1           0        0.862283    2.125989   -0.666721
     68          1           0        6.661606    5.125854   -0.472847
     69          1           0        9.477824   -0.488114    0.478286
     70          1           0        1.417868   -2.644449   -1.233758
     71          1           0       -0.003437   -0.478516    0.007910
     72          1           0        0.558210   -1.237716   -2.700149
     73          1           0        0.572317    0.565990   -2.550939
     74          1           0       -0.787627   -0.426366   -1.820466
     75          1           0        0.384279   -1.878843    1.579289
     76          1           0        1.533372   -3.290598    1.364481
     77          1           0       -0.811695   -3.798561    1.742007
     78          1           0        0.188587   -4.599632    0.643537
     79          1           0        0.406731    3.998832   -0.103899
     80          1           0        0.793597    5.315318   -1.300049
     81          1           0        0.836189    5.492240    0.405758
     82          1           0        3.105385    8.525961   -0.317928
     83          1           0        2.281871    7.234486    0.617458
     84          1           0        2.099983    7.286735   -1.109695
     85          1           0        8.955851    4.324415    0.339702
     86          1           0       10.203365    1.714440   -0.232004
     87          1           0        9.694849    3.011510   -2.192216
     88          1           0        9.718929    4.598285   -1.847971
     89          1           0        8.201214    3.948033   -2.349786
     90          1           0       10.792098    3.078466    1.840210
     91          1           0       10.483492    1.378022    1.970866
     92          1           0        9.326082    3.345195    3.463865
     93          1           0        8.998425    1.539374    3.509621
     94          1           0        7.990082    2.562798    2.598430
     95          1           0        8.713664   -3.828756    1.580167
     96          1           0        9.611892   -2.750197    0.654825
     97          1           0        8.942005   -4.117374   -0.152928
     98          1           0        3.635171   -4.429635    1.050465
     99          1           0        2.654793   -6.473919   -2.667079
    100          1           0        1.097715   -6.449227   -1.798061
    101          1           0        2.343542   -7.588190   -1.389199
    102          1           0       -2.914268   -2.687956   -2.251332
    103          1           0       -2.792209   -1.030967   -1.663641
    104          1           0       -4.724772   -0.980145   -0.451981
    105          1           0       -6.010205   -4.511509   -2.113842
    106          1           0       -5.454855   -4.883534   -0.450803
    107          1           0       -4.274797   -4.400411   -1.780562
    108          1           0       -7.569699   -3.233460   -0.727339
    109          1           0       -7.138051   -1.647548   -0.517582
    110          1           0       -6.061755   -3.398217    1.678075
    111          1           0       -7.759589   -3.452409    1.437287
    112          1           0       -6.546526   -0.712103    1.401887
    113          1           0       -6.091292   -1.720723    2.799425
    114          1           0       -8.930787   -1.525813    1.966000
    115          1           0       -7.721234   -2.637135    4.193971
    116          1           0       -9.416925   -2.848349    3.631762
    117          1           0       -9.041795   -1.599661    4.733433
    118          1           0       -7.375866    0.906732    3.120718
    119          1           0       -8.588120    0.474994    4.238022
    120          1           0       -9.798523    1.906101    3.111854
    121          1           0      -10.183522    0.413927    2.273760
    122          1           0       -8.019418    1.076533    0.744754
    123          1           0       -8.496176    2.748204    1.068809
    124          1           0      -10.219387    0.447191   -0.030269
    125          1           0       -9.576033    1.531655   -2.465367
    126          1           0       -8.588417    0.444952   -1.812081
    127          1           0       -8.212091    2.222568   -1.394031
    128          1           0      -11.128375    2.763774   -1.305229
    129          1           0      -10.391810    3.303799    0.107529
    130          1           0      -12.550841    2.833037    1.111626
    131          1           0      -11.985857    1.150635    1.006959
    132          1           0      -14.081954    1.103930    0.142501
    133          1           0      -12.853857    0.819100   -1.080169
    134          1           0      -13.111891    3.355284   -1.646344
    135          1           0      -15.911247    3.811220   -0.812571
    136          1           0      -14.507909    4.545353   -0.405031
    137          1           0      -14.857220    3.080180    0.477342
    138          1           0      -14.042249    2.595406   -3.332599
    139          1           0      -15.627434    2.500170   -2.596233
    140          1           0      -14.547422    1.046578   -2.708735
 ---------------------------------------------------------------------

 SCF Done:  E(RwB97XD) =  -3007.83219870     A.U. after   19 cycles

 Excitation energies and oscillator strengths:

 Excited State   1:      Singlet-A      1.6578 eV  747.88 nm  f=0.3648  <S**2>=0.000
     245 -> 248        0.20352
     246 -> 247        0.67951
     245 <- 248        0.12279
 This state for optimization and/or second-order correction.
 Total Energy, E(TD-HF/TD-DFT) =  -3007.77127564
 Copying the excited state density for this state as the 1-particle RhoCI density.

 Excited State   2:      Singlet-A      2.1344 eV  580.88 nm  f=0.1221  <S**2>=0.000
     245 -> 247        0.63911
     246 -> 248       -0.28860
     246 <- 248       -0.10020

 Excited State   3:      Singlet-A      3.2051 eV  386.83 nm  f=0.0008  <S**2>=0.000
     244 -> 247        0.67558

 Excited State   4:      Singlet-A      3.3319 eV  372.12 nm  f=0.0050  <S**2>=0.000
     243 -> 247        0.64330
     244 -> 247       -0.11515
     246 -> 248        0.20653

 Excited State   5:      Singlet-A      3.5431 eV  349.93 nm  f=0.0268  <S**2>=0.000
     241 -> 247        0.56872
     241 -> 249        0.28077
     241 -> 250       -0.17581
     246 -> 248       -0.15219

 The electronic state is 1-A.
 Alpha  occ. eigenvalues --  -46.95645 -19.31008 -19.29633 -19.25563 -19.24340
 Alpha  occ. eigenvalues --  -19.23835 -19.23791 -14.46861 -14.46799 -14.44457
 Alpha  occ. eigenvalues --  -14.43176 -10.44671 -10.42444 -10.39554 -10.38551
 Alpha  occ. eigenvalues --  -10.36313 -10.35584 -10.35307 -10.35255 -10.34883
 Alpha  occ. eigenvalues --  -10.34753 -10.34471 -10.33863 -10.33426 -10.32966
 Alpha  occ. eigenvalues --  -10.32908 -10.32269 -10.32150 -10.31979 -10.31928
 Alpha  occ. eigenvalues --  -10.31927 -10.31919 -10.31848 -10.31755 -10.31655
 Alpha  occ. eigenvalues --  -10.31653 -10.31522 -10.31292 -10.30828 -10.30728
 Alpha  occ. eigenvalues --  -10.30445 -10.30347 -10.30252 -10.30217 -10.29874
 Alpha  occ. eigenvalues --  -10.29855 -10.29735 -10.29696 -10.29669 -10.29549
 Alpha  occ. eigenvalues --  -10.29426 -10.29410 -10.29291 -10.29259 -10.29128
 Alpha  occ. eigenvalues --  -10.28991 -10.28984 -10.28766 -10.28637 -10.28613
 Alpha  occ. eigenvalues --  -10.28233 -10.28182 -10.27872 -10.27863 -10.27785
 Alpha  occ. eigenvalues --  -10.27534  -3.21521  -1.95115  -1.94659  -1.94452
 Alpha  occ. eigenvalues --   -1.18830  -1.17874  -1.12937  -1.12186  -1.09552
 Alpha  occ. eigenvalues --   -1.09046  -1.06458  -1.05671  -1.05350  -1.04554
 Alpha  occ. eigenvalues --   -0.95709  -0.92744  -0.92269  -0.92063  -0.91142
 Alpha  occ. eigenvalues --   -0.90769  -0.90266  -0.89805  -0.89463  -0.89143
 Alpha  occ. eigenvalues --   -0.88423  -0.87643  -0.86269  -0.86070  -0.85357
 Alpha  occ. eigenvalues --   -0.84497  -0.84095  -0.83580  -0.83104  -0.82289
 Alpha  occ. eigenvalues --   -0.82115  -0.80267  -0.80033  -0.79340  -0.78194
 Alpha  occ. eigenvalues --   -0.77585  -0.77334  -0.77165  -0.77002  -0.76244
 Alpha  occ. eigenvalues --   -0.76013  -0.74981  -0.73530  -0.72335  -0.71644
 Alpha  occ. eigenvalues --   -0.70926  -0.70335  -0.69278  -0.68501  -0.67657
 Alpha  occ. eigenvalues --   -0.67317  -0.66888  -0.66549  -0.66457  -0.66114
 Alpha  occ. eigenvalues --   -0.65805  -0.65371  -0.63928  -0.63406  -0.62491
 Alpha  occ. eigenvalues --   -0.62115  -0.61776  -0.61398  -0.60845  -0.60516
 Alpha  occ. eigenvalues --   -0.59892  -0.58905  -0.58419  -0.57888  -0.57537
 Alpha  occ. eigenvalues --   -0.57520  -0.57297  -0.57204  -0.56697  -0.56145
 Alpha  occ. eigenvalues --   -0.56100  -0.55749  -0.55354  -0.55126  -0.55037
 Alpha  occ. eigenvalues --   -0.54773  -0.54499  -0.54395  -0.54089  -0.53994
 Alpha  occ. eigenvalues --   -0.53912  -0.53541  -0.53354  -0.53093  -0.52721
 Alpha  occ. eigenvalues --   -0.52247  -0.52146  -0.51876  -0.51743  -0.51597
 Alpha  occ. eigenvalues --   -0.51530  -0.51345  -0.51138  -0.51035  -0.50926
 Alpha  occ. eigenvalues --   -0.50640  -0.50516  -0.50098  -0.50028  -0.49867
 Alpha  occ. eigenvalues --   -0.49805  -0.49358  -0.49241  -0.48853  -0.48644
 Alpha  occ. eigenvalues --   -0.48544  -0.48280  -0.48050  -0.48007  -0.47590
 Alpha  occ. eigenvalues --   -0.47391  -0.47334  -0.47115  -0.46751  -0.46514
 Alpha  occ. eigenvalues --   -0.46481  -0.46414  -0.46246  -0.46040  -0.45952
 Alpha  occ. eigenvalues --   -0.45853  -0.45616  -0.45219  -0.45007  -0.44710
 Alpha  occ. eigenvalues --   -0.44590  -0.44546  -0.44385  -0.44303  -0.44172
 Alpha  occ. eigenvalues --   -0.43618  -0.43571  -0.43265  -0.43214  -0.43072
 Alpha  occ. eigenvalues --   -0.42955  -0.42907  -0.42654  -0.42279  -0.42134
 Alpha  occ. eigenvalues --   -0.41899  -0.41013  -0.40905  -0.40761  -0.40409
 Alpha  occ. eigenvalues --   -0.40224  -0.40071  -0.39522  -0.39132  -0.39003
 Alpha  occ. eigenvalues --   -0.38993  -0.38575  -0.38511  -0.38169  -0.37831
 Alpha  occ. eigenvalues --   -0.37728  -0.37460  -0.36981  -0.36587  -0.36134
 Alpha  occ. eigenvalues --   -0.36104  -0.35704  -0.35380  -0.33373  -0.33286
 Alpha  occ. eigenvalues --   -0.32805  -0.32467  -0.31537  -0.31323  -0.25820
 Alpha  occ. eigenvalues --   -0.23273
 Alpha virt. eigenvalues --   -0.07218  -0.00122   0.02528   0.04635   0.05195
 Alpha virt. eigenvalues --    0.05820   0.06681   0.07287   0.07813   0.09306
 Alpha virt. eigenvalues --    0.10284   0.10982   0.11298   0.12013   0.12233

 Mulliken charges:
               1
     1  Mg   0.951598
     2  C    0.016160
     3  C   -0.071263
     4  C   -0.061702
     5  C   -0.106616
     6  N   -0.285277
     7  C    0.000441
     8  C   -0.126599
     9  C   -0.143858
    10  C    0.063580
    11  C    0.037295
    12  C    0.014193
    13  C    0.029565
    14  C    0.229475
    15  O   -0.299878
    16  O   -0.350985
    17  N   -0.448334
    18  C    0.159248
    19  C   -0.167987
    20  C   -0.103120
    21  C    0.142373
    22  C    0.054729
    23  C    0.076808
    24  O   -0.217383
    25  C   -0.018892
    26  N   -0.387711
    27  C    0.026441
    28  C   -0.030681
    29  C   -0.035535
    30  C    0.024415
    31  C    0.031736
    32  C   -0.045591
    33  C   -0.069014
    34  N   -0.468581
    35  C    0.200189
    36  C   -0.181245
    37  C   -0.002133
    38  C    0.160195
    39  C    0.076174
    40  C    0.102791
    41  O   -0.196852
    42  C   -0.053126
    43  C    0.235575
    44  O   -0.239589
    45  O   -0.371500
    46  C    0.128982
    47  C    0.252705
    48  C   -0.149091
    49  C   -0.204524
    50  C    0.035937
    51  C    0.020903
    52  C   -0.038781
    53  C    0.004363
    54  C   -0.166055
    55  C    0.003287
    56  C    0.033326
    57  C   -0.041387
    58  C   -0.008885
    59  C   -0.215351
    60  C   -0.000079
    61  C    0.035809
    62  C    0.013992
    63  C   -0.002474
    64  C   -0.221183
    65  C   -0.007996
    66  C    0.017897
    67  H    0.006901
    68  H    0.027523
    69  H   -0.003408
    70  H    0.072158
    71  H    0.033640
    72  H    0.050257
    73  H    0.049567
    74  H    0.020711
    75  H    0.048956
    76  H    0.040834
    77  H    0.058245
    78  H    0.047476
    79  H    0.028146
    80  H    0.064393
    81  H    0.027509
    82  H    0.056081
    83  H    0.061538
    84  H    0.050093
    85  H    0.038576
    86  H    0.028440
    87  H    0.029587
    88  H    0.027961
    89  H    0.047993
    90  H    0.039618
    91  H    0.025698
    92  H    0.041837
    93  H    0.037758
    94  H    0.040084
    95  H    0.050359
    96  H   -0.000731
    97  H    0.065195
    98  H    0.064512
    99  H    0.064112
   100  H    0.057516
   101  H    0.041838
   102  H    0.063998
   103  H    0.041013
   104  H    0.013637
   105  H    0.041900
   106  H    0.045305
   107  H    0.042441
   108  H    0.013436
   109  H    0.024951
   110  H    0.021959
   111  H    0.018818
   112  H    0.022514
   113  H    0.018777
   114  H    0.022386
   115  H    0.025928
   116  H    0.031218
   117  H    0.023430
   118  H    0.024746
   119  H    0.012833
   120  H    0.027272
   121  H    0.020282
   122  H    0.007307
   123  H    0.031692
   124  H    0.005888
   125  H    0.027216
   126  H    0.026923
   127  H    0.043949
   128  H    0.000207
   129  H   -0.006249
   130  H    0.014124
   131  H    0.013163
   132  H    0.020723
   133  H    0.005811
   134  H    0.028317
   135  H    0.037599
   136  H    0.013647
   137  H    0.019510
   138  H    0.017476
   139  H    0.024775
   140  H    0.029183
 Sum of Mulliken charges =  -0.00000

 Dipole moment (field-independent basis, Debye):
    X=             -4.1648    Y=              3.1204    Z=              3.1814  Tot=              6.0995
 Quadrupole moment (field-independent basis, Debye-Ang):
   XX=           -377.3621   YY=           -428.3221   ZZ=           -405.4369
   XY=             18.5431   XZ=             10.0309   YZ=             -8.2298

 Normal termination of Gaussian 16 at Thu May  5 06:39:34 2022.
