 Gaussian 16, Revision A.03,
 Gaussian 16:  ES64L-G16RevA.03 25-Dec-2016

 --------------------
 #p ZINDO=(nstates=5)
 --------------------

 -----------------------------
 step_701_chromophore_24 ZINDO
 -----------------------------
 Symbolic Z-matrix:
 Charge =  0 Multiplicity = 1

                         Standard orientation:
 ---------------------------------------------------------------------
 Center     Atomic      Atomic             Coordinates (Angstroms)
 Number     Number       Type             X           Y           Z
 ---------------------------------------------------------------------
      1         12           0        5.152381    0.948826    0.296027
      2          6           0        4.057597   -2.459520    0.056125
      3          6           0        1.882009    1.813162   -0.431692
      4          6           0        6.204673    4.146866   -0.311784
      5          6           0        8.426692   -0.197102    0.428229
      6          7           0        3.175323   -0.290988   -0.242974
      7          6           0        2.930836   -1.604426   -0.047086
      8          6           0        1.480648   -2.015596   -0.345107
      9          6           0        0.834093   -0.566648   -0.684218
     10          6           0        2.075949    0.447458   -0.394406
     11          6           0        0.263999   -0.377106   -2.100527
     12          6           0        0.773431   -2.650907    0.914891
     13          6           0       -0.328391   -3.649435    0.776051
     14          6           0       -1.274502   -3.531265   -0.422875
     15          8           0       -1.224424   -4.191493   -1.503316
     16          8           0       -2.070308   -2.408699   -0.323392
     17          7           0        4.204223    2.826739    0.018570
     18          6           0        2.842540    2.900968   -0.233016
     19          6           0        2.477789    4.322728   -0.253066
     20          6           0        3.763775    5.066471   -0.340168
     21          6           0        4.775903    4.004806   -0.269753
     22          6           0        1.094929    4.794178   -0.390694
     23          6           0        4.024071    6.602933   -0.454791
     24          8           0        5.156055    7.033949   -0.516217
     25          6           0        2.809418    7.476994   -0.304822
     26          7           0        7.027154    1.826965    0.263346
     27          6           0        7.222583    3.165727   -0.046322
     28          6           0        8.715888    3.462673   -0.283697
     29          6           0        9.396812    2.209421    0.308767
     30          6           0        8.256051    1.234421    0.346636
     31          6           0        9.054539    3.745642   -1.703177
     32          6           0       10.016332    2.325743    1.702621
     33          6           0        9.027963    2.452441    2.914763
     34          7           0        6.076876   -0.921570    0.317660
     35          6           0        7.433728   -1.187630    0.422595
     36          6           0        7.574889   -2.570477    0.444309
     37          6           0        6.316545   -3.093477    0.340061
     38          6           0        5.384347   -2.096209    0.191707
     39          6           0        8.709341   -3.360090    0.596430
     40          6           0        5.559848   -4.338749    0.331335
     41          8           0        5.976053   -5.483746    0.305478
     42          6           0        4.088655   -3.954852    0.180218
     43          6           0        3.515405   -4.662138   -0.949641
     44          8           0        3.912224   -4.484468   -2.082149
     45          8           0        2.643423   -5.705303   -0.637480
     46          6           0        2.177667   -6.554404   -1.690250
     47          6           0       -2.976047   -2.061924   -1.361301
     48          6           0       -4.401648   -1.963169   -0.795940
     49          6           0       -5.440898   -2.854370   -0.848110
     50          6           0       -5.268543   -4.291083   -1.346470
     51          6           0       -6.784802   -2.644662   -0.254484
     52          6           0       -6.888444   -2.819973    1.265103
     53          6           0       -6.879232   -1.498168    2.080537
     54          6           0       -8.266141   -1.162546    2.749829
     55          6           0       -8.632410   -2.131595    3.874649
     56          6           0       -8.294334    0.324086    3.199358
     57          6           0       -9.389093    1.136272    2.457694
     58          6           0       -8.854234    1.719195    1.025600
     59          6           0       -9.763547    1.417316   -0.232067
     60          6           0       -8.954411    1.444095   -1.574764
     61          6           0      -10.901922    2.427821   -0.292773
     62          6           0      -12.195882    2.054814    0.436009
     63          6           0      -13.301666    1.586066   -0.448119
     64          6           0      -13.895927    2.684671   -1.294236
     65          6           0      -14.900704    3.534054   -0.512534
     66          6           0      -14.608485    2.119988   -2.531141
     67          1           0        0.862283    2.125989   -0.666721
     68          1           0        6.661606    5.125854   -0.472847
     69          1           0        9.477824   -0.488114    0.478286
     70          1           0        1.417868   -2.644449   -1.233758
     71          1           0       -0.003437   -0.478516    0.007910
     72          1           0        0.558210   -1.237716   -2.700149
     73          1           0        0.572317    0.565990   -2.550939
     74          1           0       -0.787627   -0.426366   -1.820466
     75          1           0        0.384279   -1.878843    1.579289
     76          1           0        1.533372   -3.290598    1.364481
     77          1           0       -0.811695   -3.798561    1.742007
     78          1           0        0.188587   -4.599632    0.643537
     79          1           0        0.406731    3.998832   -0.103899
     80          1           0        0.793597    5.315318   -1.300049
     81          1           0        0.836189    5.492240    0.405758
     82          1           0        3.105385    8.525961   -0.317928
     83          1           0        2.281871    7.234486    0.617458
     84          1           0        2.099983    7.286735   -1.109695
     85          1           0        8.955851    4.324415    0.339702
     86          1           0       10.203365    1.714440   -0.232004
     87          1           0        9.694849    3.011510   -2.192216
     88          1           0        9.718929    4.598285   -1.847971
     89          1           0        8.201214    3.948033   -2.349786
     90          1           0       10.792098    3.078466    1.840210
     91          1           0       10.483492    1.378022    1.970866
     92          1           0        9.326082    3.345195    3.463865
     93          1           0        8.998425    1.539374    3.509621
     94          1           0        7.990082    2.562798    2.598430
     95          1           0        8.713664   -3.828756    1.580167
     96          1           0        9.611892   -2.750197    0.654825
     97          1           0        8.942005   -4.117374   -0.152928
     98          1           0        3.635171   -4.429635    1.050465
     99          1           0        2.654793   -6.473919   -2.667079
    100          1           0        1.097715   -6.449227   -1.798061
    101          1           0        2.343542   -7.588190   -1.389199
    102          1           0       -2.914268   -2.687956   -2.251332
    103          1           0       -2.792209   -1.030967   -1.663641
    104          1           0       -4.724772   -0.980145   -0.451981
    105          1           0       -6.010205   -4.511509   -2.113842
    106          1           0       -5.454855   -4.883534   -0.450803
    107          1           0       -4.274797   -4.400411   -1.780562
    108          1           0       -7.569699   -3.233460   -0.727339
    109          1           0       -7.138051   -1.647548   -0.517582
    110          1           0       -6.061755   -3.398217    1.678075
    111          1           0       -7.759589   -3.452409    1.437287
    112          1           0       -6.546526   -0.712103    1.401887
    113          1           0       -6.091292   -1.720723    2.799425
    114          1           0       -8.930787   -1.525813    1.966000
    115          1           0       -7.721234   -2.637135    4.193971
    116          1           0       -9.416925   -2.848349    3.631762
    117          1           0       -9.041795   -1.599661    4.733433
    118          1           0       -7.375866    0.906732    3.120718
    119          1           0       -8.588120    0.474994    4.238022
    120          1           0       -9.798523    1.906101    3.111854
    121          1           0      -10.183522    0.413927    2.273760
    122          1           0       -8.019418    1.076533    0.744754
    123          1           0       -8.496176    2.748204    1.068809
    124          1           0      -10.219387    0.447191   -0.030269
    125          1           0       -9.576033    1.531655   -2.465367
    126          1           0       -8.588417    0.444952   -1.812081
    127          1           0       -8.212091    2.222568   -1.394031
    128          1           0      -11.128375    2.763774   -1.305229
    129          1           0      -10.391810    3.303799    0.107529
    130          1           0      -12.550841    2.833037    1.111626
    131          1           0      -11.985857    1.150635    1.006959
    132          1           0      -14.081954    1.103930    0.142501
    133          1           0      -12.853857    0.819100   -1.080169
    134          1           0      -13.111891    3.355284   -1.646344
    135          1           0      -15.911247    3.811220   -0.812571
    136          1           0      -14.507909    4.545353   -0.405031
    137          1           0      -14.857220    3.080180    0.477342
    138          1           0      -14.042249    2.595406   -3.332599
    139          1           0      -15.627434    2.500170   -2.596233
    140          1           0      -14.547422    1.046578   -2.708735
 ---------------------------------------------------------------------

 SCF Done:  E(RZINDO/S) =  -474.464572277     A.U. after   20 cycles

 Excitation energies and oscillator strengths:

 Excited State   1:      Singlet-A      1.2441 eV  996.57 nm  f=0.5762  <S**2>=0.000
     175 ->178         0.20374
     176 ->177         0.65947
 This state for optimization and/or second-order correction.
 Total Energy, E(CIS/TDA) =  -474.418851958
 Copying the excited state density for this state as the 1-particle RhoCI density.

 Excited State   2:      Singlet-A      1.8835 eV  658.25 nm  f=0.0531  <S**2>=0.000
     175 ->177         0.55174
     176 ->178        -0.41639

 Excited State   3:      Singlet-A      2.8893 eV  429.11 nm  f=0.0086  <S**2>=0.000
     169 ->177         0.28026
     169 ->178        -0.12745
     169 ->179        -0.29790
     169 ->181         0.20709
     169 ->186        -0.18394
     169 ->187         0.10070
     169 ->201         0.10082
     170 ->177         0.17331
     170 ->179        -0.16613
     170 ->181         0.11967
     170 ->186        -0.10035
     171 ->177        -0.20524
     171 ->179         0.10485

 Excited State   4:      Singlet-A      3.0233 eV  410.09 nm  f=1.2220  <S**2>=0.000
     174 ->177         0.13625
     175 ->177         0.37026
     176 ->178         0.52695
     176 ->179         0.11756

 Excited State   5:      Singlet-A      3.0804 eV  402.49 nm  f=0.0256  <S**2>=0.000
     171 ->177        -0.16303
     173 ->177        -0.21126
     174 ->177        -0.38832
     176 ->179         0.45073
     176 ->181         0.12332

 The electronic state is 1-A.
 Alpha  occ. eigenvalues --   -1.87122  -1.81485  -1.78025  -1.73330  -1.73141
 Alpha  occ. eigenvalues --   -1.70186  -1.66976  -1.62611  -1.60599  -1.57917
 Alpha  occ. eigenvalues --   -1.55636  -1.51397  -1.49702  -1.48807  -1.45240
 Alpha  occ. eigenvalues --   -1.44393  -1.43191  -1.40848  -1.39472  -1.37479
 Alpha  occ. eigenvalues --   -1.37006  -1.36402  -1.33309  -1.31459  -1.29352
 Alpha  occ. eigenvalues --   -1.27713  -1.24430  -1.22854  -1.20904  -1.18851
 Alpha  occ. eigenvalues --   -1.17546  -1.16116  -1.15043  -1.14053  -1.13634
 Alpha  occ. eigenvalues --   -1.12400  -1.09881  -1.09819  -1.05882  -1.04814
 Alpha  occ. eigenvalues --   -1.03808  -1.01703  -0.99261  -0.97738  -0.96765
 Alpha  occ. eigenvalues --   -0.96447  -0.95323  -0.93697  -0.92578  -0.92020
 Alpha  occ. eigenvalues --   -0.91218  -0.90546  -0.88733  -0.87802  -0.85632
 Alpha  occ. eigenvalues --   -0.85339  -0.84797  -0.83782  -0.82183  -0.80478
 Alpha  occ. eigenvalues --   -0.79896  -0.79710  -0.78885  -0.77628  -0.76848
 Alpha  occ. eigenvalues --   -0.76483  -0.75792  -0.75375  -0.74554  -0.74061
 Alpha  occ. eigenvalues --   -0.73687  -0.72529  -0.72425  -0.72148  -0.71535
 Alpha  occ. eigenvalues --   -0.71319  -0.69855  -0.69352  -0.68812  -0.68034
 Alpha  occ. eigenvalues --   -0.67505  -0.67037  -0.66375  -0.65919  -0.65514
 Alpha  occ. eigenvalues --   -0.65177  -0.64697  -0.64369  -0.64020  -0.63862
 Alpha  occ. eigenvalues --   -0.62886  -0.62629  -0.62498  -0.61983  -0.61596
 Alpha  occ. eigenvalues --   -0.61379  -0.61206  -0.60498  -0.60389  -0.60048
 Alpha  occ. eigenvalues --   -0.59615  -0.59501  -0.58852  -0.58321  -0.57731
 Alpha  occ. eigenvalues --   -0.57559  -0.57480  -0.57409  -0.57115  -0.56602
 Alpha  occ. eigenvalues --   -0.56257  -0.55822  -0.55320  -0.55080  -0.54648
 Alpha  occ. eigenvalues --   -0.54476  -0.53700  -0.53547  -0.52818  -0.52534
 Alpha  occ. eigenvalues --   -0.51868  -0.51744  -0.51580  -0.51181  -0.50594
 Alpha  occ. eigenvalues --   -0.50479  -0.50114  -0.49875  -0.49753  -0.49721
 Alpha  occ. eigenvalues --   -0.49390  -0.49317  -0.48943  -0.48770  -0.48763
 Alpha  occ. eigenvalues --   -0.48286  -0.48194  -0.48005  -0.47701  -0.47381
 Alpha  occ. eigenvalues --   -0.47218  -0.47095  -0.46924  -0.46765  -0.46396
 Alpha  occ. eigenvalues --   -0.46132  -0.45732  -0.45529  -0.45247  -0.45113
 Alpha  occ. eigenvalues --   -0.45054  -0.44775  -0.44016  -0.43928  -0.43694
 Alpha  occ. eigenvalues --   -0.43629  -0.43181  -0.42741  -0.42657  -0.41637
 Alpha  occ. eigenvalues --   -0.41479  -0.41131  -0.40848  -0.39481  -0.38730
 Alpha  occ. eigenvalues --   -0.37599  -0.36992  -0.35382  -0.35046  -0.34514
 Alpha  occ. eigenvalues --   -0.32807  -0.32418  -0.32335  -0.31485  -0.26373
 Alpha  occ. eigenvalues --   -0.21874
 Alpha virt. eigenvalues --   -0.08598  -0.02311  -0.00363   0.00338   0.01486
 Alpha virt. eigenvalues --    0.02215   0.02961   0.03028   0.04376   0.04760
 Alpha virt. eigenvalues --    0.06095   0.06776   0.07412   0.07841   0.08380

 Mulliken charges:
               1
     1  Mg   0.428700
     2  C   -0.032185
     3  C   -0.069640
     4  C   -0.073999
     5  C   -0.082530
     6  N   -0.268377
     7  C    0.127392
     8  C    0.000496
     9  C   -0.021308
    10  C    0.111336
    11  C   -0.058800
    12  C   -0.015416
    13  C    0.013609
    14  C    0.464655
    15  O   -0.527104
    16  O   -0.262998
    17  N   -0.312287
    18  C    0.084266
    19  C   -0.007227
    20  C   -0.079367
    21  C    0.148222
    22  C   -0.040976
    23  C    0.334008
    24  O   -0.513354
    25  C   -0.027849
    26  N   -0.273619
    27  C    0.114592
    28  C    0.027620
    29  C    0.017647
    30  C    0.151594
    31  C   -0.045420
    32  C   -0.031825
    33  C   -0.063326
    34  N   -0.351770
    35  C    0.120868
    36  C    0.067663
    37  C   -0.045628
    38  C    0.117391
    39  C   -0.030534
    40  C    0.335151
    41  O   -0.517011
    42  C    0.064248
    43  C    0.488934
    44  O   -0.518848
    45  O   -0.276784
    46  C    0.079419
    47  C    0.114334
    48  C   -0.112862
    49  C    0.010827
    50  C   -0.049184
    51  C   -0.012094
    52  C   -0.032046
    53  C   -0.040065
    54  C   -0.006187
    55  C   -0.057107
    56  C   -0.029723
    57  C   -0.044528
    58  C   -0.047362
    59  C   -0.012921
    60  C   -0.064648
    61  C   -0.036764
    62  C   -0.031216
    63  C   -0.019334
    64  C   -0.001728
    65  C   -0.067254
    66  C   -0.065426
    67  H    0.031724
    68  H    0.044713
    69  H    0.026928
    70  H    0.055831
    71  H    0.025834
    72  H    0.031686
    73  H    0.031791
    74  H    0.025505
    75  H    0.030754
    76  H    0.020540
    77  H    0.041584
    78  H    0.028662
    79  H    0.019872
    80  H    0.037526
    81  H    0.018136
    82  H    0.034480
    83  H    0.039118
    84  H    0.035609
    85  H    0.031261
    86  H    0.028244
    87  H    0.016719
    88  H    0.013387
    89  H    0.028461
    90  H    0.023859
    91  H    0.012052
    92  H    0.020796
    93  H    0.022328
    94  H    0.023547
    95  H    0.033792
    96  H    0.002505
    97  H    0.043621
    98  H    0.049280
    99  H    0.054290
   100  H    0.036529
   101  H    0.027543
   102  H    0.060813
   103  H    0.031320
   104  H    0.020579
   105  H    0.027754
   106  H    0.033758
   107  H    0.030690
   108  H    0.015101
   109  H    0.013287
   110  H    0.014860
   111  H    0.016651
   112  H    0.023449
   113  H    0.017887
   114  H    0.030036
   115  H    0.019139
   116  H    0.019350
   117  H    0.013815
   118  H    0.022786
   119  H    0.013431
   120  H    0.021034
   121  H    0.019483
   122  H    0.008356
   123  H    0.032137
   124  H    0.019547
   125  H    0.021686
   126  H    0.015404
   127  H    0.033344
   128  H    0.015192
   129  H    0.009662
   130  H    0.020984
   131  H    0.009465
   132  H    0.016344
   133  H    0.010111
   134  H    0.023804
   135  H    0.032719
   136  H    0.002936
   137  H    0.016521
   138  H    0.008094
   139  H    0.021306
   140  H    0.024316
 Sum of Mulliken charges =  -0.00000

 Dipole moment (field-independent basis, Debye):
    X=             -5.2644    Y=              2.3445    Z=              4.8155  Tot=              7.5100
 N-N= 4.379715705206D+03 E-N= 0.000000000000D+00  KE=-9.433972646278D+03
 Leave Link  601 at Thu May  5 06:52:23 2022, MaxMem=  6710886400 cpu:               0.8 elap:               0.0
 (Enter /sw/apps/gaussian-16.0/g16/l9999.exe)
 1\1\GINC-BP1-COMPUTE100\SP\RZINDO CIS\STO-3G\C55H74Mg1N4O6\OF15641\05-
 May-2022\0\\#p ZINDO=(nstates=5)\\step_701_chromophore_24 ZINDO\\0,1\M
 g,0,-0.395,44.078,24.995\C,0,1.72,43.232,27.767\C,0,-3.009,42.868,26.9
 12\C,0,-2.355,44.064,22.191\C,0,2.456,44.674,23.106\N,0,-0.549,43.038,
 27.147\C,0,0.367,43.026,28.139\C,0,-0.15,42.418,29.452\C,0,-1.698,42.1
 42,29.052\C,0,-1.791,42.776,27.554\C,0,-2.17,40.678,29.08\C,0,-0.067,4
 3.44,30.652\C,0,0.094,42.981,32.064\C,0,-0.544,41.651,32.477\O,0,0.032

 Normal termination of Gaussian 16 at Thu May  5 06:52:24 2022.
