 Gaussian 16, Revision A.03,
 Gaussian 16:  ES64L-G16RevA.03 25-Dec-2016

 ------------------------------
 #p blyp/Def2SVP td=(nstates=5)
 ------------------------------

 ---------------------------------------------------
 step_1401_chromophore_22 TDDFT with blyp functional
 ---------------------------------------------------
 Symbolic Z-matrix:
 Charge =  0 Multiplicity = 1

                         Standard orientation:
 ---------------------------------------------------------------------
 Center     Atomic      Atomic             Coordinates (Angstroms)
 Number     Number       Type             X           Y           Z
 ---------------------------------------------------------------------
      1         12           0        6.223544    0.419452   -0.044725
      2          6           0        3.624086   -1.899838   -0.599561
      3          6           0        4.236392    2.814491   -1.659583
      4          6           0        8.768023    2.569885    0.160246
      5          6           0        8.340939   -2.127719    0.845383
      6          7           0        4.097942    0.478022   -0.849082
      7          6           0        3.206361   -0.590662   -0.914938
      8          6           0        1.911807   -0.196141   -1.573986
      9          6           0        2.342556    1.013546   -2.347986
     10          6           0        3.617363    1.491825   -1.562094
     11          6           0        2.709304    0.645653   -3.844924
     12          6           0        0.753010   -0.043747   -0.569091
     13          6           0       -0.587102   -0.689951   -0.995871
     14          6           0       -1.764393   -1.046091    0.041971
     15          8           0       -1.883030   -0.698777    1.209228
     16          8           0       -2.665848   -1.885436   -0.616105
     17          7           0        6.393131    2.397612   -0.541189
     18          6           0        5.449337    3.261670   -1.083410
     19          6           0        5.946898    4.668876   -1.074027
     20          6           0        7.268397    4.664123   -0.513676
     21          6           0        7.491302    3.170411   -0.255638
     22          6           0        5.182218    5.871474   -1.592448
     23          6           0        8.262073    5.645308   -0.128938
     24          8           0        9.259852    5.405438    0.515516
     25          6           0        7.905134    7.074450   -0.448088
     26          7           0        8.214571    0.314000    0.564118
     27          6           0        9.122484    1.297394    0.459566
     28          6           0       10.535379    0.928892    0.967012
     29          6           0       10.260380   -0.568802    1.386003
     30          6           0        8.856284   -0.804199    0.872945
     31          6           0       11.697885    1.313008    0.044308
     32          6           0       10.343937   -0.723033    2.924195
     33          6           0       11.247740   -1.965926    3.373623
     34          7           0        6.068446   -1.607041    0.185749
     35          6           0        7.020181   -2.511696    0.431284
     36          6           0        6.440419   -3.821332    0.356492
     37          6           0        5.083028   -3.652935    0.053739
     38          6           0        4.916213   -2.251579   -0.080274
     39          6           0        7.118396   -5.143632    0.620861
     40          6           0        3.853103   -4.298096   -0.183000
     41          8           0        3.527276   -5.508072   -0.127180
     42          6           0        2.815096   -3.174067   -0.552480
     43          6           0        1.831812   -3.234835    0.605020
     44          8           0        2.108662   -2.733639    1.719724
     45          8           0        0.582113   -3.614218    0.220443
     46          6           0       -0.311293   -3.840533    1.358185
     47          6           0       -3.832621   -2.467862   -0.024371
     48          6           0       -5.139152   -2.108548   -0.728375
     49          6           0       -6.284887   -2.761588   -0.768322
     50          6           0       -6.488551   -4.076855   -0.108896
     51          6           0       -7.405820   -2.086557   -1.526161
     52          6           0       -8.606651   -1.611246   -0.602128
     53          6           0       -9.171506   -0.346919   -1.154687
     54          6           0      -10.384283   -0.795422   -2.026023
     55          6           0       -9.917157   -0.792332   -3.567522
     56          6           0      -11.579114    0.204906   -1.869090
     57          6           0      -12.472466    0.063208   -0.561087
     58          6           0      -13.960356    0.186306   -0.850319
     59          6           0      -14.702369    1.427417   -0.268810
     60          6           0      -15.911186    1.855195   -1.121241
     61          6           0      -15.109349    1.246262    1.261136
     62          6           0      -14.502967    2.328747    2.200112
     63          6           0      -13.280292    1.920160    2.999434
     64          6           0      -12.352082    3.141800    3.265402
     65          6           0      -10.962479    3.033592    2.631221
     66          6           0      -12.147451    3.429427    4.748865
     67          1           0        3.665395    3.498428   -2.290150
     68          1           0        9.627194    3.202271    0.390989
     69          1           0        8.971631   -2.984561    1.090828
     70          1           0        1.690680   -1.047077   -2.217393
     71          1           0        1.715200    1.898379   -2.240495
     72          1           0        2.042000    1.200078   -4.503359
     73          1           0        2.788957   -0.405542   -4.124380
     74          1           0        3.740479    0.967574   -3.993302
     75          1           0        0.571031    1.025459   -0.465995
     76          1           0        1.016005   -0.422202    0.418674
     77          1           0       -0.398837   -1.615320   -1.539290
     78          1           0       -1.008128    0.026102   -1.701645
     79          1           0        4.215079    5.562279   -1.990226
     80          1           0        5.656992    6.384401   -2.428750
     81          1           0        5.010221    6.485401   -0.708832
     82          1           0        6.980421    7.299000    0.082788
     83          1           0        7.830141    7.228039   -1.524984
     84          1           0        8.737509    7.705464   -0.136883
     85          1           0       10.573747    1.514805    1.884987
     86          1           0       10.948155   -1.173857    0.794937
     87          1           0       12.467003    0.576309   -0.189555
     88          1           0       12.080366    2.293143    0.328225
     89          1           0       11.408262    1.525730   -0.983723
     90          1           0        9.372858   -0.907952    3.383607
     91          1           0       10.856667    0.135485    3.358785
     92          1           0       11.807452   -2.451980    2.574628
     93          1           0       10.591122   -2.710686    3.821993
     94          1           0       11.965330   -1.694869    4.148160
     95          1           0        8.147376   -4.869880    0.386891
     96          1           0        6.912033   -5.789280   -0.234048
     97          1           0        7.031652   -5.600633    1.606719
     98          1           0        2.199252   -3.381047   -1.427794
     99          1           0       -0.810878   -2.909096    1.625139
    100          1           0        0.190026   -4.218217    2.249596
    101          1           0       -0.969971   -4.567684    0.883269
    102          1           0       -3.961661   -2.129443    1.003366
    103          1           0       -3.724776   -3.544017   -0.162465
    104          1           0       -5.062315   -1.149820   -1.242024
    105          1           0       -7.573970   -4.056948   -0.012899
    106          1           0       -5.883402   -4.182108    0.791214
    107          1           0       -6.216910   -4.812280   -0.866522
    108          1           0       -7.931193   -2.800543   -2.160480
    109          1           0       -7.110492   -1.331729   -2.254606
    110          1           0       -8.396485   -1.516805    0.463040
    111          1           0       -9.361193   -2.393030   -0.690186
    112          1           0       -8.498530    0.163351   -1.843299
    113          1           0       -9.456626    0.384580   -0.398759
    114          1           0      -10.776488   -1.800630   -1.870775
    115          1           0      -10.576434   -0.131494   -4.130544
    116          1           0      -10.051224   -1.764414   -4.040043
    117          1           0       -8.920836   -0.382130   -3.732863
    118          1           0      -12.159487    0.307995   -2.786564
    119          1           0      -11.118546    1.189137   -1.790562
    120          1           0      -12.207110    0.791817    0.204905
    121          1           0      -12.464974   -0.913142   -0.076614
    122          1           0      -14.409010   -0.732321   -0.471832
    123          1           0      -14.223347    0.171018   -1.907657
    124          1           0      -13.942603    2.198137   -0.405172
    125          1           0      -16.734099    2.323596   -0.581923
    126          1           0      -16.405667    0.957658   -1.492678
    127          1           0      -15.787662    2.526039   -1.971259
    128          1           0      -14.798293    0.221055    1.461603
    129          1           0      -16.186545    1.200351    1.425216
    130          1           0      -15.257519    2.565424    2.950512
    131          1           0      -14.387494    3.240867    1.614707
    132          1           0      -12.769781    1.120848    2.461493
    133          1           0      -13.596781    1.382392    3.893408
    134          1           0      -12.779158    3.991066    2.731941
    135          1           0      -10.507274    4.016872    2.510661
    136          1           0      -11.050597    2.664841    1.609554
    137          1           0      -10.342245    2.260129    3.084954
    138          1           0      -11.180674    3.009316    5.026671
    139          1           0      -12.895992    3.012651    5.423052
    140          1           0      -12.152448    4.513999    4.850786
 ---------------------------------------------------------------------

 SCF Done:  E(RB-LYP) =  -3007.36139276     A.U. after   21 cycles

 Excitation energies and oscillator strengths:

 Excited State   1:      Singlet-A      1.7317 eV  715.99 nm  f=0.2621  <S**2>=0.000
     245 -> 248        0.17130
     246 -> 247        0.68322
     246 <- 247       -0.15804
 This state for optimization and/or second-order correction.
 Total Energy, E(TD-HF/TD-DFT) =  -3007.29775573
 Copying the excited state density for this state as the 1-particle RhoCI density.

 Excited State   2:      Singlet-A      1.8192 eV  681.54 nm  f=0.0286  <S**2>=0.000
     244 -> 247        0.62272
     245 -> 247        0.30732
     246 -> 247        0.10997

 Excited State   3:      Singlet-A      1.9844 eV  624.80 nm  f=0.0430  <S**2>=0.000
     243 -> 247        0.57481
     244 -> 247       -0.18976
     245 -> 247        0.32917
     246 -> 248       -0.12599

 Excited State   4:      Singlet-A      2.0169 eV  614.73 nm  f=0.0631  <S**2>=0.000
     243 -> 247       -0.40241
     244 -> 247       -0.25111
     245 -> 247        0.47602
     246 -> 248       -0.17379

 Excited State   5:      Singlet-A      2.2394 eV  553.66 nm  f=0.0000  <S**2>=0.000
     242 -> 247        0.70711

 The electronic state is 1-A.
 Alpha  occ. eigenvalues --  -46.26869 -18.82671 -18.81883 -18.77772 -18.76034
 Alpha  occ. eigenvalues --  -18.75538 -18.75004 -14.03291 -14.02752 -14.01988
 Alpha  occ. eigenvalues --  -14.00808 -10.05370 -10.03694  -9.99442  -9.99164
 Alpha  occ. eigenvalues --   -9.98063  -9.96972  -9.96898  -9.96818  -9.96596
 Alpha  occ. eigenvalues --   -9.96299  -9.96204  -9.95419  -9.95151  -9.95064
 Alpha  occ. eigenvalues --   -9.94635  -9.94490  -9.94156  -9.93846  -9.93817
 Alpha  occ. eigenvalues --   -9.93790  -9.93716  -9.93696  -9.93586  -9.93448
 Alpha  occ. eigenvalues --   -9.93054  -9.93013  -9.92975  -9.92952  -9.92812
 Alpha  occ. eigenvalues --   -9.92593  -9.92505  -9.92490  -9.92230  -9.92133
 Alpha  occ. eigenvalues --   -9.92084  -9.91959  -9.91708  -9.91696  -9.91678
 Alpha  occ. eigenvalues --   -9.91568  -9.91415  -9.91410  -9.91382  -9.91203
 Alpha  occ. eigenvalues --   -9.91155  -9.91147  -9.91100  -9.90973  -9.90754
 Alpha  occ. eigenvalues --   -9.90739  -9.90734  -9.90585  -9.90549  -9.90440
 Alpha  occ. eigenvalues --   -9.90360  -2.91613  -1.72047  -1.71477  -1.71341
 Alpha  occ. eigenvalues --   -0.97680  -0.97312  -0.92283  -0.90381  -0.89323
 Alpha  occ. eigenvalues --   -0.88317  -0.87626  -0.86807  -0.86248  -0.84674
 Alpha  occ. eigenvalues --   -0.75401  -0.74167  -0.73151  -0.72714  -0.72110
 Alpha  occ. eigenvalues --   -0.72016  -0.71543  -0.71019  -0.70803  -0.70229
 Alpha  occ. eigenvalues --   -0.69385  -0.68953  -0.67922  -0.67220  -0.66997
 Alpha  occ. eigenvalues --   -0.66322  -0.65864  -0.65543  -0.64786  -0.64427
 Alpha  occ. eigenvalues --   -0.64164  -0.62586  -0.62343  -0.61762  -0.61000
 Alpha  occ. eigenvalues --   -0.60599  -0.59917  -0.59823  -0.59414  -0.59075
 Alpha  occ. eigenvalues --   -0.58484  -0.57433  -0.56497  -0.55430  -0.54458
 Alpha  occ. eigenvalues --   -0.54432  -0.53728  -0.53153  -0.52253  -0.51922
 Alpha  occ. eigenvalues --   -0.51704  -0.51442  -0.50554  -0.50341  -0.50210
 Alpha  occ. eigenvalues --   -0.49584  -0.49416  -0.48920  -0.48297  -0.46285
 Alpha  occ. eigenvalues --   -0.46001  -0.45977  -0.45670  -0.45261  -0.44186
 Alpha  occ. eigenvalues --   -0.43822  -0.43463  -0.42958  -0.42669  -0.42420
 Alpha  occ. eigenvalues --   -0.41883  -0.41545  -0.41237  -0.40943  -0.40694
 Alpha  occ. eigenvalues --   -0.40532  -0.40457  -0.40324  -0.40060  -0.39903
 Alpha  occ. eigenvalues --   -0.39803  -0.39747  -0.39406  -0.39256  -0.39206
 Alpha  occ. eigenvalues --   -0.39033  -0.38897  -0.38671  -0.38413  -0.38335
 Alpha  occ. eigenvalues --   -0.38104  -0.38024  -0.37632  -0.37522  -0.37346
 Alpha  occ. eigenvalues --   -0.37110  -0.37047  -0.36643  -0.36567  -0.36414
 Alpha  occ. eigenvalues --   -0.36090  -0.35992  -0.35828  -0.35539  -0.35412
 Alpha  occ. eigenvalues --   -0.35376  -0.35266  -0.34801  -0.34707  -0.34491
 Alpha  occ. eigenvalues --   -0.34271  -0.34108  -0.34077  -0.34059  -0.33933
 Alpha  occ. eigenvalues --   -0.33759  -0.33577  -0.33565  -0.33464  -0.33121
 Alpha  occ. eigenvalues --   -0.32788  -0.32660  -0.32354  -0.32244  -0.32206
 Alpha  occ. eigenvalues --   -0.32016  -0.31781  -0.31582  -0.31497  -0.31453
 Alpha  occ. eigenvalues --   -0.31176  -0.31026  -0.30814  -0.30735  -0.30582
 Alpha  occ. eigenvalues --   -0.30458  -0.30365  -0.30288  -0.29887  -0.29737
 Alpha  occ. eigenvalues --   -0.29670  -0.29617  -0.29106  -0.28944  -0.28798
 Alpha  occ. eigenvalues --   -0.28767  -0.28510  -0.28300  -0.28169  -0.28042
 Alpha  occ. eigenvalues --   -0.27791  -0.27258  -0.27251  -0.26765  -0.26241
 Alpha  occ. eigenvalues --   -0.26122  -0.25571  -0.25548  -0.25451  -0.25235
 Alpha  occ. eigenvalues --   -0.24955  -0.24603  -0.24297  -0.23922  -0.23850
 Alpha  occ. eigenvalues --   -0.23388  -0.22485  -0.22121  -0.21339  -0.20889
 Alpha  occ. eigenvalues --   -0.20597  -0.19820  -0.18802  -0.18251  -0.17168
 Alpha  occ. eigenvalues --   -0.15563
 Alpha virt. eigenvalues --   -0.11590  -0.06673  -0.06540  -0.04763  -0.03327
 Alpha virt. eigenvalues --   -0.02870  -0.01721  -0.00749  -0.00537   0.00070
 Alpha virt. eigenvalues --    0.00729   0.01680   0.02033   0.02724   0.02881

 Mulliken charges:
               1
     1  Mg   0.720683
     2  C    0.013611
     3  C   -0.070552
     4  C   -0.030275
     5  C   -0.088668
     6  N   -0.180241
     7  C   -0.070589
     8  C    0.026831
     9  C    0.020603
    10  C   -0.049918
    11  C    0.136897
    12  C    0.155466
    13  C    0.045096
    14  C    0.130267
    15  O   -0.178317
    16  O   -0.286620
    17  N   -0.294362
    18  C    0.176771
    19  C   -0.158823
    20  C    0.060574
    21  C    0.092023
    22  C    0.177274
    23  C   -0.112179
    24  O   -0.146811
    25  C    0.132075
    26  N   -0.207136
    27  C   -0.027796
    28  C    0.029280
    29  C    0.045988
    30  C    0.035910
    31  C    0.145237
    32  C    0.104501
    33  C    0.032720
    34  N   -0.249370
    35  C    0.088388
    36  C   -0.210597
    37  C    0.160106
    38  C    0.066117
    39  C    0.188740
    40  C   -0.072876
    41  O   -0.170912
    42  C    0.072847
    43  C    0.114662
    44  O   -0.221635
    45  O   -0.259070
    46  C    0.204862
    47  C    0.322984
    48  C   -0.139996
    49  C   -0.137244
    50  C    0.178851
    51  C    0.121311
    52  C    0.068656
    53  C    0.139261
    54  C   -0.116668
    55  C    0.091345
    56  C    0.102623
    57  C    0.089378
    58  C    0.061822
    59  C   -0.059180
    60  C    0.095486
    61  C    0.116014
    62  C    0.056532
    63  C    0.124435
    64  C   -0.081388
    65  C    0.088188
    66  C    0.123782
    67  H   -0.062275
    68  H   -0.049641
    69  H   -0.064300
    70  H   -0.035237
    71  H   -0.040151
    72  H    0.004028
    73  H    0.001800
    74  H   -0.012986
    75  H   -0.028126
    76  H    0.011049
    77  H    0.008739
    78  H    0.002615
    79  H   -0.026430
    80  H    0.013580
    81  H    0.012814
    82  H    0.010743
    83  H   -0.000029
    84  H   -0.015888
    85  H   -0.011527
    86  H   -0.032772
    87  H   -0.009948
    88  H    0.004637
    89  H   -0.025593
    90  H    0.001563
    91  H   -0.007414
    92  H   -0.007176
    93  H   -0.006888
    94  H   -0.010211
    95  H   -0.036617
    96  H   -0.004946
    97  H    0.028511
    98  H   -0.021647
    99  H    0.030473
   100  H    0.026277
   101  H    0.014189
   102  H    0.010163
   103  H   -0.005734
   104  H   -0.050097
   105  H   -0.013115
   106  H    0.009047
   107  H    0.006187
   108  H   -0.042732
   109  H   -0.024590
   110  H   -0.028847
   111  H   -0.021350
   112  H   -0.032586
   113  H   -0.027307
   114  H   -0.028508
   115  H   -0.031847
   116  H   -0.012833
   117  H   -0.013769
   118  H   -0.029130
   119  H   -0.043553
   120  H   -0.007380
   121  H   -0.033654
   122  H   -0.043962
   123  H   -0.042114
   124  H   -0.038177
   125  H   -0.029999
   126  H   -0.026876
   127  H   -0.017781
   128  H   -0.046864
   129  H   -0.038778
   130  H   -0.037830
   131  H   -0.020891
   132  H   -0.045551
   133  H   -0.041881
   134  H   -0.032330
   135  H   -0.011710
   136  H   -0.034515
   137  H   -0.012054
   138  H   -0.017542
   139  H   -0.019342
   140  H   -0.018358
 Sum of Mulliken charges =  -0.00000

 Dipole moment (field-independent basis, Debye):
    X=             -1.9381    Y=              2.4843    Z=             -3.5775  Tot=              4.7672
 Quadrupole moment (field-independent basis, Debye-Ang):
   XX=           -368.9212   YY=           -416.0210   ZZ=           -403.2114
   XY=              4.7365   XZ=             -4.0575   YZ=            -10.9482

 Normal termination of Gaussian 16 at Wed May  4 06:13:04 2022.
