 Gaussian 16, Revision A.03,
 Gaussian 16:  ES64L-G16RevA.03 25-Dec-2016

 -----------------------------------
 #p cam-b3lyp/Def2SVP td=(nstates=5)
 -----------------------------------

 --------------------------------------------------------
 step_1401_chromophore_22 TDDFT with cam-b3lyp functional
 --------------------------------------------------------
 Symbolic Z-matrix:
 Charge =  0 Multiplicity = 1

                         Standard orientation:
 ---------------------------------------------------------------------
 Center     Atomic      Atomic             Coordinates (Angstroms)
 Number     Number       Type             X           Y           Z
 ---------------------------------------------------------------------
      1         12           0        6.223544    0.419452   -0.044725
      2          6           0        3.624086   -1.899838   -0.599561
      3          6           0        4.236392    2.814491   -1.659583
      4          6           0        8.768023    2.569885    0.160246
      5          6           0        8.340939   -2.127719    0.845383
      6          7           0        4.097942    0.478022   -0.849082
      7          6           0        3.206361   -0.590662   -0.914938
      8          6           0        1.911807   -0.196141   -1.573986
      9          6           0        2.342556    1.013546   -2.347986
     10          6           0        3.617363    1.491825   -1.562094
     11          6           0        2.709304    0.645653   -3.844924
     12          6           0        0.753010   -0.043747   -0.569091
     13          6           0       -0.587102   -0.689951   -0.995871
     14          6           0       -1.764393   -1.046091    0.041971
     15          8           0       -1.883030   -0.698777    1.209228
     16          8           0       -2.665848   -1.885436   -0.616105
     17          7           0        6.393131    2.397612   -0.541189
     18          6           0        5.449337    3.261670   -1.083410
     19          6           0        5.946898    4.668876   -1.074027
     20          6           0        7.268397    4.664123   -0.513676
     21          6           0        7.491302    3.170411   -0.255638
     22          6           0        5.182218    5.871474   -1.592448
     23          6           0        8.262073    5.645308   -0.128938
     24          8           0        9.259852    5.405438    0.515516
     25          6           0        7.905134    7.074450   -0.448088
     26          7           0        8.214571    0.314000    0.564118
     27          6           0        9.122484    1.297394    0.459566
     28          6           0       10.535379    0.928892    0.967012
     29          6           0       10.260380   -0.568802    1.386003
     30          6           0        8.856284   -0.804199    0.872945
     31          6           0       11.697885    1.313008    0.044308
     32          6           0       10.343937   -0.723033    2.924195
     33          6           0       11.247740   -1.965926    3.373623
     34          7           0        6.068446   -1.607041    0.185749
     35          6           0        7.020181   -2.511696    0.431284
     36          6           0        6.440419   -3.821332    0.356492
     37          6           0        5.083028   -3.652935    0.053739
     38          6           0        4.916213   -2.251579   -0.080274
     39          6           0        7.118396   -5.143632    0.620861
     40          6           0        3.853103   -4.298096   -0.183000
     41          8           0        3.527276   -5.508072   -0.127180
     42          6           0        2.815096   -3.174067   -0.552480
     43          6           0        1.831812   -3.234835    0.605020
     44          8           0        2.108662   -2.733639    1.719724
     45          8           0        0.582113   -3.614218    0.220443
     46          6           0       -0.311293   -3.840533    1.358185
     47          6           0       -3.832621   -2.467862   -0.024371
     48          6           0       -5.139152   -2.108548   -0.728375
     49          6           0       -6.284887   -2.761588   -0.768322
     50          6           0       -6.488551   -4.076855   -0.108896
     51          6           0       -7.405820   -2.086557   -1.526161
     52          6           0       -8.606651   -1.611246   -0.602128
     53          6           0       -9.171506   -0.346919   -1.154687
     54          6           0      -10.384283   -0.795422   -2.026023
     55          6           0       -9.917157   -0.792332   -3.567522
     56          6           0      -11.579114    0.204906   -1.869090
     57          6           0      -12.472466    0.063208   -0.561087
     58          6           0      -13.960356    0.186306   -0.850319
     59          6           0      -14.702369    1.427417   -0.268810
     60          6           0      -15.911186    1.855195   -1.121241
     61          6           0      -15.109349    1.246262    1.261136
     62          6           0      -14.502967    2.328747    2.200112
     63          6           0      -13.280292    1.920160    2.999434
     64          6           0      -12.352082    3.141800    3.265402
     65          6           0      -10.962479    3.033592    2.631221
     66          6           0      -12.147451    3.429427    4.748865
     67          1           0        3.665395    3.498428   -2.290150
     68          1           0        9.627194    3.202271    0.390989
     69          1           0        8.971631   -2.984561    1.090828
     70          1           0        1.690680   -1.047077   -2.217393
     71          1           0        1.715200    1.898379   -2.240495
     72          1           0        2.042000    1.200078   -4.503359
     73          1           0        2.788957   -0.405542   -4.124380
     74          1           0        3.740479    0.967574   -3.993302
     75          1           0        0.571031    1.025459   -0.465995
     76          1           0        1.016005   -0.422202    0.418674
     77          1           0       -0.398837   -1.615320   -1.539290
     78          1           0       -1.008128    0.026102   -1.701645
     79          1           0        4.215079    5.562279   -1.990226
     80          1           0        5.656992    6.384401   -2.428750
     81          1           0        5.010221    6.485401   -0.708832
     82          1           0        6.980421    7.299000    0.082788
     83          1           0        7.830141    7.228039   -1.524984
     84          1           0        8.737509    7.705464   -0.136883
     85          1           0       10.573747    1.514805    1.884987
     86          1           0       10.948155   -1.173857    0.794937
     87          1           0       12.467003    0.576309   -0.189555
     88          1           0       12.080366    2.293143    0.328225
     89          1           0       11.408262    1.525730   -0.983723
     90          1           0        9.372858   -0.907952    3.383607
     91          1           0       10.856667    0.135485    3.358785
     92          1           0       11.807452   -2.451980    2.574628
     93          1           0       10.591122   -2.710686    3.821993
     94          1           0       11.965330   -1.694869    4.148160
     95          1           0        8.147376   -4.869880    0.386891
     96          1           0        6.912033   -5.789280   -0.234048
     97          1           0        7.031652   -5.600633    1.606719
     98          1           0        2.199252   -3.381047   -1.427794
     99          1           0       -0.810878   -2.909096    1.625139
    100          1           0        0.190026   -4.218217    2.249596
    101          1           0       -0.969971   -4.567684    0.883269
    102          1           0       -3.961661   -2.129443    1.003366
    103          1           0       -3.724776   -3.544017   -0.162465
    104          1           0       -5.062315   -1.149820   -1.242024
    105          1           0       -7.573970   -4.056948   -0.012899
    106          1           0       -5.883402   -4.182108    0.791214
    107          1           0       -6.216910   -4.812280   -0.866522
    108          1           0       -7.931193   -2.800543   -2.160480
    109          1           0       -7.110492   -1.331729   -2.254606
    110          1           0       -8.396485   -1.516805    0.463040
    111          1           0       -9.361193   -2.393030   -0.690186
    112          1           0       -8.498530    0.163351   -1.843299
    113          1           0       -9.456626    0.384580   -0.398759
    114          1           0      -10.776488   -1.800630   -1.870775
    115          1           0      -10.576434   -0.131494   -4.130544
    116          1           0      -10.051224   -1.764414   -4.040043
    117          1           0       -8.920836   -0.382130   -3.732863
    118          1           0      -12.159487    0.307995   -2.786564
    119          1           0      -11.118546    1.189137   -1.790562
    120          1           0      -12.207110    0.791817    0.204905
    121          1           0      -12.464974   -0.913142   -0.076614
    122          1           0      -14.409010   -0.732321   -0.471832
    123          1           0      -14.223347    0.171018   -1.907657
    124          1           0      -13.942603    2.198137   -0.405172
    125          1           0      -16.734099    2.323596   -0.581923
    126          1           0      -16.405667    0.957658   -1.492678
    127          1           0      -15.787662    2.526039   -1.971259
    128          1           0      -14.798293    0.221055    1.461603
    129          1           0      -16.186545    1.200351    1.425216
    130          1           0      -15.257519    2.565424    2.950512
    131          1           0      -14.387494    3.240867    1.614707
    132          1           0      -12.769781    1.120848    2.461493
    133          1           0      -13.596781    1.382392    3.893408
    134          1           0      -12.779158    3.991066    2.731941
    135          1           0      -10.507274    4.016872    2.510661
    136          1           0      -11.050597    2.664841    1.609554
    137          1           0      -10.342245    2.260129    3.084954
    138          1           0      -11.180674    3.009316    5.026671
    139          1           0      -12.895992    3.012651    5.423052
    140          1           0      -12.152448    4.513999    4.850786
 ---------------------------------------------------------------------

 SCF Done:  E(RCAM-B3LYP) =  -3007.15369648     A.U. after   17 cycles

 Excitation energies and oscillator strengths:

 Excited State   1:      Singlet-A      1.6419 eV  755.15 nm  f=0.3733  <S**2>=0.000
     245 -> 248       -0.16658
     246 -> 247        0.68802
     245 <- 248       -0.10648
 This state for optimization and/or second-order correction.
 Total Energy, E(TD-HF/TD-DFT) =  -3007.09335933
 Copying the excited state density for this state as the 1-particle RhoCI density.

 Excited State   2:      Singlet-A      2.2132 eV  560.20 nm  f=0.1276  <S**2>=0.000
     245 -> 247        0.64117
     246 -> 248        0.28382

 Excited State   3:      Singlet-A      3.4238 eV  362.12 nm  f=0.0522  <S**2>=0.000
     241 -> 247        0.13641
     241 -> 249        0.12712
     241 -> 250       -0.12167
     242 -> 247        0.48706
     242 -> 249        0.23859
     242 -> 250       -0.19980
     243 -> 247        0.17319
     246 -> 248       -0.21213

 Excited State   4:      Singlet-A      3.4905 eV  355.20 nm  f=0.5168  <S**2>=0.000
     239 -> 247       -0.11722
     240 -> 247       -0.10837
     242 -> 247        0.21270
     245 -> 247       -0.24624
     246 -> 248        0.57407

 Excited State   5:      Singlet-A      3.5349 eV  350.75 nm  f=0.0036  <S**2>=0.000
     240 -> 247        0.11392
     241 -> 247       -0.29008
     243 -> 247        0.59519

 The electronic state is 1-A.
 Alpha  occ. eigenvalues --  -46.88337 -19.25574 -19.24660 -19.20724 -19.19093
 Alpha  occ. eigenvalues --  -19.19009 -19.17961 -14.42388 -14.41294 -14.40717
 Alpha  occ. eigenvalues --  -14.38999 -10.40805 -10.39093 -10.34916 -10.34348
 Alpha  occ. eigenvalues --  -10.32013 -10.31809 -10.31690 -10.31426 -10.30912
 Alpha  occ. eigenvalues --  -10.30589 -10.30476 -10.30299 -10.29940 -10.28847
 Alpha  occ. eigenvalues --  -10.28781 -10.28457 -10.28286 -10.28221 -10.28182
 Alpha  occ. eigenvalues --  -10.28128 -10.27895 -10.27869 -10.27812 -10.27594
 Alpha  occ. eigenvalues --  -10.27194 -10.26837 -10.26796 -10.26713 -10.26546
 Alpha  occ. eigenvalues --  -10.26292 -10.26261 -10.26170 -10.26088 -10.25917
 Alpha  occ. eigenvalues --  -10.25875 -10.25803 -10.25704 -10.25369 -10.25206
 Alpha  occ. eigenvalues --  -10.25134 -10.25130 -10.25083 -10.25067 -10.25043
 Alpha  occ. eigenvalues --  -10.24798 -10.24793 -10.24758 -10.24638 -10.24586
 Alpha  occ. eigenvalues --  -10.24380 -10.24320 -10.24245 -10.24146 -10.24081
 Alpha  occ. eigenvalues --  -10.23984  -3.16992  -1.91900  -1.91429  -1.91323
 Alpha  occ. eigenvalues --   -1.16097  -1.15692  -1.11046  -1.08202  -1.07440
 Alpha  occ. eigenvalues --   -1.06179  -1.05216  -1.04461  -1.03771  -1.02482
 Alpha  occ. eigenvalues --   -0.92446  -0.91053  -0.89957  -0.89492  -0.88790
 Alpha  occ. eigenvalues --   -0.88635  -0.88333  -0.87700  -0.87602  -0.86778
 Alpha  occ. eigenvalues --   -0.85727  -0.85298  -0.84174  -0.83241  -0.83203
 Alpha  occ. eigenvalues --   -0.82426  -0.82041  -0.81448  -0.80615  -0.80225
 Alpha  occ. eigenvalues --   -0.79951  -0.78672  -0.77903  -0.77157  -0.76363
 Alpha  occ. eigenvalues --   -0.75941  -0.75201  -0.75136  -0.74687  -0.74298
 Alpha  occ. eigenvalues --   -0.73530  -0.72393  -0.71383  -0.70246  -0.69207
 Alpha  occ. eigenvalues --   -0.68875  -0.68271  -0.67734  -0.66540  -0.65947
 Alpha  occ. eigenvalues --   -0.65882  -0.65724  -0.64426  -0.64393  -0.64328
 Alpha  occ. eigenvalues --   -0.63566  -0.63061  -0.62846  -0.61973  -0.59986
 Alpha  occ. eigenvalues --   -0.59681  -0.59451  -0.59206  -0.58621  -0.57553
 Alpha  occ. eigenvalues --   -0.57187  -0.57012  -0.56296  -0.55951  -0.55524
 Alpha  occ. eigenvalues --   -0.54983  -0.54478  -0.54258  -0.53716  -0.53584
 Alpha  occ. eigenvalues --   -0.53495  -0.53188  -0.53163  -0.53044  -0.52699
 Alpha  occ. eigenvalues --   -0.52455  -0.52375  -0.51955  -0.51820  -0.51696
 Alpha  occ. eigenvalues --   -0.51546  -0.51480  -0.51094  -0.50955  -0.50850
 Alpha  occ. eigenvalues --   -0.50516  -0.50333  -0.49853  -0.49745  -0.49713
 Alpha  occ. eigenvalues --   -0.49581  -0.49289  -0.49098  -0.48893  -0.48664
 Alpha  occ. eigenvalues --   -0.48523  -0.48252  -0.48136  -0.47748  -0.47703
 Alpha  occ. eigenvalues --   -0.47401  -0.47336  -0.46866  -0.46685  -0.46477
 Alpha  occ. eigenvalues --   -0.46217  -0.45901  -0.45797  -0.45717  -0.45683
 Alpha  occ. eigenvalues --   -0.45429  -0.45403  -0.45338  -0.45144  -0.44720
 Alpha  occ. eigenvalues --   -0.44401  -0.44268  -0.44193  -0.43978  -0.43685
 Alpha  occ. eigenvalues --   -0.43612  -0.43473  -0.43345  -0.43223  -0.43103
 Alpha  occ. eigenvalues --   -0.42821  -0.42759  -0.42489  -0.42368  -0.42227
 Alpha  occ. eigenvalues --   -0.41768  -0.41660  -0.41457  -0.41279  -0.41038
 Alpha  occ. eigenvalues --   -0.40839  -0.40809  -0.40246  -0.40153  -0.40034
 Alpha  occ. eigenvalues --   -0.39967  -0.39762  -0.39254  -0.39177  -0.39094
 Alpha  occ. eigenvalues --   -0.38705  -0.38264  -0.38066  -0.37539  -0.37335
 Alpha  occ. eigenvalues --   -0.36866  -0.36373  -0.36206  -0.36117  -0.36058
 Alpha  occ. eigenvalues --   -0.35847  -0.35502  -0.34881  -0.34705  -0.34468
 Alpha  occ. eigenvalues --   -0.34387  -0.33396  -0.32736  -0.31602  -0.31356
 Alpha  occ. eigenvalues --   -0.30756  -0.30079  -0.29633  -0.29428  -0.23980
 Alpha  occ. eigenvalues --   -0.20816
 Alpha virt. eigenvalues --   -0.08748  -0.01402  -0.00194   0.02047   0.03809
 Alpha virt. eigenvalues --    0.04545   0.05062   0.05306   0.06307   0.07050
 Alpha virt. eigenvalues --    0.08060   0.08201   0.08454   0.09052   0.09221

 Mulliken charges:
               1
     1  Mg   0.856287
     2  C   -0.005282
     3  C   -0.081705
     4  C   -0.058946
     5  C   -0.092488
     6  N   -0.243441
     7  C   -0.034274
     8  C   -0.025893
     9  C   -0.039024
    10  C   -0.028622
    11  C    0.078233
    12  C    0.104335
    13  C   -0.015893
    14  C    0.209734
    15  O   -0.219118
    16  O   -0.352615
    17  N   -0.382074
    18  C    0.181374
    19  C   -0.156136
    20  C   -0.010208
    21  C    0.125403
    22  C    0.120974
    23  C   -0.030855
    24  O   -0.185756
    25  C    0.049026
    26  N   -0.286958
    27  C    0.002205
    28  C   -0.026290
    29  C   -0.012463
    30  C    0.052051
    31  C    0.080244
    32  C    0.049444
    33  C   -0.025832
    34  N   -0.341503
    35  C    0.090482
    36  C   -0.209674
    37  C    0.080181
    38  C    0.101948
    39  C    0.139031
    40  C    0.016039
    41  O   -0.212058
    42  C    0.001525
    43  C    0.200990
    44  O   -0.257144
    45  O   -0.320833
    46  C    0.165145
    47  C    0.292412
    48  C   -0.158312
    49  C   -0.161707
    50  C    0.115116
    51  C    0.067623
    52  C    0.009516
    53  C    0.080884
    54  C   -0.167506
    55  C    0.034879
    56  C    0.052154
    57  C    0.039141
    58  C    0.010963
    59  C   -0.114545
    60  C    0.036220
    61  C    0.061212
    62  C    0.000859
    63  C    0.069337
    64  C   -0.142667
    65  C    0.033493
    66  C    0.062551
    67  H   -0.025960
    68  H   -0.010859
    69  H   -0.030214
    70  H    0.000654
    71  H   -0.004132
    72  H    0.028392
    73  H    0.027929
    74  H    0.013095
    75  H    0.001349
    76  H    0.041970
    77  H    0.038592
    78  H    0.031813
    79  H    0.003529
    80  H    0.041269
    81  H    0.039593
    82  H    0.037031
    83  H    0.028591
    84  H    0.021829
    85  H    0.024221
    86  H    0.002588
    87  H    0.016542
    88  H    0.027986
    89  H    0.002457
    90  H    0.030918
    91  H    0.019449
    92  H    0.014347
    93  H    0.015852
    94  H    0.013148
    95  H   -0.013097
    96  H    0.021727
    97  H    0.052239
    98  H    0.022480
    99  H    0.049438
   100  H    0.052552
   101  H    0.037908
   102  H    0.041372
   103  H    0.019013
   104  H   -0.015865
   105  H    0.010552
   106  H    0.032323
   107  H    0.032145
   108  H   -0.012502
   109  H    0.003519
   110  H    0.001746
   111  H    0.004978
   112  H   -0.003738
   113  H    0.001104
   114  H    0.001951
   115  H   -0.005957
   116  H    0.011210
   117  H    0.007707
   118  H   -0.001337
   119  H   -0.015481
   120  H    0.010929
   121  H   -0.005226
   122  H   -0.015126
   123  H   -0.011604
   124  H   -0.008084
   125  H   -0.004257
   126  H   -0.003442
   127  H    0.007498
   128  H   -0.017632
   129  H   -0.008003
   130  H   -0.008256
   131  H    0.005602
   132  H   -0.018295
   133  H   -0.011162
   134  H   -0.000815
   135  H    0.013268
   136  H   -0.013018
   137  H    0.010891
   138  H    0.005966
   139  H    0.005304
   140  H    0.006303
 Sum of Mulliken charges =  -0.00000

 Dipole moment (field-independent basis, Debye):
    X=             -1.9416    Y=              3.8206    Z=             -4.1222  Tot=              5.9464
 Quadrupole moment (field-independent basis, Debye-Ang):
   XX=           -367.1813   YY=           -410.2772   ZZ=           -402.8271
   XY=             13.0405   XZ=             -5.4000   YZ=            -12.8420

 Normal termination of Gaussian 16 at Wed May  4 05:16:14 2022.
