 Gaussian 16, Revision A.03,
 Gaussian 16:  ES64L-G16RevA.03 25-Dec-2016

 ---------------------------------
 #p PBE1PBE/Def2SVP td=(nstates=5)
 ---------------------------------

 ------------------------------------------------------
 step_1401_chromophore_22 TDDFT with PBE1PBE functional
 ------------------------------------------------------
 Symbolic Z-matrix:
 Charge =  0 Multiplicity = 1

                         Standard orientation:
 ---------------------------------------------------------------------
 Center     Atomic      Atomic             Coordinates (Angstroms)
 Number     Number       Type             X           Y           Z
 ---------------------------------------------------------------------
      1         12           0        6.223544    0.419452   -0.044725
      2          6           0        3.624086   -1.899838   -0.599561
      3          6           0        4.236392    2.814491   -1.659583
      4          6           0        8.768023    2.569885    0.160246
      5          6           0        8.340939   -2.127719    0.845383
      6          7           0        4.097942    0.478022   -0.849082
      7          6           0        3.206361   -0.590662   -0.914938
      8          6           0        1.911807   -0.196141   -1.573986
      9          6           0        2.342556    1.013546   -2.347986
     10          6           0        3.617363    1.491825   -1.562094
     11          6           0        2.709304    0.645653   -3.844924
     12          6           0        0.753010   -0.043747   -0.569091
     13          6           0       -0.587102   -0.689951   -0.995871
     14          6           0       -1.764393   -1.046091    0.041971
     15          8           0       -1.883030   -0.698777    1.209228
     16          8           0       -2.665848   -1.885436   -0.616105
     17          7           0        6.393131    2.397612   -0.541189
     18          6           0        5.449337    3.261670   -1.083410
     19          6           0        5.946898    4.668876   -1.074027
     20          6           0        7.268397    4.664123   -0.513676
     21          6           0        7.491302    3.170411   -0.255638
     22          6           0        5.182218    5.871474   -1.592448
     23          6           0        8.262073    5.645308   -0.128938
     24          8           0        9.259852    5.405438    0.515516
     25          6           0        7.905134    7.074450   -0.448088
     26          7           0        8.214571    0.314000    0.564118
     27          6           0        9.122484    1.297394    0.459566
     28          6           0       10.535379    0.928892    0.967012
     29          6           0       10.260380   -0.568802    1.386003
     30          6           0        8.856284   -0.804199    0.872945
     31          6           0       11.697885    1.313008    0.044308
     32          6           0       10.343937   -0.723033    2.924195
     33          6           0       11.247740   -1.965926    3.373623
     34          7           0        6.068446   -1.607041    0.185749
     35          6           0        7.020181   -2.511696    0.431284
     36          6           0        6.440419   -3.821332    0.356492
     37          6           0        5.083028   -3.652935    0.053739
     38          6           0        4.916213   -2.251579   -0.080274
     39          6           0        7.118396   -5.143632    0.620861
     40          6           0        3.853103   -4.298096   -0.183000
     41          8           0        3.527276   -5.508072   -0.127180
     42          6           0        2.815096   -3.174067   -0.552480
     43          6           0        1.831812   -3.234835    0.605020
     44          8           0        2.108662   -2.733639    1.719724
     45          8           0        0.582113   -3.614218    0.220443
     46          6           0       -0.311293   -3.840533    1.358185
     47          6           0       -3.832621   -2.467862   -0.024371
     48          6           0       -5.139152   -2.108548   -0.728375
     49          6           0       -6.284887   -2.761588   -0.768322
     50          6           0       -6.488551   -4.076855   -0.108896
     51          6           0       -7.405820   -2.086557   -1.526161
     52          6           0       -8.606651   -1.611246   -0.602128
     53          6           0       -9.171506   -0.346919   -1.154687
     54          6           0      -10.384283   -0.795422   -2.026023
     55          6           0       -9.917157   -0.792332   -3.567522
     56          6           0      -11.579114    0.204906   -1.869090
     57          6           0      -12.472466    0.063208   -0.561087
     58          6           0      -13.960356    0.186306   -0.850319
     59          6           0      -14.702369    1.427417   -0.268810
     60          6           0      -15.911186    1.855195   -1.121241
     61          6           0      -15.109349    1.246262    1.261136
     62          6           0      -14.502967    2.328747    2.200112
     63          6           0      -13.280292    1.920160    2.999434
     64          6           0      -12.352082    3.141800    3.265402
     65          6           0      -10.962479    3.033592    2.631221
     66          6           0      -12.147451    3.429427    4.748865
     67          1           0        3.665395    3.498428   -2.290150
     68          1           0        9.627194    3.202271    0.390989
     69          1           0        8.971631   -2.984561    1.090828
     70          1           0        1.690680   -1.047077   -2.217393
     71          1           0        1.715200    1.898379   -2.240495
     72          1           0        2.042000    1.200078   -4.503359
     73          1           0        2.788957   -0.405542   -4.124380
     74          1           0        3.740479    0.967574   -3.993302
     75          1           0        0.571031    1.025459   -0.465995
     76          1           0        1.016005   -0.422202    0.418674
     77          1           0       -0.398837   -1.615320   -1.539290
     78          1           0       -1.008128    0.026102   -1.701645
     79          1           0        4.215079    5.562279   -1.990226
     80          1           0        5.656992    6.384401   -2.428750
     81          1           0        5.010221    6.485401   -0.708832
     82          1           0        6.980421    7.299000    0.082788
     83          1           0        7.830141    7.228039   -1.524984
     84          1           0        8.737509    7.705464   -0.136883
     85          1           0       10.573747    1.514805    1.884987
     86          1           0       10.948155   -1.173857    0.794937
     87          1           0       12.467003    0.576309   -0.189555
     88          1           0       12.080366    2.293143    0.328225
     89          1           0       11.408262    1.525730   -0.983723
     90          1           0        9.372858   -0.907952    3.383607
     91          1           0       10.856667    0.135485    3.358785
     92          1           0       11.807452   -2.451980    2.574628
     93          1           0       10.591122   -2.710686    3.821993
     94          1           0       11.965330   -1.694869    4.148160
     95          1           0        8.147376   -4.869880    0.386891
     96          1           0        6.912033   -5.789280   -0.234048
     97          1           0        7.031652   -5.600633    1.606719
     98          1           0        2.199252   -3.381047   -1.427794
     99          1           0       -0.810878   -2.909096    1.625139
    100          1           0        0.190026   -4.218217    2.249596
    101          1           0       -0.969971   -4.567684    0.883269
    102          1           0       -3.961661   -2.129443    1.003366
    103          1           0       -3.724776   -3.544017   -0.162465
    104          1           0       -5.062315   -1.149820   -1.242024
    105          1           0       -7.573970   -4.056948   -0.012899
    106          1           0       -5.883402   -4.182108    0.791214
    107          1           0       -6.216910   -4.812280   -0.866522
    108          1           0       -7.931193   -2.800543   -2.160480
    109          1           0       -7.110492   -1.331729   -2.254606
    110          1           0       -8.396485   -1.516805    0.463040
    111          1           0       -9.361193   -2.393030   -0.690186
    112          1           0       -8.498530    0.163351   -1.843299
    113          1           0       -9.456626    0.384580   -0.398759
    114          1           0      -10.776488   -1.800630   -1.870775
    115          1           0      -10.576434   -0.131494   -4.130544
    116          1           0      -10.051224   -1.764414   -4.040043
    117          1           0       -8.920836   -0.382130   -3.732863
    118          1           0      -12.159487    0.307995   -2.786564
    119          1           0      -11.118546    1.189137   -1.790562
    120          1           0      -12.207110    0.791817    0.204905
    121          1           0      -12.464974   -0.913142   -0.076614
    122          1           0      -14.409010   -0.732321   -0.471832
    123          1           0      -14.223347    0.171018   -1.907657
    124          1           0      -13.942603    2.198137   -0.405172
    125          1           0      -16.734099    2.323596   -0.581923
    126          1           0      -16.405667    0.957658   -1.492678
    127          1           0      -15.787662    2.526039   -1.971259
    128          1           0      -14.798293    0.221055    1.461603
    129          1           0      -16.186545    1.200351    1.425216
    130          1           0      -15.257519    2.565424    2.950512
    131          1           0      -14.387494    3.240867    1.614707
    132          1           0      -12.769781    1.120848    2.461493
    133          1           0      -13.596781    1.382392    3.893408
    134          1           0      -12.779158    3.991066    2.731941
    135          1           0      -10.507274    4.016872    2.510661
    136          1           0      -11.050597    2.664841    1.609554
    137          1           0      -10.342245    2.260129    3.084954
    138          1           0      -11.180674    3.009316    5.026671
    139          1           0      -12.895992    3.012651    5.423052
    140          1           0      -12.152448    4.513999    4.850786
 ---------------------------------------------------------------------

 SCF Done:  E(RPBE1PBE) =  -3005.34262564     A.U. after   15 cycles

 Excitation energies and oscillator strengths:

 Excited State   1:      Singlet-A      1.7855 eV  694.40 nm  f=0.3553  <S**2>=0.000
     245 -> 248       -0.16429
     246 -> 247        0.69683
     246 <- 247       -0.11825
 This state for optimization and/or second-order correction.
 Total Energy, E(TD-HF/TD-DFT) =  -3005.27701033
 Copying the excited state density for this state as the 1-particle RhoCI density.

 Excited State   2:      Singlet-A      2.2056 eV  562.13 nm  f=0.1321  <S**2>=0.000
     245 -> 247        0.65583
     246 -> 248        0.25283

 Excited State   3:      Singlet-A      2.9165 eV  425.11 nm  f=0.0005  <S**2>=0.000
     243 -> 247        0.66193
     243 -> 249       -0.16895
     243 -> 250        0.10987

 Excited State   4:      Singlet-A      3.0708 eV  403.76 nm  f=0.0006  <S**2>=0.000
     241 -> 247        0.65473
     241 -> 249        0.18123
     242 -> 247        0.12531

 Excited State   5:      Singlet-A      3.1609 eV  392.25 nm  f=0.0001  <S**2>=0.000
     240 -> 247       -0.12952
     241 -> 247       -0.13463
     242 -> 247        0.67202

 The electronic state is 1-A.
 Alpha  occ. eigenvalues --  -46.91768 -19.26233 -19.25396 -19.21012 -19.19312
 Alpha  occ. eigenvalues --  -19.19101 -19.18393 -14.41758 -14.40944 -14.40262
 Alpha  occ. eigenvalues --  -14.38776 -10.37884 -10.36186 -10.31789 -10.31646
 Alpha  occ. eigenvalues --  -10.29420 -10.29282 -10.29263 -10.28863 -10.28501
 Alpha  occ. eigenvalues --  -10.28211 -10.28160 -10.27780 -10.27524 -10.26837
 Alpha  occ. eigenvalues --  -10.26506 -10.26427 -10.25965 -10.25803 -10.25735
 Alpha  occ. eigenvalues --  -10.25717 -10.25617 -10.25442 -10.25327 -10.25125
 Alpha  occ. eigenvalues --  -10.25077 -10.24745 -10.24419 -10.24303 -10.24255
 Alpha  occ. eigenvalues --  -10.24215 -10.24039 -10.23801 -10.23459 -10.23417
 Alpha  occ. eigenvalues --  -10.23389 -10.23354 -10.23025 -10.23013 -10.22875
 Alpha  occ. eigenvalues --  -10.22742 -10.22736 -10.22723 -10.22630 -10.22624
 Alpha  occ. eigenvalues --  -10.22369 -10.22355 -10.22264 -10.22170 -10.22110
 Alpha  occ. eigenvalues --  -10.22030 -10.21911 -10.21820 -10.21712 -10.21537
 Alpha  occ. eigenvalues --  -10.21351  -3.14000  -1.86851  -1.86357  -1.86255
 Alpha  occ. eigenvalues --   -1.10903  -1.10525  -1.05577  -1.03096  -1.02298
 Alpha  occ. eigenvalues --   -1.01018  -0.99960  -0.99133  -0.98549  -0.96961
 Alpha  occ. eigenvalues --   -0.86911  -0.85195  -0.84216  -0.83579  -0.82918
 Alpha  occ. eigenvalues --   -0.82916  -0.82566  -0.81881  -0.81719  -0.81127
 Alpha  occ. eigenvalues --   -0.80162  -0.79500  -0.78322  -0.77639  -0.77401
 Alpha  occ. eigenvalues --   -0.76586  -0.76195  -0.75656  -0.74927  -0.74587
 Alpha  occ. eigenvalues --   -0.74116  -0.72742  -0.72187  -0.71512  -0.70562
 Alpha  occ. eigenvalues --   -0.70298  -0.69575  -0.69219  -0.68831  -0.68477
 Alpha  occ. eigenvalues --   -0.67840  -0.66882  -0.65800  -0.64563  -0.63610
 Alpha  occ. eigenvalues --   -0.63333  -0.62534  -0.62167  -0.60822  -0.60394
 Alpha  occ. eigenvalues --   -0.60320  -0.59898  -0.59067  -0.58885  -0.58550
 Alpha  occ. eigenvalues --   -0.57724  -0.57602  -0.57004  -0.56582  -0.54457
 Alpha  occ. eigenvalues --   -0.54194  -0.53819  -0.53754  -0.53252  -0.52230
 Alpha  occ. eigenvalues --   -0.51601  -0.51435  -0.50745  -0.50428  -0.50053
 Alpha  occ. eigenvalues --   -0.49600  -0.49088  -0.48839  -0.48315  -0.48161
 Alpha  occ. eigenvalues --   -0.47795  -0.47628  -0.47505  -0.47449  -0.47304
 Alpha  occ. eigenvalues --   -0.47194  -0.46810  -0.46486  -0.46385  -0.46255
 Alpha  occ. eigenvalues --   -0.46047  -0.46011  -0.45717  -0.45455  -0.45368
 Alpha  occ. eigenvalues --   -0.45138  -0.44957  -0.44421  -0.44341  -0.44183
 Alpha  occ. eigenvalues --   -0.44133  -0.43925  -0.43671  -0.43544  -0.43172
 Alpha  occ. eigenvalues --   -0.43112  -0.42865  -0.42762  -0.42473  -0.42312
 Alpha  occ. eigenvalues --   -0.42141  -0.41879  -0.41541  -0.41416  -0.41111
 Alpha  occ. eigenvalues --   -0.40916  -0.40602  -0.40494  -0.40442  -0.40280
 Alpha  occ. eigenvalues --   -0.40188  -0.40149  -0.40064  -0.39848  -0.39582
 Alpha  occ. eigenvalues --   -0.39176  -0.38935  -0.38886  -0.38799  -0.38412
 Alpha  occ. eigenvalues --   -0.38346  -0.38234  -0.38074  -0.37974  -0.37901
 Alpha  occ. eigenvalues --   -0.37559  -0.37495  -0.37301  -0.37183  -0.37057
 Alpha  occ. eigenvalues --   -0.36644  -0.36427  -0.36370  -0.36150  -0.35961
 Alpha  occ. eigenvalues --   -0.35722  -0.35612  -0.35075  -0.34926  -0.34889
 Alpha  occ. eigenvalues --   -0.34720  -0.34712  -0.34103  -0.34015  -0.33849
 Alpha  occ. eigenvalues --   -0.33544  -0.33300  -0.32838  -0.32367  -0.32364
 Alpha  occ. eigenvalues --   -0.31927  -0.31367  -0.31199  -0.31037  -0.30886
 Alpha  occ. eigenvalues --   -0.30822  -0.30417  -0.29945  -0.29802  -0.29402
 Alpha  occ. eigenvalues --   -0.29286  -0.28449  -0.28137  -0.27073  -0.26253
 Alpha  occ. eigenvalues --   -0.25932  -0.25476  -0.25147  -0.24719  -0.20883
 Alpha  occ. eigenvalues --   -0.18477
 Alpha virt. eigenvalues --   -0.11207  -0.04964  -0.04355  -0.02319  -0.00112
 Alpha virt. eigenvalues --    0.00442   0.00903   0.01628   0.02557   0.02589
 Alpha virt. eigenvalues --    0.03718   0.04747   0.04845   0.05639   0.05880

 Mulliken charges:
               1
     1  Mg   1.010313
     2  C   -0.012722
     3  C   -0.077492
     4  C   -0.050183
     5  C   -0.071183
     6  N   -0.344520
     7  C    0.040441
     8  C   -0.099010
     9  C   -0.129341
    10  C    0.016004
    11  C    0.025059
    12  C    0.060325
    13  C   -0.088873
    14  C    0.272243
    15  O   -0.253787
    16  O   -0.384965
    17  N   -0.493593
    18  C    0.195586
    19  C   -0.182354
    20  C   -0.051913
    21  C    0.156227
    22  C    0.061426
    23  C    0.015570
    24  O   -0.227036
    25  C   -0.024574
    26  N   -0.392665
    27  C    0.032368
    28  C   -0.101037
    29  C   -0.091844
    30  C    0.080202
    31  C    0.022168
    32  C   -0.008017
    33  C   -0.095331
    34  N   -0.476609
    35  C    0.117994
    36  C   -0.225527
    37  C    0.039235
    38  C    0.159655
    39  C    0.085811
    40  C    0.095237
    41  O   -0.255327
    42  C   -0.109626
    43  C    0.292875
    44  O   -0.287145
    45  O   -0.353400
    46  C    0.108724
    47  C    0.254615
    48  C   -0.161261
    49  C   -0.210418
    50  C    0.045462
    51  C    0.007835
    52  C   -0.056297
    53  C    0.025093
    54  C   -0.251655
    55  C   -0.021350
    56  C   -0.001483
    57  C   -0.032069
    58  C   -0.038519
    59  C   -0.202656
    60  C   -0.022918
    61  C    0.010878
    62  C   -0.067650
    63  C    0.018201
    64  C   -0.236984
    65  C   -0.033609
    66  C    0.002113
    67  H    0.005381
    68  H    0.021969
    69  H    0.003060
    70  H    0.039860
    71  H    0.031499
    72  H    0.055552
    73  H    0.053086
    74  H    0.041868
    75  H    0.035415
    76  H    0.074327
    77  H    0.068969
    78  H    0.064369
    79  H    0.030915
    80  H    0.066403
    81  H    0.066244
    82  H    0.063814
    83  H    0.055301
    84  H    0.048736
    85  H    0.061804
    86  H    0.039761
    87  H    0.043316
    88  H    0.054385
    89  H    0.030836
    90  H    0.062563
    91  H    0.052495
    92  H    0.040904
    93  H    0.043251
    94  H    0.041314
    95  H    0.016225
    96  H    0.051708
    97  H    0.079371
    98  H    0.058284
    99  H    0.075027
   100  H    0.073883
   101  H    0.059593
   102  H    0.067133
   103  H    0.045995
   104  H    0.014979
   105  H    0.040771
   106  H    0.058507
   107  H    0.060885
   108  H    0.023069
   109  H    0.032265
   110  H    0.034031
   111  H    0.037570
   112  H    0.029207
   113  H    0.033946
   114  H    0.038642
   115  H    0.021648
   116  H    0.038294
   117  H    0.033794
   118  H    0.028971
   119  H    0.018662
   120  H    0.050587
   121  H    0.026520
   122  H    0.017664
   123  H    0.021100
   124  H    0.031122
   125  H    0.023566
   126  H    0.024521
   127  H    0.034882
   128  H    0.014924
   129  H    0.023324
   130  H    0.025932
   131  H    0.036731
   132  H    0.015804
   133  H    0.020742
   134  H    0.036682
   135  H    0.041640
   136  H    0.019650
   137  H    0.038042
   138  H    0.032948
   139  H    0.032555
   140  H    0.034488
 Sum of Mulliken charges =  -0.00000

 Dipole moment (field-independent basis, Debye):
    X=             -1.9009    Y=              3.1843    Z=             -3.9833  Tot=              5.4424
 Quadrupole moment (field-independent basis, Debye-Ang):
   XX=           -359.9902   YY=           -408.3616   ZZ=           -400.0521
   XY=              8.6955   XZ=             -3.4511   YZ=            -13.0434

 Normal termination of Gaussian 16 at Wed May  4 05:34:28 2022.
