 Gaussian 16, Revision A.03,
 Gaussian 16:  ES64L-G16RevA.03 25-Dec-2016

 --------------------------------
 #p wB97XD/Def2SVP td=(nstates=5)
 --------------------------------

 -----------------------------------------------------
 step_1401_chromophore_22 TDDFT with wB97XD functional
 -----------------------------------------------------
 Symbolic Z-matrix:
 Charge =  0 Multiplicity = 1

                         Standard orientation:
 ---------------------------------------------------------------------
 Center     Atomic      Atomic             Coordinates (Angstroms)
 Number     Number       Type             X           Y           Z
 ---------------------------------------------------------------------
      1         12           0        6.223544    0.419452   -0.044725
      2          6           0        3.624086   -1.899838   -0.599561
      3          6           0        4.236392    2.814491   -1.659583
      4          6           0        8.768023    2.569885    0.160246
      5          6           0        8.340939   -2.127719    0.845383
      6          7           0        4.097942    0.478022   -0.849082
      7          6           0        3.206361   -0.590662   -0.914938
      8          6           0        1.911807   -0.196141   -1.573986
      9          6           0        2.342556    1.013546   -2.347986
     10          6           0        3.617363    1.491825   -1.562094
     11          6           0        2.709304    0.645653   -3.844924
     12          6           0        0.753010   -0.043747   -0.569091
     13          6           0       -0.587102   -0.689951   -0.995871
     14          6           0       -1.764393   -1.046091    0.041971
     15          8           0       -1.883030   -0.698777    1.209228
     16          8           0       -2.665848   -1.885436   -0.616105
     17          7           0        6.393131    2.397612   -0.541189
     18          6           0        5.449337    3.261670   -1.083410
     19          6           0        5.946898    4.668876   -1.074027
     20          6           0        7.268397    4.664123   -0.513676
     21          6           0        7.491302    3.170411   -0.255638
     22          6           0        5.182218    5.871474   -1.592448
     23          6           0        8.262073    5.645308   -0.128938
     24          8           0        9.259852    5.405438    0.515516
     25          6           0        7.905134    7.074450   -0.448088
     26          7           0        8.214571    0.314000    0.564118
     27          6           0        9.122484    1.297394    0.459566
     28          6           0       10.535379    0.928892    0.967012
     29          6           0       10.260380   -0.568802    1.386003
     30          6           0        8.856284   -0.804199    0.872945
     31          6           0       11.697885    1.313008    0.044308
     32          6           0       10.343937   -0.723033    2.924195
     33          6           0       11.247740   -1.965926    3.373623
     34          7           0        6.068446   -1.607041    0.185749
     35          6           0        7.020181   -2.511696    0.431284
     36          6           0        6.440419   -3.821332    0.356492
     37          6           0        5.083028   -3.652935    0.053739
     38          6           0        4.916213   -2.251579   -0.080274
     39          6           0        7.118396   -5.143632    0.620861
     40          6           0        3.853103   -4.298096   -0.183000
     41          8           0        3.527276   -5.508072   -0.127180
     42          6           0        2.815096   -3.174067   -0.552480
     43          6           0        1.831812   -3.234835    0.605020
     44          8           0        2.108662   -2.733639    1.719724
     45          8           0        0.582113   -3.614218    0.220443
     46          6           0       -0.311293   -3.840533    1.358185
     47          6           0       -3.832621   -2.467862   -0.024371
     48          6           0       -5.139152   -2.108548   -0.728375
     49          6           0       -6.284887   -2.761588   -0.768322
     50          6           0       -6.488551   -4.076855   -0.108896
     51          6           0       -7.405820   -2.086557   -1.526161
     52          6           0       -8.606651   -1.611246   -0.602128
     53          6           0       -9.171506   -0.346919   -1.154687
     54          6           0      -10.384283   -0.795422   -2.026023
     55          6           0       -9.917157   -0.792332   -3.567522
     56          6           0      -11.579114    0.204906   -1.869090
     57          6           0      -12.472466    0.063208   -0.561087
     58          6           0      -13.960356    0.186306   -0.850319
     59          6           0      -14.702369    1.427417   -0.268810
     60          6           0      -15.911186    1.855195   -1.121241
     61          6           0      -15.109349    1.246262    1.261136
     62          6           0      -14.502967    2.328747    2.200112
     63          6           0      -13.280292    1.920160    2.999434
     64          6           0      -12.352082    3.141800    3.265402
     65          6           0      -10.962479    3.033592    2.631221
     66          6           0      -12.147451    3.429427    4.748865
     67          1           0        3.665395    3.498428   -2.290150
     68          1           0        9.627194    3.202271    0.390989
     69          1           0        8.971631   -2.984561    1.090828
     70          1           0        1.690680   -1.047077   -2.217393
     71          1           0        1.715200    1.898379   -2.240495
     72          1           0        2.042000    1.200078   -4.503359
     73          1           0        2.788957   -0.405542   -4.124380
     74          1           0        3.740479    0.967574   -3.993302
     75          1           0        0.571031    1.025459   -0.465995
     76          1           0        1.016005   -0.422202    0.418674
     77          1           0       -0.398837   -1.615320   -1.539290
     78          1           0       -1.008128    0.026102   -1.701645
     79          1           0        4.215079    5.562279   -1.990226
     80          1           0        5.656992    6.384401   -2.428750
     81          1           0        5.010221    6.485401   -0.708832
     82          1           0        6.980421    7.299000    0.082788
     83          1           0        7.830141    7.228039   -1.524984
     84          1           0        8.737509    7.705464   -0.136883
     85          1           0       10.573747    1.514805    1.884987
     86          1           0       10.948155   -1.173857    0.794937
     87          1           0       12.467003    0.576309   -0.189555
     88          1           0       12.080366    2.293143    0.328225
     89          1           0       11.408262    1.525730   -0.983723
     90          1           0        9.372858   -0.907952    3.383607
     91          1           0       10.856667    0.135485    3.358785
     92          1           0       11.807452   -2.451980    2.574628
     93          1           0       10.591122   -2.710686    3.821993
     94          1           0       11.965330   -1.694869    4.148160
     95          1           0        8.147376   -4.869880    0.386891
     96          1           0        6.912033   -5.789280   -0.234048
     97          1           0        7.031652   -5.600633    1.606719
     98          1           0        2.199252   -3.381047   -1.427794
     99          1           0       -0.810878   -2.909096    1.625139
    100          1           0        0.190026   -4.218217    2.249596
    101          1           0       -0.969971   -4.567684    0.883269
    102          1           0       -3.961661   -2.129443    1.003366
    103          1           0       -3.724776   -3.544017   -0.162465
    104          1           0       -5.062315   -1.149820   -1.242024
    105          1           0       -7.573970   -4.056948   -0.012899
    106          1           0       -5.883402   -4.182108    0.791214
    107          1           0       -6.216910   -4.812280   -0.866522
    108          1           0       -7.931193   -2.800543   -2.160480
    109          1           0       -7.110492   -1.331729   -2.254606
    110          1           0       -8.396485   -1.516805    0.463040
    111          1           0       -9.361193   -2.393030   -0.690186
    112          1           0       -8.498530    0.163351   -1.843299
    113          1           0       -9.456626    0.384580   -0.398759
    114          1           0      -10.776488   -1.800630   -1.870775
    115          1           0      -10.576434   -0.131494   -4.130544
    116          1           0      -10.051224   -1.764414   -4.040043
    117          1           0       -8.920836   -0.382130   -3.732863
    118          1           0      -12.159487    0.307995   -2.786564
    119          1           0      -11.118546    1.189137   -1.790562
    120          1           0      -12.207110    0.791817    0.204905
    121          1           0      -12.464974   -0.913142   -0.076614
    122          1           0      -14.409010   -0.732321   -0.471832
    123          1           0      -14.223347    0.171018   -1.907657
    124          1           0      -13.942603    2.198137   -0.405172
    125          1           0      -16.734099    2.323596   -0.581923
    126          1           0      -16.405667    0.957658   -1.492678
    127          1           0      -15.787662    2.526039   -1.971259
    128          1           0      -14.798293    0.221055    1.461603
    129          1           0      -16.186545    1.200351    1.425216
    130          1           0      -15.257519    2.565424    2.950512
    131          1           0      -14.387494    3.240867    1.614707
    132          1           0      -12.769781    1.120848    2.461493
    133          1           0      -13.596781    1.382392    3.893408
    134          1           0      -12.779158    3.991066    2.731941
    135          1           0      -10.507274    4.016872    2.510661
    136          1           0      -11.050597    2.664841    1.609554
    137          1           0      -10.342245    2.260129    3.084954
    138          1           0      -11.180674    3.009316    5.026671
    139          1           0      -12.895992    3.012651    5.423052
    140          1           0      -12.152448    4.513999    4.850786
 ---------------------------------------------------------------------

 SCF Done:  E(RwB97XD) =  -3007.85168198     A.U. after   18 cycles

 Excitation energies and oscillator strengths:

 Excited State   1:      Singlet-A      1.5929 eV  778.37 nm  f=0.3722  <S**2>=0.000
     245 -> 248       -0.17122
     246 -> 247        0.68538
     245 <- 248       -0.11488
 This state for optimization and/or second-order correction.
 Total Energy, E(TD-HF/TD-DFT) =  -3007.79314494
 Copying the excited state density for this state as the 1-particle RhoCI density.

 Excited State   2:      Singlet-A      2.1591 eV  574.23 nm  f=0.1231  <S**2>=0.000
     245 -> 247        0.63876
     246 -> 248        0.28671

 Excited State   3:      Singlet-A      3.4637 eV  357.95 nm  f=0.0994  <S**2>=0.000
     242 -> 247        0.45546
     242 -> 248       -0.10214
     242 -> 249        0.25886
     242 -> 250       -0.22238
     243 -> 247        0.18690
     245 -> 247        0.11886
     246 -> 248       -0.27318

 Excited State   4:      Singlet-A      3.5068 eV  353.56 nm  f=0.4838  <S**2>=0.000
     239 -> 247       -0.13419
     241 -> 247       -0.15771
     242 -> 247        0.24118
     245 -> 247       -0.23082
     246 -> 248        0.54000

 Excited State   5:      Singlet-A      3.5679 eV  347.50 nm  f=0.0057  <S**2>=0.000
     240 -> 247        0.37603
     240 -> 249       -0.25143
     240 -> 250       -0.12381
     241 -> 247       -0.24923
     243 -> 247        0.40679

 The electronic state is 1-A.
 Alpha  occ. eigenvalues --  -46.94676 -19.30758 -19.29913 -19.25667 -19.24174
 Alpha  occ. eigenvalues --  -19.23940 -19.22997 -14.47013 -14.45836 -14.45369
 Alpha  occ. eigenvalues --  -14.43540 -10.44671 -10.42939 -10.38909 -10.38338
 Alpha  occ. eigenvalues --  -10.35968 -10.35893 -10.35770 -10.35582 -10.34755
 Alpha  occ. eigenvalues --  -10.34656 -10.34587 -10.34243 -10.33984 -10.32845
 Alpha  occ. eigenvalues --  -10.32777 -10.32438 -10.32394 -10.32311 -10.32161
 Alpha  occ. eigenvalues --  -10.32151 -10.32055 -10.31903 -10.31863 -10.31653
 Alpha  occ. eigenvalues --  -10.31220 -10.30758 -10.30742 -10.30717 -10.30471
 Alpha  occ. eigenvalues --  -10.30280 -10.30275 -10.30144 -10.29908 -10.29827
 Alpha  occ. eigenvalues --  -10.29759 -10.29742 -10.29687 -10.29302 -10.29186
 Alpha  occ. eigenvalues --  -10.29089 -10.29013 -10.29003 -10.28973 -10.28904
 Alpha  occ. eigenvalues --  -10.28722 -10.28682 -10.28663 -10.28557 -10.28481
 Alpha  occ. eigenvalues --  -10.28285 -10.28172 -10.28135 -10.28052 -10.27968
 Alpha  occ. eigenvalues --  -10.27780  -3.20754  -1.94355  -1.93863  -1.93758
 Alpha  occ. eigenvalues --   -1.18251  -1.17880  -1.13312  -1.10414  -1.09619
 Alpha  occ. eigenvalues --   -1.08343  -1.07198  -1.06467  -1.05781  -1.04584
 Alpha  occ. eigenvalues --   -0.94404  -0.92855  -0.91830  -0.91245  -0.90569
 Alpha  occ. eigenvalues --   -0.90567  -0.90232  -0.89677  -0.89372  -0.88712
 Alpha  occ. eigenvalues --   -0.87641  -0.87180  -0.85991  -0.85150  -0.85117
 Alpha  occ. eigenvalues --   -0.84292  -0.83943  -0.83318  -0.82529  -0.82184
 Alpha  occ. eigenvalues --   -0.81774  -0.80678  -0.79789  -0.79040  -0.78211
 Alpha  occ. eigenvalues --   -0.77855  -0.77163  -0.76914  -0.76505  -0.76135
 Alpha  occ. eigenvalues --   -0.75443  -0.74367  -0.73348  -0.72198  -0.71202
 Alpha  occ. eigenvalues --   -0.70769  -0.70143  -0.69758  -0.68425  -0.67892
 Alpha  occ. eigenvalues --   -0.67782  -0.67553  -0.66420  -0.66350  -0.66210
 Alpha  occ. eigenvalues --   -0.65371  -0.65043  -0.64657  -0.63934  -0.61990
 Alpha  occ. eigenvalues --   -0.61652  -0.61337  -0.61201  -0.60594  -0.59544
 Alpha  occ. eigenvalues --   -0.59086  -0.58948  -0.58247  -0.57911  -0.57464
 Alpha  occ. eigenvalues --   -0.56963  -0.56409  -0.56210  -0.55648  -0.55510
 Alpha  occ. eigenvalues --   -0.55453  -0.55150  -0.55076  -0.54884  -0.54627
 Alpha  occ. eigenvalues --   -0.54414  -0.54226  -0.53848  -0.53712  -0.53572
 Alpha  occ. eigenvalues --   -0.53478  -0.53355  -0.52995  -0.52902  -0.52740
 Alpha  occ. eigenvalues --   -0.52406  -0.52241  -0.51763  -0.51739  -0.51609
 Alpha  occ. eigenvalues --   -0.51469  -0.51202  -0.50965  -0.50797  -0.50639
 Alpha  occ. eigenvalues --   -0.50409  -0.50237  -0.50073  -0.49666  -0.49622
 Alpha  occ. eigenvalues --   -0.49342  -0.49190  -0.48774  -0.48589  -0.48370
 Alpha  occ. eigenvalues --   -0.48148  -0.47806  -0.47662  -0.47597  -0.47534
 Alpha  occ. eigenvalues --   -0.47324  -0.47300  -0.47228  -0.47020  -0.46641
 Alpha  occ. eigenvalues --   -0.46337  -0.46149  -0.46124  -0.45866  -0.45592
 Alpha  occ. eigenvalues --   -0.45512  -0.45401  -0.45274  -0.45180  -0.45048
 Alpha  occ. eigenvalues --   -0.44764  -0.44667  -0.44430  -0.44277  -0.44122
 Alpha  occ. eigenvalues --   -0.43741  -0.43527  -0.43332  -0.43203  -0.42933
 Alpha  occ. eigenvalues --   -0.42705  -0.42692  -0.42124  -0.42035  -0.41949
 Alpha  occ. eigenvalues --   -0.41817  -0.41649  -0.41093  -0.41069  -0.40915
 Alpha  occ. eigenvalues --   -0.40578  -0.40147  -0.39903  -0.39375  -0.39239
 Alpha  occ. eigenvalues --   -0.38858  -0.38398  -0.38177  -0.38013  -0.37902
 Alpha  occ. eigenvalues --   -0.37825  -0.37331  -0.36740  -0.36661  -0.36377
 Alpha  occ. eigenvalues --   -0.36255  -0.35314  -0.34984  -0.33847  -0.33344
 Alpha  occ. eigenvalues --   -0.32940  -0.32072  -0.31760  -0.31446  -0.25903
 Alpha  occ. eigenvalues --   -0.22632
 Alpha virt. eigenvalues --   -0.07102   0.00518   0.01842   0.04144   0.06707
 Alpha virt. eigenvalues --    0.06991   0.07359   0.07940   0.08890   0.09271
 Alpha virt. eigenvalues --    0.10528   0.11455   0.11533   0.12350   0.12623

 Mulliken charges:
               1
     1  Mg   0.998754
     2  C   -0.011302
     3  C   -0.092969
     4  C   -0.071438
     5  C   -0.095451
     6  N   -0.309557
     7  C    0.003042
     8  C   -0.066564
     9  C   -0.097483
    10  C   -0.001603
    11  C    0.032219
    12  C    0.067204
    13  C   -0.069350
    14  C    0.257268
    15  O   -0.248398
    16  O   -0.382188
    17  N   -0.464730
    18  C    0.194267
    19  C   -0.170949
    20  C   -0.050970
    21  C    0.151290
    22  C    0.073783
    23  C    0.015942
    24  O   -0.218352
    25  C   -0.013015
    26  N   -0.362731
    27  C    0.027347
    28  C   -0.073671
    29  C   -0.066136
    30  C    0.071750
    31  C    0.030229
    32  C    0.003277
    33  C   -0.078952
    34  N   -0.434903
    35  C    0.107451
    36  C   -0.226701
    37  C    0.039606
    38  C    0.135338
    39  C    0.098863
    40  C    0.082941
    41  O   -0.247619
    42  C   -0.067387
    43  C    0.264582
    44  O   -0.282370
    45  O   -0.350246
    46  C    0.125310
    47  C    0.266885
    48  C   -0.173562
    49  C   -0.194268
    50  C    0.059453
    51  C    0.027684
    52  C   -0.038792
    53  C    0.042610
    54  C   -0.226576
    55  C   -0.009006
    56  C    0.018281
    57  C   -0.005950
    58  C   -0.023536
    59  C   -0.172236
    60  C   -0.011191
    61  C    0.023030
    62  C   -0.046676
    63  C    0.029664
    64  C   -0.205803
    65  C   -0.017133
    66  C    0.013626
    67  H    0.000622
    68  H    0.015395
    69  H   -0.004494
    70  H    0.022527
    71  H    0.022415
    72  H    0.051166
    73  H    0.049548
    74  H    0.034242
    75  H    0.027288
    76  H    0.066006
    77  H    0.061188
    78  H    0.057656
    79  H    0.027387
    80  H    0.063889
    81  H    0.061886
    82  H    0.057694
    83  H    0.050491
    84  H    0.048614
    85  H    0.049901
    86  H    0.028735
    87  H    0.039495
    88  H    0.049359
    89  H    0.024130
    90  H    0.055310
    91  H    0.043243
    92  H    0.034228
    93  H    0.037079
    94  H    0.035409
    95  H    0.006839
    96  H    0.045793
    97  H    0.075022
    98  H    0.052675
    99  H    0.066711
   100  H    0.070793
   101  H    0.057241
   102  H    0.063251
   103  H    0.040394
   104  H    0.011333
   105  H    0.033567
   106  H    0.054292
   107  H    0.055732
   108  H    0.012888
   109  H    0.022715
   110  H    0.027492
   111  H    0.025563
   112  H    0.017250
   113  H    0.026310
   114  H    0.026254
   115  H    0.015347
   116  H    0.033410
   117  H    0.026557
   118  H    0.019109
   119  H    0.008195
   120  H    0.026445
   121  H    0.019047
   122  H    0.008562
   123  H    0.011120
   124  H    0.015980
   125  H    0.017241
   126  H    0.016980
   127  H    0.030379
   128  H    0.004467
   129  H    0.016882
   130  H    0.018144
   131  H    0.026090
   132  H    0.002841
   133  H    0.014230
   134  H    0.024785
   135  H    0.036390
   136  H    0.010091
   137  H    0.031276
   138  H    0.026031
   139  H    0.026961
   140  H    0.028981
 Sum of Mulliken charges =  -0.00000

 Dipole moment (field-independent basis, Debye):
    X=             -1.9559    Y=              4.0287    Z=             -4.1925  Tot=              6.1346
 Quadrupole moment (field-independent basis, Debye-Ang):
   XX=           -362.0840   YY=           -405.4428   ZZ=           -399.6471
   XY=             14.4995   XZ=             -5.0452   YZ=            -13.5023

 Normal termination of Gaussian 16 at Wed May  4 06:01:06 2022.
