 Gaussian 16, Revision A.03,
 Gaussian 16:  ES64L-G16RevA.03 25-Dec-2016

 --------------------
 #p ZINDO=(nstates=5)
 --------------------

 ------------------------------
 step_1401_chromophore_22 ZINDO
 ------------------------------
 Symbolic Z-matrix:
 Charge =  0 Multiplicity = 1

                         Standard orientation:
 ---------------------------------------------------------------------
 Center     Atomic      Atomic             Coordinates (Angstroms)
 Number     Number       Type             X           Y           Z
 ---------------------------------------------------------------------
      1         12           0        6.223544    0.419452   -0.044725
      2          6           0        3.624086   -1.899838   -0.599561
      3          6           0        4.236392    2.814491   -1.659583
      4          6           0        8.768023    2.569885    0.160246
      5          6           0        8.340939   -2.127719    0.845383
      6          7           0        4.097942    0.478022   -0.849082
      7          6           0        3.206361   -0.590662   -0.914938
      8          6           0        1.911807   -0.196141   -1.573986
      9          6           0        2.342556    1.013546   -2.347986
     10          6           0        3.617363    1.491825   -1.562094
     11          6           0        2.709304    0.645653   -3.844924
     12          6           0        0.753010   -0.043747   -0.569091
     13          6           0       -0.587102   -0.689951   -0.995871
     14          6           0       -1.764393   -1.046091    0.041971
     15          8           0       -1.883030   -0.698777    1.209228
     16          8           0       -2.665848   -1.885436   -0.616105
     17          7           0        6.393131    2.397612   -0.541189
     18          6           0        5.449337    3.261670   -1.083410
     19          6           0        5.946898    4.668876   -1.074027
     20          6           0        7.268397    4.664123   -0.513676
     21          6           0        7.491302    3.170411   -0.255638
     22          6           0        5.182218    5.871474   -1.592448
     23          6           0        8.262073    5.645308   -0.128938
     24          8           0        9.259852    5.405438    0.515516
     25          6           0        7.905134    7.074450   -0.448088
     26          7           0        8.214571    0.314000    0.564118
     27          6           0        9.122484    1.297394    0.459566
     28          6           0       10.535379    0.928892    0.967012
     29          6           0       10.260380   -0.568802    1.386003
     30          6           0        8.856284   -0.804199    0.872945
     31          6           0       11.697885    1.313008    0.044308
     32          6           0       10.343937   -0.723033    2.924195
     33          6           0       11.247740   -1.965926    3.373623
     34          7           0        6.068446   -1.607041    0.185749
     35          6           0        7.020181   -2.511696    0.431284
     36          6           0        6.440419   -3.821332    0.356492
     37          6           0        5.083028   -3.652935    0.053739
     38          6           0        4.916213   -2.251579   -0.080274
     39          6           0        7.118396   -5.143632    0.620861
     40          6           0        3.853103   -4.298096   -0.183000
     41          8           0        3.527276   -5.508072   -0.127180
     42          6           0        2.815096   -3.174067   -0.552480
     43          6           0        1.831812   -3.234835    0.605020
     44          8           0        2.108662   -2.733639    1.719724
     45          8           0        0.582113   -3.614218    0.220443
     46          6           0       -0.311293   -3.840533    1.358185
     47          6           0       -3.832621   -2.467862   -0.024371
     48          6           0       -5.139152   -2.108548   -0.728375
     49          6           0       -6.284887   -2.761588   -0.768322
     50          6           0       -6.488551   -4.076855   -0.108896
     51          6           0       -7.405820   -2.086557   -1.526161
     52          6           0       -8.606651   -1.611246   -0.602128
     53          6           0       -9.171506   -0.346919   -1.154687
     54          6           0      -10.384283   -0.795422   -2.026023
     55          6           0       -9.917157   -0.792332   -3.567522
     56          6           0      -11.579114    0.204906   -1.869090
     57          6           0      -12.472466    0.063208   -0.561087
     58          6           0      -13.960356    0.186306   -0.850319
     59          6           0      -14.702369    1.427417   -0.268810
     60          6           0      -15.911186    1.855195   -1.121241
     61          6           0      -15.109349    1.246262    1.261136
     62          6           0      -14.502967    2.328747    2.200112
     63          6           0      -13.280292    1.920160    2.999434
     64          6           0      -12.352082    3.141800    3.265402
     65          6           0      -10.962479    3.033592    2.631221
     66          6           0      -12.147451    3.429427    4.748865
     67          1           0        3.665395    3.498428   -2.290150
     68          1           0        9.627194    3.202271    0.390989
     69          1           0        8.971631   -2.984561    1.090828
     70          1           0        1.690680   -1.047077   -2.217393
     71          1           0        1.715200    1.898379   -2.240495
     72          1           0        2.042000    1.200078   -4.503359
     73          1           0        2.788957   -0.405542   -4.124380
     74          1           0        3.740479    0.967574   -3.993302
     75          1           0        0.571031    1.025459   -0.465995
     76          1           0        1.016005   -0.422202    0.418674
     77          1           0       -0.398837   -1.615320   -1.539290
     78          1           0       -1.008128    0.026102   -1.701645
     79          1           0        4.215079    5.562279   -1.990226
     80          1           0        5.656992    6.384401   -2.428750
     81          1           0        5.010221    6.485401   -0.708832
     82          1           0        6.980421    7.299000    0.082788
     83          1           0        7.830141    7.228039   -1.524984
     84          1           0        8.737509    7.705464   -0.136883
     85          1           0       10.573747    1.514805    1.884987
     86          1           0       10.948155   -1.173857    0.794937
     87          1           0       12.467003    0.576309   -0.189555
     88          1           0       12.080366    2.293143    0.328225
     89          1           0       11.408262    1.525730   -0.983723
     90          1           0        9.372858   -0.907952    3.383607
     91          1           0       10.856667    0.135485    3.358785
     92          1           0       11.807452   -2.451980    2.574628
     93          1           0       10.591122   -2.710686    3.821993
     94          1           0       11.965330   -1.694869    4.148160
     95          1           0        8.147376   -4.869880    0.386891
     96          1           0        6.912033   -5.789280   -0.234048
     97          1           0        7.031652   -5.600633    1.606719
     98          1           0        2.199252   -3.381047   -1.427794
     99          1           0       -0.810878   -2.909096    1.625139
    100          1           0        0.190026   -4.218217    2.249596
    101          1           0       -0.969971   -4.567684    0.883269
    102          1           0       -3.961661   -2.129443    1.003366
    103          1           0       -3.724776   -3.544017   -0.162465
    104          1           0       -5.062315   -1.149820   -1.242024
    105          1           0       -7.573970   -4.056948   -0.012899
    106          1           0       -5.883402   -4.182108    0.791214
    107          1           0       -6.216910   -4.812280   -0.866522
    108          1           0       -7.931193   -2.800543   -2.160480
    109          1           0       -7.110492   -1.331729   -2.254606
    110          1           0       -8.396485   -1.516805    0.463040
    111          1           0       -9.361193   -2.393030   -0.690186
    112          1           0       -8.498530    0.163351   -1.843299
    113          1           0       -9.456626    0.384580   -0.398759
    114          1           0      -10.776488   -1.800630   -1.870775
    115          1           0      -10.576434   -0.131494   -4.130544
    116          1           0      -10.051224   -1.764414   -4.040043
    117          1           0       -8.920836   -0.382130   -3.732863
    118          1           0      -12.159487    0.307995   -2.786564
    119          1           0      -11.118546    1.189137   -1.790562
    120          1           0      -12.207110    0.791817    0.204905
    121          1           0      -12.464974   -0.913142   -0.076614
    122          1           0      -14.409010   -0.732321   -0.471832
    123          1           0      -14.223347    0.171018   -1.907657
    124          1           0      -13.942603    2.198137   -0.405172
    125          1           0      -16.734099    2.323596   -0.581923
    126          1           0      -16.405667    0.957658   -1.492678
    127          1           0      -15.787662    2.526039   -1.971259
    128          1           0      -14.798293    0.221055    1.461603
    129          1           0      -16.186545    1.200351    1.425216
    130          1           0      -15.257519    2.565424    2.950512
    131          1           0      -14.387494    3.240867    1.614707
    132          1           0      -12.769781    1.120848    2.461493
    133          1           0      -13.596781    1.382392    3.893408
    134          1           0      -12.779158    3.991066    2.731941
    135          1           0      -10.507274    4.016872    2.510661
    136          1           0      -11.050597    2.664841    1.609554
    137          1           0      -10.342245    2.260129    3.084954
    138          1           0      -11.180674    3.009316    5.026671
    139          1           0      -12.895992    3.012651    5.423052
    140          1           0      -12.152448    4.513999    4.850786
 ---------------------------------------------------------------------

 SCF Done:  E(RZINDO/S) =  -474.288111246     A.U. after   19 cycles

 Excitation energies and oscillator strengths:

 Excited State   1:      Singlet-A      1.2273 eV 1010.22 nm  f=0.5721  <S**2>=0.000
     175 ->178         0.16467
     176 ->177         0.66661
 This state for optimization and/or second-order correction.
 Total Energy, E(CIS/TDA) =  -474.243008908
 Copying the excited state density for this state as the 1-particle RhoCI density.

 Excited State   2:      Singlet-A      1.9095 eV  649.31 nm  f=0.0391  <S**2>=0.000
     175 ->177         0.53472
     176 ->178        -0.42290

 Excited State   3:      Singlet-A      2.8253 eV  438.83 nm  f=0.2723  <S**2>=0.000
     175 ->177         0.21977
     176 ->178         0.38686
     176 ->179         0.45043
     176 ->180         0.20196

 Excited State   4:      Singlet-A      2.8869 eV  429.47 nm  f=0.1644  <S**2>=0.000
     168 ->177         0.31155
     168 ->179        -0.39338
     168 ->180         0.19693
     168 ->185        -0.17523
     168 ->189         0.11437
     175 ->177         0.17745
     176 ->178         0.21519
     176 ->179        -0.13432

 Excited State   5:      Singlet-A      2.9873 eV  415.04 nm  f=0.5260  <S**2>=0.000
     168 ->177         0.14503
     168 ->179        -0.18954
     175 ->177        -0.27801
     176 ->178        -0.27518
     176 ->179         0.46300

 The electronic state is 1-A.
 Alpha  occ. eigenvalues --   -1.85430  -1.82887  -1.80136  -1.72591  -1.71582
 Alpha  occ. eigenvalues --   -1.69302  -1.65040  -1.61871  -1.61085  -1.58252
 Alpha  occ. eigenvalues --   -1.55243  -1.51619  -1.47752  -1.46465  -1.45707
 Alpha  occ. eigenvalues --   -1.44061  -1.41552  -1.39697  -1.39101  -1.38095
 Alpha  occ. eigenvalues --   -1.34669  -1.33162  -1.32632  -1.32039  -1.28165
 Alpha  occ. eigenvalues --   -1.27676  -1.24740  -1.22891  -1.21070  -1.17960
 Alpha  occ. eigenvalues --   -1.16356  -1.15682  -1.14912  -1.14439  -1.12803
 Alpha  occ. eigenvalues --   -1.12398  -1.11878  -1.10618  -1.05083  -1.03479
 Alpha  occ. eigenvalues --   -1.03373  -1.01627  -0.98083  -0.96966  -0.96466
 Alpha  occ. eigenvalues --   -0.95803  -0.94958  -0.94464  -0.92907  -0.91956
 Alpha  occ. eigenvalues --   -0.91089  -0.90722  -0.90679  -0.88505  -0.88257
 Alpha  occ. eigenvalues --   -0.86143  -0.84028  -0.82725  -0.81802  -0.80095
 Alpha  occ. eigenvalues --   -0.79307  -0.79119  -0.76846  -0.76010  -0.75253
 Alpha  occ. eigenvalues --   -0.74519  -0.74001  -0.73665  -0.73144  -0.72896
 Alpha  occ. eigenvalues --   -0.72505  -0.72032  -0.71544  -0.71030  -0.70816
 Alpha  occ. eigenvalues --   -0.70424  -0.70267  -0.69043  -0.68752  -0.68245
 Alpha  occ. eigenvalues --   -0.68073  -0.67649  -0.66773  -0.66108  -0.65774
 Alpha  occ. eigenvalues --   -0.65409  -0.64747  -0.64407  -0.63899  -0.63429
 Alpha  occ. eigenvalues --   -0.63024  -0.62903  -0.62540  -0.62325  -0.62186
 Alpha  occ. eigenvalues --   -0.61548  -0.61354  -0.60978  -0.60651  -0.59964
 Alpha  occ. eigenvalues --   -0.59165  -0.58920  -0.58382  -0.58139  -0.57998
 Alpha  occ. eigenvalues --   -0.57883  -0.57399  -0.56892  -0.56518  -0.56124
 Alpha  occ. eigenvalues --   -0.55826  -0.55672  -0.55461  -0.55315  -0.54823
 Alpha  occ. eigenvalues --   -0.54511  -0.54310  -0.53635  -0.53550  -0.52758
 Alpha  occ. eigenvalues --   -0.52578  -0.51997  -0.51740  -0.51403  -0.51229
 Alpha  occ. eigenvalues --   -0.50734  -0.50556  -0.50469  -0.50236  -0.49918
 Alpha  occ. eigenvalues --   -0.49882  -0.49240  -0.49145  -0.48786  -0.48642
 Alpha  occ. eigenvalues --   -0.48370  -0.47773  -0.47688  -0.47620  -0.47522
 Alpha  occ. eigenvalues --   -0.47444  -0.47198  -0.46961  -0.46600  -0.46494
 Alpha  occ. eigenvalues --   -0.46143  -0.45881  -0.45682  -0.45580  -0.45305
 Alpha  occ. eigenvalues --   -0.45254  -0.44415  -0.43878  -0.43721  -0.43558
 Alpha  occ. eigenvalues --   -0.43015  -0.42695  -0.42470  -0.42408  -0.42031
 Alpha  occ. eigenvalues --   -0.41095  -0.40555  -0.40128  -0.39153  -0.37999
 Alpha  occ. eigenvalues --   -0.37471  -0.36849  -0.35717  -0.34312  -0.34273
 Alpha  occ. eigenvalues --   -0.34030  -0.32135  -0.32024  -0.31695  -0.26532
 Alpha  occ. eigenvalues --   -0.21410
 Alpha virt. eigenvalues --   -0.08369  -0.01965  -0.00922   0.01005   0.02056
 Alpha virt. eigenvalues --    0.02797   0.03192   0.03360   0.04960   0.05721
 Alpha virt. eigenvalues --    0.06051   0.06748   0.06883   0.07245   0.08037

 Mulliken charges:
               1
     1  Mg   0.429407
     2  C   -0.020492
     3  C   -0.084078
     4  C   -0.094399
     5  C   -0.099710
     6  N   -0.269608
     7  C    0.081755
     8  C    0.016459
     9  C    0.014314
    10  C    0.147134
    11  C   -0.052102
    12  C   -0.017975
    13  C    0.005281
    14  C    0.466310
    15  O   -0.501757
    16  O   -0.288200
    17  N   -0.317157
    18  C    0.120952
    19  C    0.034147
    20  C   -0.052297
    21  C    0.153362
    22  C   -0.039905
    23  C    0.343460
    24  O   -0.514021
    25  C   -0.035496
    26  N   -0.271273
    27  C    0.162476
    28  C   -0.001292
    29  C    0.006031
    30  C    0.126391
    31  C   -0.052303
    32  C   -0.026505
    33  C   -0.068808
    34  N   -0.294993
    35  C    0.089297
    36  C    0.008241
    37  C   -0.051738
    38  C    0.088149
    39  C   -0.049653
    40  C    0.337151
    41  O   -0.552214
    42  C    0.057381
    43  C    0.484157
    44  O   -0.536722
    45  O   -0.263493
    46  C    0.071718
    47  C    0.107235
    48  C   -0.094861
    49  C   -0.005265
    50  C   -0.045292
    51  C   -0.024810
    52  C   -0.028839
    53  C   -0.025804
    54  C   -0.016910
    55  C   -0.072058
    56  C   -0.041531
    57  C   -0.038694
    58  C   -0.035624
    59  C   -0.010074
    60  C   -0.060808
    61  C   -0.038386
    62  C   -0.031351
    63  C   -0.028138
    64  C   -0.008633
    65  C   -0.056588
    66  C   -0.054730
    67  H    0.026069
    68  H    0.040091
    69  H    0.028123
    70  H    0.021555
    71  H    0.030877
    72  H    0.023886
    73  H    0.033330
    74  H    0.019618
    75  H    0.020456
    76  H    0.044626
    77  H    0.039021
    78  H    0.034833
    79  H    0.020267
    80  H    0.038245
    81  H    0.039271
    82  H    0.043155
    83  H    0.032933
    84  H    0.033687
    85  H    0.037189
    86  H    0.032455
    87  H    0.027955
    88  H    0.027085
    89  H    0.013067
    90  H    0.036239
    91  H    0.024862
    92  H    0.021800
    93  H    0.017336
    94  H    0.017196
    95  H    0.008528
    96  H    0.030618
    97  H    0.049594
    98  H    0.048182
    99  H    0.053247
   100  H    0.056119
   101  H    0.029590
   102  H    0.059524
   103  H    0.040797
   104  H    0.020929
   105  H    0.029674
   106  H    0.037610
   107  H    0.033020
   108  H    0.012103
   109  H    0.030946
   110  H    0.020726
   111  H    0.019094
   112  H    0.024939
   113  H    0.018770
   114  H    0.030691
   115  H    0.011935
   116  H    0.018609
   117  H    0.024123
   118  H    0.024365
   119  H    0.009000
   120  H    0.025169
   121  H    0.019345
   122  H    0.009497
   123  H    0.014649
   124  H    0.018387
   125  H    0.010514
   126  H    0.010556
   127  H    0.020287
   128  H    0.017285
   129  H    0.019302
   130  H    0.009206
   131  H    0.024562
   132  H    0.014100
   133  H    0.019558
   134  H    0.020784
   135  H    0.022160
   136  H    0.001050
   137  H    0.023457
   138  H    0.021122
   139  H    0.018288
   140  H    0.016534
 Sum of Mulliken charges =  -0.00000

 Dipole moment (field-independent basis, Debye):
    X=             -2.2985    Y=              7.1996    Z=             -8.1952  Tot=             11.1480
 N-N= 4.219978983215D+03 E-N= 0.000000000000D+00  KE=-9.114837296809D+03
 Leave Link  601 at Wed May  4 06:13:10 2022, MaxMem=  6710886400 cpu:               0.7 elap:               0.0
 (Enter /sw/apps/gaussian-16.0/g16/l9999.exe)
 1\1\GINC-BP1-COMPUTE089\SP\RZINDO CIS\STO-3G\C55H74Mg1N4O6\OF15641\04-
 May-2022\0\\#p ZINDO=(nstates=5)\\step_1401_chromophore_22 ZINDO\\0,1\
 Mg,0,8.761,47.918,25.179\C,0,6.825,48.088,28.123\C,0,11.383,49.379,26.
 991\C,0,10.531,48.083,22.354\C,0,5.956,47.186,23.346\N,0,9.106,48.475,
 27.356\C,0,8.174,48.4,28.389\C,0,8.736,48.92,29.685\C,0,9.857,49.781,2
 9.185\C,0,10.164,49.164,27.772\C,0,9.412,51.296,29.053\C,0,9.071,47.79
 5,30.684\C,0,8.614,48.042,32.142\C,0,8.449,46.864,33.226\O,0,8.832,45.

 Normal termination of Gaussian 16 at Wed May  4 06:13:10 2022.
