 Gaussian 16, Revision A.03,
 Gaussian 16:  ES64L-G16RevA.03 25-Dec-2016

 ------------------------------
 #p blyp/Def2SVP td=(nstates=5)
 ------------------------------

 --------------------------------------------------
 step_601_chromophore_22 TDDFT with blyp functional
 --------------------------------------------------
 Symbolic Z-matrix:
 Charge =  0 Multiplicity = 1

                         Standard orientation:
 ---------------------------------------------------------------------
 Center     Atomic      Atomic             Coordinates (Angstroms)
 Number     Number       Type             X           Y           Z
 ---------------------------------------------------------------------
      1         12           0        6.341656    0.578872   -0.059834
      2          6           0        3.942677   -1.919149   -0.791485
      3          6           0        4.100545    2.882481   -1.044741
      4          6           0        8.632046    2.874342    0.411341
      5          6           0        8.666864   -1.969477    0.468153
      6          7           0        4.327151    0.427924   -0.906728
      7          6           0        3.458199   -0.604217   -0.912967
      8          6           0        2.083814   -0.173435   -1.414123
      9          6           0        2.384182    1.251220   -1.803898
     10          6           0        3.693078    1.594965   -1.234449
     11          6           0        2.299780    1.520623   -3.383709
     12          6           0        0.846612   -0.308681   -0.437038
     13          6           0       -0.289427   -1.335389   -0.758389
     14          6           0       -1.219177   -1.874047    0.435354
     15          8           0       -0.853571   -2.159153    1.521154
     16          8           0       -2.516615   -1.928401   -0.035021
     17          7           0        6.340142    2.688110   -0.213980
     18          6           0        5.293408    3.430771   -0.577287
     19          6           0        5.694812    4.818246   -0.534132
     20          6           0        7.018365    4.886289   -0.115260
     21          6           0        7.410253    3.450522    0.004823
     22          6           0        4.742851    5.952634   -0.758432
     23          6           0        7.904197    6.063059    0.278905
     24          8           0        9.124695    5.906387    0.490094
     25          6           0        7.377935    7.483538    0.196791
     26          7           0        8.414972    0.466444    0.117953
     27          6           0        9.097846    1.579077    0.434974
     28          6           0       10.493950    1.227063    0.971128
     29          6           0       10.491218   -0.235768    1.101407
     30          6           0        9.088091   -0.650738    0.648653
     31          6           0       11.626032    1.737573    0.115602
     32          6           0       10.809470   -0.710173    2.590654
     33          6           0       11.457434   -2.105310    2.756705
     34          7           0        6.370775   -1.534883   -0.162989
     35          6           0        7.415033   -2.414962   -0.016846
     36          6           0        6.980270   -3.786640   -0.221580
     37          6           0        5.604952   -3.632386   -0.469140
     38          6           0        5.327200   -2.289483   -0.549684
     39          6           0        7.724226   -5.058196    0.154114
     40          6           0        4.356226   -4.327264   -0.674059
     41          8           0        4.099113   -5.556146   -0.672557
     42          6           0        3.206611   -3.235072   -0.961487
     43          6           0        2.131259   -3.554712   -0.010488
     44          8           0        2.061084   -3.046108    1.137481
     45          8           0        1.359300   -4.615107   -0.498863
     46          6           0        0.353669   -5.203884    0.460516
     47          6           0       -3.570398   -1.965785    1.036380
     48          6           0       -4.840447   -1.587334    0.374464
     49          6           0       -5.841019   -2.268353   -0.210191
     50          6           0       -6.107984   -3.729182   -0.113189
     51          6           0       -6.882761   -1.482744   -0.927797
     52          6           0       -8.438486   -1.608303   -0.589994
     53          6           0       -8.942452   -0.152665   -0.474168
     54          6           0      -10.455403   -0.006695   -0.731448
     55          6           0      -10.665822   -0.017321   -2.217464
     56          6           0      -10.917042    1.285644    0.031396
     57          6           0      -11.563288    1.130209    1.380595
     58          6           0      -12.644380    2.139364    1.765870
     59          6           0      -13.891088    1.507470    2.408944
     60          6           0      -13.634562    1.478720    3.938511
     61          6           0      -15.167469    2.341669    2.090059
     62          6           0      -16.168628    1.605147    1.147447
     63          6           0      -15.867573    1.948457   -0.285253
     64          6           0      -14.965396    1.004975   -1.113453
     65          6           0      -14.611989    1.551772   -2.492959
     66          6           0      -15.606148   -0.430164   -1.137463
     67          1           0        3.360519    3.604039   -1.398114
     68          1           0        9.391655    3.619084    0.657801
     69          1           0        9.480039   -2.687970    0.590556
     70          1           0        1.884407   -0.870419   -2.227956
     71          1           0        1.649277    1.927829   -1.367301
     72          1           0        2.320118    2.577342   -3.649387
     73          1           0        1.372160    1.123120   -3.794821
     74          1           0        3.181140    1.105847   -3.873800
     75          1           0        0.379982    0.650944   -0.213394
     76          1           0        1.302432   -0.643412    0.494105
     77          1           0        0.013452   -2.142883   -1.425918
     78          1           0       -0.883542   -0.684884   -1.400716
     79          1           0        3.842755    5.591509   -1.255388
     80          1           0        5.152696    6.685897   -1.454118
     81          1           0        4.423998    6.461426    0.151154
     82          1           0        6.398368    7.489793    0.672925
     83          1           0        7.382153    7.706642   -0.870543
     84          1           0        7.991448    8.286790    0.603934
     85          1           0       10.558982    1.692375    1.954977
     86          1           0       11.087633   -0.782355    0.371478
     87          1           0       12.143216    1.001156   -0.499786
     88          1           0       12.414310    2.166964    0.732868
     89          1           0       11.139008    2.519253   -0.468160
     90          1           0        9.813468   -0.886269    2.996882
     91          1           0       11.225636    0.030453    3.273545
     92          1           0       12.267985   -1.970650    2.040243
     93          1           0       10.815978   -2.960052    2.541771
     94          1           0       11.904649   -2.127437    3.750183
     95          1           0        8.775414   -4.861300    0.361684
     96          1           0        7.751531   -5.759436   -0.680489
     97          1           0        7.173450   -5.436754    1.015598
     98          1           0        3.023173   -3.497743   -2.003141
     99          1           0        0.738781   -5.219593    1.480149
    100          1           0        0.264030   -6.255908    0.189699
    101          1           0       -0.609080   -4.693570    0.467116
    102          1           0       -3.409551   -1.255605    1.847216
    103          1           0       -3.560877   -2.952765    1.498226
    104          1           0       -4.973255   -0.515433    0.226807
    105          1           0       -7.168100   -3.981227   -0.097340
    106          1           0       -5.626123   -4.052608    0.809951
    107          1           0       -5.625327   -4.197477   -0.971362
    108          1           0       -6.849693   -1.993195   -1.890737
    109          1           0       -6.516668   -0.457533   -0.984968
    110          1           0       -8.420504   -2.142145    0.360418
    111          1           0       -8.866181   -2.156379   -1.428256
    112          1           0       -8.434907    0.510111   -1.174679
    113          1           0       -8.712974    0.130158    0.553334
    114          1           0      -10.984182   -0.847165   -0.281191
    115          1           0      -11.397775   -0.806288   -2.387177
    116          1           0       -9.734087   -0.235735   -2.738708
    117          1           0      -10.940996    0.954378   -2.626918
    118          1           0      -11.611023    1.909876   -0.532793
    119          1           0      -10.084868    1.982504    0.132713
    120          1           0      -10.711824    1.187707    2.058985
    121          1           0      -11.929266    0.110901    1.499330
    122          1           0      -12.909308    2.744443    0.898991
    123          1           0      -12.070034    2.855416    2.354096
    124          1           0      -14.018286    0.484595    2.053341
    125          1           0      -13.100910    0.578015    4.241465
    126          1           0      -14.592220    1.548092    4.455382
    127          1           0      -13.082634    2.287096    4.416519
    128          1           0      -14.845379    3.273709    1.625899
    129          1           0      -15.743909    2.605201    2.976713
    130          1           0      -17.184506    1.823528    1.479194
    131          1           0      -16.013505    0.532677    1.264077
    132          1           0      -15.365162    2.914414   -0.246455
    133          1           0      -16.820044    2.113556   -0.790077
    134          1           0      -14.062537    0.821625   -0.530818
    135          1           0      -13.659586    2.077064   -2.426337
    136          1           0      -15.414701    2.252741   -2.722027
    137          1           0      -14.502255    0.818614   -3.292737
    138          1           0      -16.631151   -0.380810   -0.770537
    139          1           0      -15.048396   -1.188232   -0.587965
    140          1           0      -15.504723   -0.854866   -2.136576
 ---------------------------------------------------------------------

 SCF Done:  E(RB-LYP) =  -3007.36294126     A.U. after   21 cycles

 Excitation energies and oscillator strengths:

 Excited State   1:      Singlet-A      1.7654 eV  702.32 nm  f=0.3132  <S**2>=0.000
     243 -> 247       -0.11585
     245 -> 248        0.12620
     245 -> 249       -0.12564
     246 -> 247        0.68435
     246 <- 247       -0.15481
 This state for optimization and/or second-order correction.
 Total Energy, E(TD-HF/TD-DFT) =  -3007.29806572
 Copying the excited state density for this state as the 1-particle RhoCI density.

 Excited State   2:      Singlet-A      1.8283 eV  678.13 nm  f=0.0101  <S**2>=0.000
     244 -> 247        0.66328
     245 -> 247       -0.22666

 Excited State   3:      Singlet-A      1.9080 eV  649.80 nm  f=0.0348  <S**2>=0.000
     243 -> 247        0.61445
     244 -> 247       -0.16003
     245 -> 247       -0.26576
     246 -> 247        0.13273

 Excited State   4:      Singlet-A      1.9798 eV  626.24 nm  f=0.0694  <S**2>=0.000
     243 -> 247        0.32076
     244 -> 247        0.17774
     245 -> 247        0.56158
     246 -> 248       -0.13476
     246 -> 249        0.14166

 Excited State   5:      Singlet-A      2.2659 eV  547.18 nm  f=0.0003  <S**2>=0.000
     242 -> 247        0.70512

 The electronic state is 1-A.
 Alpha  occ. eigenvalues --  -46.27132 -18.81200 -18.81174 -18.77113 -18.75590
 Alpha  occ. eigenvalues --  -18.75586 -18.75414 -14.02931 -14.02732 -14.01029
 Alpha  occ. eigenvalues --  -14.00297 -10.03804 -10.03120 -10.00406  -9.99594
 Alpha  occ. eigenvalues --   -9.97753  -9.96592  -9.96363  -9.96157  -9.95807
 Alpha  occ. eigenvalues --   -9.95783  -9.95755  -9.95307  -9.95209  -9.94103
 Alpha  occ. eigenvalues --   -9.93889  -9.93788  -9.93696  -9.93515  -9.93513
 Alpha  occ. eigenvalues --   -9.93474  -9.93150  -9.93041  -9.93021  -9.92907
 Alpha  occ. eigenvalues --   -9.92875  -9.92835  -9.92574  -9.92521  -9.92503
 Alpha  occ. eigenvalues --   -9.92488  -9.92481  -9.92427  -9.92422  -9.92369
 Alpha  occ. eigenvalues --   -9.92331  -9.92231  -9.91997  -9.91917  -9.91867
 Alpha  occ. eigenvalues --   -9.91698  -9.91635  -9.91402  -9.91392  -9.91082
 Alpha  occ. eigenvalues --   -9.91035  -9.90984  -9.90928  -9.90864  -9.90827
 Alpha  occ. eigenvalues --   -9.90800  -9.90735  -9.90713  -9.90670  -9.90660
 Alpha  occ. eigenvalues --   -9.90615  -2.91749  -1.72173  -1.71606  -1.71485
 Alpha  occ. eigenvalues --   -0.97614  -0.94522  -0.90441  -0.90348  -0.89289
 Alpha  occ. eigenvalues --   -0.87457  -0.87188  -0.86679  -0.86110  -0.85320
 Alpha  occ. eigenvalues --   -0.74894  -0.74338  -0.73482  -0.72732  -0.72637
 Alpha  occ. eigenvalues --   -0.72173  -0.71974  -0.71226  -0.71092  -0.70759
 Alpha  occ. eigenvalues --   -0.69700  -0.68715  -0.68168  -0.67461  -0.67288
 Alpha  occ. eigenvalues --   -0.66496  -0.65839  -0.65442  -0.64959  -0.64627
 Alpha  occ. eigenvalues --   -0.64347  -0.62690  -0.62077  -0.61780  -0.60882
 Alpha  occ. eigenvalues --   -0.60541  -0.60271  -0.59797  -0.59748  -0.58923
 Alpha  occ. eigenvalues --   -0.58073  -0.57704  -0.56648  -0.55365  -0.54121
 Alpha  occ. eigenvalues --   -0.53965  -0.53726  -0.53031  -0.52275  -0.51545
 Alpha  occ. eigenvalues --   -0.51405  -0.50845  -0.50814  -0.50494  -0.50280
 Alpha  occ. eigenvalues --   -0.49614  -0.48986  -0.48439  -0.47579  -0.46728
 Alpha  occ. eigenvalues --   -0.46018  -0.45808  -0.45554  -0.44876  -0.44223
 Alpha  occ. eigenvalues --   -0.43885  -0.43319  -0.43013  -0.42756  -0.42464
 Alpha  occ. eigenvalues --   -0.42145  -0.42004  -0.41786  -0.41364  -0.40814
 Alpha  occ. eigenvalues --   -0.40513  -0.40276  -0.40180  -0.40149  -0.40002
 Alpha  occ. eigenvalues --   -0.39759  -0.39494  -0.39299  -0.39198  -0.39146
 Alpha  occ. eigenvalues --   -0.38804  -0.38527  -0.38436  -0.38291  -0.38233
 Alpha  occ. eigenvalues --   -0.38107  -0.37949  -0.37847  -0.37554  -0.37507
 Alpha  occ. eigenvalues --   -0.37033  -0.36953  -0.36798  -0.36469  -0.36427
 Alpha  occ. eigenvalues --   -0.36056  -0.36009  -0.35977  -0.35835  -0.35544
 Alpha  occ. eigenvalues --   -0.35380  -0.35267  -0.35053  -0.34711  -0.34647
 Alpha  occ. eigenvalues --   -0.34378  -0.34308  -0.34069  -0.33843  -0.33613
 Alpha  occ. eigenvalues --   -0.33570  -0.33403  -0.33305  -0.33125  -0.32795
 Alpha  occ. eigenvalues --   -0.32691  -0.32543  -0.32310  -0.32245  -0.32052
 Alpha  occ. eigenvalues --   -0.31779  -0.31729  -0.31564  -0.31385  -0.31141
 Alpha  occ. eigenvalues --   -0.30924  -0.30908  -0.30860  -0.30341  -0.30327
 Alpha  occ. eigenvalues --   -0.30203  -0.30081  -0.30040  -0.29788  -0.29740
 Alpha  occ. eigenvalues --   -0.29668  -0.29281  -0.29184  -0.29055  -0.28608
 Alpha  occ. eigenvalues --   -0.28463  -0.28346  -0.28130  -0.27926  -0.27680
 Alpha  occ. eigenvalues --   -0.27452  -0.27242  -0.26889  -0.26758  -0.26688
 Alpha  occ. eigenvalues --   -0.26501  -0.26347  -0.26165  -0.25218  -0.25074
 Alpha  occ. eigenvalues --   -0.24732  -0.24618  -0.24259  -0.23966  -0.23888
 Alpha  occ. eigenvalues --   -0.23397  -0.22310  -0.21981  -0.21078  -0.20530
 Alpha  occ. eigenvalues --   -0.20241  -0.20002  -0.18632  -0.18321  -0.17039
 Alpha  occ. eigenvalues --   -0.15774
 Alpha virt. eigenvalues --   -0.11680  -0.06642  -0.06013  -0.04992  -0.03134
 Alpha virt. eigenvalues --   -0.02488  -0.02198  -0.01687  -0.01106   0.00449
 Alpha virt. eigenvalues --    0.01533   0.01739   0.01866   0.02740   0.02857

 Mulliken charges:
               1
     1  Mg   0.683583
     2  C    0.035919
     3  C   -0.073578
     4  C   -0.041502
     5  C   -0.088801
     6  N   -0.219340
     7  C   -0.056155
     8  C    0.030899
     9  C    0.023210
    10  C    0.051757
    11  C    0.109703
    12  C    0.108526
    13  C    0.067783
    14  C    0.094874
    15  O   -0.130744
    16  O   -0.288345
    17  N   -0.234111
    18  C    0.128300
    19  C   -0.135895
    20  C    0.057247
    21  C    0.051001
    22  C    0.163508
    23  C   -0.059268
    24  O   -0.186390
    25  C    0.133242
    26  N   -0.259566
    27  C    0.023735
    28  C    0.037233
    29  C    0.070459
    30  C   -0.002350
    31  C    0.142778
    32  C    0.052843
    33  C    0.074894
    34  N   -0.236061
    35  C    0.138850
    36  C   -0.199392
    37  C    0.143957
    38  C    0.034642
    39  C    0.179875
    40  C   -0.115319
    41  O   -0.159873
    42  C    0.079844
    43  C    0.160448
    44  O   -0.207721
    45  O   -0.295019
    46  C    0.214317
    47  C    0.340869
    48  C   -0.107377
    49  C   -0.177961
    50  C    0.153186
    51  C    0.120757
    52  C    0.101661
    53  C    0.052446
    54  C   -0.064757
    55  C    0.141156
    56  C    0.100714
    57  C    0.064409
    58  C    0.115150
    59  C   -0.043010
    60  C    0.098494
    61  C    0.102687
    62  C    0.079902
    63  C    0.085087
    64  C   -0.092487
    65  C    0.126201
    66  C    0.086607
    67  H   -0.073851
    68  H   -0.044329
    69  H   -0.056746
    70  H   -0.030606
    71  H   -0.038255
    72  H   -0.015841
    73  H   -0.002523
    74  H   -0.005304
    75  H   -0.023497
    76  H    0.005777
    77  H    0.008984
    78  H   -0.016950
    79  H   -0.028990
    80  H   -0.006981
    81  H    0.017129
    82  H    0.001490
    83  H    0.018472
    84  H   -0.009854
    85  H   -0.024963
    86  H   -0.024872
    87  H   -0.012973
    88  H   -0.014601
    89  H   -0.002972
    90  H   -0.030176
    91  H   -0.013165
    92  H   -0.015126
    93  H    0.015679
    94  H   -0.010296
    95  H   -0.022812
    96  H    0.003996
    97  H    0.028715
    98  H    0.005167
    99  H    0.020231
   100  H    0.012410
   101  H    0.023994
   102  H   -0.004908
   103  H   -0.019120
   104  H   -0.051732
   105  H   -0.000993
   106  H   -0.008397
   107  H    0.006932
   108  H   -0.033463
   109  H   -0.027932
   110  H   -0.012388
   111  H   -0.026824
   112  H   -0.018495
   113  H   -0.027750
   114  H   -0.042601
   115  H   -0.007772
   116  H   -0.026156
   117  H   -0.016061
   118  H   -0.054685
   119  H   -0.048319
   120  H   -0.038857
   121  H   -0.038875
   122  H   -0.038120
   123  H   -0.037021
   124  H   -0.024882
   125  H   -0.020007
   126  H   -0.026493
   127  H   -0.021626
   128  H   -0.035269
   129  H   -0.043326
   130  H   -0.034935
   131  H   -0.036750
   132  H   -0.043248
   133  H   -0.035531
   134  H   -0.028056
   135  H   -0.009926
   136  H   -0.016066
   137  H   -0.014367
   138  H   -0.003009
   139  H   -0.023858
   140  H   -0.033209
 Sum of Mulliken charges =  -0.00000

 Dipole moment (field-independent basis, Debye):
    X=             -3.3069    Y=              2.9922    Z=             -1.1911  Tot=              4.6160
 Quadrupole moment (field-independent basis, Debye-Ang):
   XX=           -382.7440   YY=           -413.5175   ZZ=           -405.5096
   XY=             -0.1757   XZ=              5.2518   YZ=             -4.2973

 Normal termination of Gaussian 16 at Thu May  5 05:27:23 2022.
