 Gaussian 16, Revision A.03,
 Gaussian 16:  ES64L-G16RevA.03 25-Dec-2016

 -----------------------------------
 #p cam-b3lyp/Def2SVP td=(nstates=5)
 -----------------------------------

 -------------------------------------------------------
 step_601_chromophore_22 TDDFT with cam-b3lyp functional
 -------------------------------------------------------
 Symbolic Z-matrix:
 Charge =  0 Multiplicity = 1

                         Standard orientation:
 ---------------------------------------------------------------------
 Center     Atomic      Atomic             Coordinates (Angstroms)
 Number     Number       Type             X           Y           Z
 ---------------------------------------------------------------------
      1         12           0        6.341656    0.578872   -0.059834
      2          6           0        3.942677   -1.919149   -0.791485
      3          6           0        4.100545    2.882481   -1.044741
      4          6           0        8.632046    2.874342    0.411341
      5          6           0        8.666864   -1.969477    0.468153
      6          7           0        4.327151    0.427924   -0.906728
      7          6           0        3.458199   -0.604217   -0.912967
      8          6           0        2.083814   -0.173435   -1.414123
      9          6           0        2.384182    1.251220   -1.803898
     10          6           0        3.693078    1.594965   -1.234449
     11          6           0        2.299780    1.520623   -3.383709
     12          6           0        0.846612   -0.308681   -0.437038
     13          6           0       -0.289427   -1.335389   -0.758389
     14          6           0       -1.219177   -1.874047    0.435354
     15          8           0       -0.853571   -2.159153    1.521154
     16          8           0       -2.516615   -1.928401   -0.035021
     17          7           0        6.340142    2.688110   -0.213980
     18          6           0        5.293408    3.430771   -0.577287
     19          6           0        5.694812    4.818246   -0.534132
     20          6           0        7.018365    4.886289   -0.115260
     21          6           0        7.410253    3.450522    0.004823
     22          6           0        4.742851    5.952634   -0.758432
     23          6           0        7.904197    6.063059    0.278905
     24          8           0        9.124695    5.906387    0.490094
     25          6           0        7.377935    7.483538    0.196791
     26          7           0        8.414972    0.466444    0.117953
     27          6           0        9.097846    1.579077    0.434974
     28          6           0       10.493950    1.227063    0.971128
     29          6           0       10.491218   -0.235768    1.101407
     30          6           0        9.088091   -0.650738    0.648653
     31          6           0       11.626032    1.737573    0.115602
     32          6           0       10.809470   -0.710173    2.590654
     33          6           0       11.457434   -2.105310    2.756705
     34          7           0        6.370775   -1.534883   -0.162989
     35          6           0        7.415033   -2.414962   -0.016846
     36          6           0        6.980270   -3.786640   -0.221580
     37          6           0        5.604952   -3.632386   -0.469140
     38          6           0        5.327200   -2.289483   -0.549684
     39          6           0        7.724226   -5.058196    0.154114
     40          6           0        4.356226   -4.327264   -0.674059
     41          8           0        4.099113   -5.556146   -0.672557
     42          6           0        3.206611   -3.235072   -0.961487
     43          6           0        2.131259   -3.554712   -0.010488
     44          8           0        2.061084   -3.046108    1.137481
     45          8           0        1.359300   -4.615107   -0.498863
     46          6           0        0.353669   -5.203884    0.460516
     47          6           0       -3.570398   -1.965785    1.036380
     48          6           0       -4.840447   -1.587334    0.374464
     49          6           0       -5.841019   -2.268353   -0.210191
     50          6           0       -6.107984   -3.729182   -0.113189
     51          6           0       -6.882761   -1.482744   -0.927797
     52          6           0       -8.438486   -1.608303   -0.589994
     53          6           0       -8.942452   -0.152665   -0.474168
     54          6           0      -10.455403   -0.006695   -0.731448
     55          6           0      -10.665822   -0.017321   -2.217464
     56          6           0      -10.917042    1.285644    0.031396
     57          6           0      -11.563288    1.130209    1.380595
     58          6           0      -12.644380    2.139364    1.765870
     59          6           0      -13.891088    1.507470    2.408944
     60          6           0      -13.634562    1.478720    3.938511
     61          6           0      -15.167469    2.341669    2.090059
     62          6           0      -16.168628    1.605147    1.147447
     63          6           0      -15.867573    1.948457   -0.285253
     64          6           0      -14.965396    1.004975   -1.113453
     65          6           0      -14.611989    1.551772   -2.492959
     66          6           0      -15.606148   -0.430164   -1.137463
     67          1           0        3.360519    3.604039   -1.398114
     68          1           0        9.391655    3.619084    0.657801
     69          1           0        9.480039   -2.687970    0.590556
     70          1           0        1.884407   -0.870419   -2.227956
     71          1           0        1.649277    1.927829   -1.367301
     72          1           0        2.320118    2.577342   -3.649387
     73          1           0        1.372160    1.123120   -3.794821
     74          1           0        3.181140    1.105847   -3.873800
     75          1           0        0.379982    0.650944   -0.213394
     76          1           0        1.302432   -0.643412    0.494105
     77          1           0        0.013452   -2.142883   -1.425918
     78          1           0       -0.883542   -0.684884   -1.400716
     79          1           0        3.842755    5.591509   -1.255388
     80          1           0        5.152696    6.685897   -1.454118
     81          1           0        4.423998    6.461426    0.151154
     82          1           0        6.398368    7.489793    0.672925
     83          1           0        7.382153    7.706642   -0.870543
     84          1           0        7.991448    8.286790    0.603934
     85          1           0       10.558982    1.692375    1.954977
     86          1           0       11.087633   -0.782355    0.371478
     87          1           0       12.143216    1.001156   -0.499786
     88          1           0       12.414310    2.166964    0.732868
     89          1           0       11.139008    2.519253   -0.468160
     90          1           0        9.813468   -0.886269    2.996882
     91          1           0       11.225636    0.030453    3.273545
     92          1           0       12.267985   -1.970650    2.040243
     93          1           0       10.815978   -2.960052    2.541771
     94          1           0       11.904649   -2.127437    3.750183
     95          1           0        8.775414   -4.861300    0.361684
     96          1           0        7.751531   -5.759436   -0.680489
     97          1           0        7.173450   -5.436754    1.015598
     98          1           0        3.023173   -3.497743   -2.003141
     99          1           0        0.738781   -5.219593    1.480149
    100          1           0        0.264030   -6.255908    0.189699
    101          1           0       -0.609080   -4.693570    0.467116
    102          1           0       -3.409551   -1.255605    1.847216
    103          1           0       -3.560877   -2.952765    1.498226
    104          1           0       -4.973255   -0.515433    0.226807
    105          1           0       -7.168100   -3.981227   -0.097340
    106          1           0       -5.626123   -4.052608    0.809951
    107          1           0       -5.625327   -4.197477   -0.971362
    108          1           0       -6.849693   -1.993195   -1.890737
    109          1           0       -6.516668   -0.457533   -0.984968
    110          1           0       -8.420504   -2.142145    0.360418
    111          1           0       -8.866181   -2.156379   -1.428256
    112          1           0       -8.434907    0.510111   -1.174679
    113          1           0       -8.712974    0.130158    0.553334
    114          1           0      -10.984182   -0.847165   -0.281191
    115          1           0      -11.397775   -0.806288   -2.387177
    116          1           0       -9.734087   -0.235735   -2.738708
    117          1           0      -10.940996    0.954378   -2.626918
    118          1           0      -11.611023    1.909876   -0.532793
    119          1           0      -10.084868    1.982504    0.132713
    120          1           0      -10.711824    1.187707    2.058985
    121          1           0      -11.929266    0.110901    1.499330
    122          1           0      -12.909308    2.744443    0.898991
    123          1           0      -12.070034    2.855416    2.354096
    124          1           0      -14.018286    0.484595    2.053341
    125          1           0      -13.100910    0.578015    4.241465
    126          1           0      -14.592220    1.548092    4.455382
    127          1           0      -13.082634    2.287096    4.416519
    128          1           0      -14.845379    3.273709    1.625899
    129          1           0      -15.743909    2.605201    2.976713
    130          1           0      -17.184506    1.823528    1.479194
    131          1           0      -16.013505    0.532677    1.264077
    132          1           0      -15.365162    2.914414   -0.246455
    133          1           0      -16.820044    2.113556   -0.790077
    134          1           0      -14.062537    0.821625   -0.530818
    135          1           0      -13.659586    2.077064   -2.426337
    136          1           0      -15.414701    2.252741   -2.722027
    137          1           0      -14.502255    0.818614   -3.292737
    138          1           0      -16.631151   -0.380810   -0.770537
    139          1           0      -15.048396   -1.188232   -0.587965
    140          1           0      -15.504723   -0.854866   -2.136576
 ---------------------------------------------------------------------

 SCF Done:  E(RCAM-B3LYP) =  -3007.16151073     A.U. after   17 cycles

 Excitation energies and oscillator strengths:

 Excited State   1:      Singlet-A      1.6689 eV  742.91 nm  f=0.4090  <S**2>=0.000
     245 -> 248       -0.16437
     246 -> 247        0.68921
     245 <- 248       -0.10422
 This state for optimization and/or second-order correction.
 Total Energy, E(TD-HF/TD-DFT) =  -3007.10018022
 Copying the excited state density for this state as the 1-particle RhoCI density.

 Excited State   2:      Singlet-A      2.1640 eV  572.94 nm  f=0.1472  <S**2>=0.000
     245 -> 247        0.65774
     246 -> 248        0.24285

 Excited State   3:      Singlet-A      3.2976 eV  375.99 nm  f=0.0052  <S**2>=0.000
     241 -> 247       -0.14761
     242 -> 249       -0.10545
     242 -> 250        0.11048
     244 -> 247        0.64840

 Excited State   4:      Singlet-A      3.3730 eV  367.57 nm  f=0.0020  <S**2>=0.000
     241 -> 249        0.11202
     241 -> 250       -0.10163
     242 -> 247        0.56634
     242 -> 249       -0.20061
     242 -> 250        0.18100
     243 -> 247        0.10677
     244 -> 247       -0.18276

 Excited State   5:      Singlet-A      3.5283 eV  351.40 nm  f=0.0354  <S**2>=0.000
     240 -> 247        0.43094
     240 -> 248        0.13656
     240 -> 249        0.27687
     240 -> 250        0.16084
     241 -> 247       -0.28670
     246 -> 248        0.23874

 The electronic state is 1-A.
 Alpha  occ. eigenvalues --  -46.88648 -19.24134 -19.24044 -19.20083 -19.19075
 Alpha  occ. eigenvalues --  -19.18691 -19.18332 -14.41802 -14.41528 -14.39602
 Alpha  occ. eigenvalues --  -14.38535 -10.39072 -10.38750 -10.35910 -10.34863
 Alpha  occ. eigenvalues --  -10.31953 -10.30702 -10.30614 -10.30415 -10.30408
 Alpha  occ. eigenvalues --  -10.30316 -10.30267 -10.29811 -10.29158 -10.28587
 Alpha  occ. eigenvalues --  -10.28164 -10.28077 -10.27892 -10.27702 -10.27672
 Alpha  occ. eigenvalues --  -10.27574 -10.27453 -10.27155 -10.27115 -10.27032
 Alpha  occ. eigenvalues --  -10.26948 -10.26714 -10.26652 -10.26609 -10.26460
 Alpha  occ. eigenvalues --  -10.26386 -10.26327 -10.26191 -10.26159 -10.25967
 Alpha  occ. eigenvalues --  -10.25954 -10.25940 -10.25706 -10.25593 -10.25444
 Alpha  occ. eigenvalues --  -10.25427 -10.25382 -10.25291 -10.25015 -10.24969
 Alpha  occ. eigenvalues --  -10.24621 -10.24612 -10.24570 -10.24516 -10.24504
 Alpha  occ. eigenvalues --  -10.24476 -10.24382 -10.24350 -10.24271 -10.24264
 Alpha  occ. eigenvalues --  -10.24199  -3.17169  -1.92070  -1.91606  -1.91489
 Alpha  occ. eigenvalues --   -1.16120  -1.12960  -1.08946  -1.08283  -1.07378
 Alpha  occ. eigenvalues --   -1.05339  -1.05050  -1.04394  -1.03644  -1.02808
 Alpha  occ. eigenvalues --   -0.91908  -0.91250  -0.90319  -0.89439  -0.89368
 Alpha  occ. eigenvalues --   -0.88887  -0.88720  -0.88038  -0.87663  -0.87461
 Alpha  occ. eigenvalues --   -0.86043  -0.85026  -0.84481  -0.83575  -0.83421
 Alpha  occ. eigenvalues --   -0.82600  -0.82155  -0.81448  -0.80919  -0.80409
 Alpha  occ. eigenvalues --   -0.80128  -0.78570  -0.77651  -0.77239  -0.76245
 Alpha  occ. eigenvalues --   -0.75891  -0.75634  -0.75071  -0.75031  -0.74155
 Alpha  occ. eigenvalues --   -0.73074  -0.72697  -0.71552  -0.70176  -0.68736
 Alpha  occ. eigenvalues --   -0.68513  -0.68357  -0.67563  -0.66631  -0.65709
 Alpha  occ. eigenvalues --   -0.65487  -0.65017  -0.64866  -0.64550  -0.64227
 Alpha  occ. eigenvalues --   -0.63560  -0.62700  -0.62295  -0.61238  -0.60520
 Alpha  occ. eigenvalues --   -0.59668  -0.59326  -0.58986  -0.58254  -0.57632
 Alpha  occ. eigenvalues --   -0.57274  -0.56644  -0.56158  -0.55908  -0.55398
 Alpha  occ. eigenvalues --   -0.55275  -0.54947  -0.54692  -0.54337  -0.53863
 Alpha  occ. eigenvalues --   -0.53356  -0.53300  -0.53126  -0.52917  -0.52649
 Alpha  occ. eigenvalues --   -0.52540  -0.52207  -0.52197  -0.51776  -0.51612
 Alpha  occ. eigenvalues --   -0.51414  -0.51139  -0.51068  -0.50742  -0.50699
 Alpha  occ. eigenvalues --   -0.50494  -0.50379  -0.50122  -0.50076  -0.49891
 Alpha  occ. eigenvalues --   -0.49753  -0.49029  -0.48897  -0.48799  -0.48553
 Alpha  occ. eigenvalues --   -0.48428  -0.48098  -0.47972  -0.47946  -0.47779
 Alpha  occ. eigenvalues --   -0.47692  -0.47364  -0.47108  -0.46800  -0.46572
 Alpha  occ. eigenvalues --   -0.46301  -0.46113  -0.45890  -0.45692  -0.45474
 Alpha  occ. eigenvalues --   -0.45241  -0.45188  -0.45017  -0.44657  -0.44540
 Alpha  occ. eigenvalues --   -0.44386  -0.44085  -0.44063  -0.43726  -0.43661
 Alpha  occ. eigenvalues --   -0.43523  -0.43323  -0.43202  -0.42991  -0.42714
 Alpha  occ. eigenvalues --   -0.42635  -0.42309  -0.42125  -0.41989  -0.41875
 Alpha  occ. eigenvalues --   -0.41609  -0.41536  -0.41299  -0.41191  -0.40992
 Alpha  occ. eigenvalues --   -0.40949  -0.40780  -0.40523  -0.40256  -0.40158
 Alpha  occ. eigenvalues --   -0.39443  -0.39259  -0.39165  -0.38755  -0.38595
 Alpha  occ. eigenvalues --   -0.38557  -0.38058  -0.37953  -0.37725  -0.37641
 Alpha  occ. eigenvalues --   -0.37430  -0.37109  -0.36828  -0.36300  -0.35850
 Alpha  occ. eigenvalues --   -0.35841  -0.35460  -0.35114  -0.34736  -0.34505
 Alpha  occ. eigenvalues --   -0.33948  -0.33094  -0.32803  -0.31568  -0.31170
 Alpha  occ. eigenvalues --   -0.30481  -0.29932  -0.29630  -0.29312  -0.23783
 Alpha  occ. eigenvalues --   -0.21117
 Alpha virt. eigenvalues --   -0.08893  -0.01059   0.00233   0.01938   0.02773
 Alpha virt. eigenvalues --    0.04352   0.05040   0.05417   0.06750   0.06988
 Alpha virt. eigenvalues --    0.07942   0.08281   0.08815   0.09001   0.09277

 Mulliken charges:
               1
     1  Mg   0.816222
     2  C    0.017478
     3  C   -0.085667
     4  C   -0.063171
     5  C   -0.092836
     6  N   -0.289326
     7  C   -0.013086
     8  C   -0.019948
     9  C   -0.044725
    10  C    0.070845
    11  C    0.060074
    12  C    0.060068
    13  C   -0.001371
    14  C    0.169928
    15  O   -0.168483
    16  O   -0.352345
    17  N   -0.323893
    18  C    0.138998
    19  C   -0.140480
    20  C   -0.008155
    21  C    0.079023
    22  C    0.106128
    23  C    0.018522
    24  O   -0.225174
    25  C    0.054604
    26  N   -0.330285
    27  C    0.046920
    28  C   -0.023817
    29  C    0.006349
    30  C    0.020773
    31  C    0.085221
    32  C   -0.000548
    33  C    0.014533
    34  N   -0.321949
    35  C    0.136745
    36  C   -0.191751
    37  C    0.062761
    38  C    0.064157
    39  C    0.130410
    40  C   -0.010703
    41  O   -0.200038
    42  C    0.001198
    43  C    0.240177
    44  O   -0.242714
    45  O   -0.357776
    46  C    0.180662
    47  C    0.311702
    48  C   -0.138908
    49  C   -0.186758
    50  C    0.090637
    51  C    0.061962
    52  C    0.044140
    53  C    0.000903
    54  C   -0.119873
    55  C    0.080304
    56  C    0.048490
    57  C    0.016205
    58  C    0.058904
    59  C   -0.103632
    60  C    0.044156
    61  C    0.049732
    62  C    0.020891
    63  C    0.028941
    64  C   -0.142928
    65  C    0.069545
    66  C    0.027106
    67  H   -0.039471
    68  H   -0.004689
    69  H   -0.024721
    70  H    0.005266
    71  H   -0.002286
    72  H    0.008108
    73  H    0.020920
    74  H    0.019459
    75  H    0.005659
    76  H    0.038858
    77  H    0.037244
    78  H    0.017665
    79  H    0.000630
    80  H    0.020964
    81  H    0.043591
    82  H    0.027194
    83  H    0.045700
    84  H    0.026861
    85  H    0.011699
    86  H    0.010028
    87  H    0.012893
    88  H    0.010892
    89  H    0.021702
    90  H    0.000341
    91  H    0.014595
    92  H    0.006654
    93  H    0.035575
    94  H    0.015126
    95  H    0.000344
    96  H    0.029854
    97  H    0.052338
    98  H    0.047622
    99  H    0.045731
   100  H    0.036638
   101  H    0.040987
   102  H    0.024179
   103  H    0.010109
   104  H   -0.019121
   105  H    0.023352
   106  H    0.015429
   107  H    0.033296
   108  H   -0.004714
   109  H    0.000932
   110  H    0.014731
   111  H    0.002198
   112  H    0.008612
   113  H    0.000157
   114  H   -0.010288
   115  H    0.014981
   116  H   -0.001319
   117  H    0.008112
   118  H   -0.028864
   119  H   -0.018155
   120  H   -0.011053
   121  H   -0.013066
   122  H   -0.012084
   123  H   -0.006370
   124  H    0.004621
   125  H    0.004622
   126  H   -0.002231
   127  H    0.002741
   128  H   -0.006490
   129  H   -0.012244
   130  H   -0.002796
   131  H   -0.008289
   132  H   -0.015860
   133  H   -0.006028
   134  H   -0.003986
   135  H    0.010047
   136  H    0.007779
   137  H    0.009951
   138  H    0.019554
   139  H   -0.000056
   140  H   -0.007436
 Sum of Mulliken charges =  -0.00000

 Dipole moment (field-independent basis, Debye):
    X=             -3.3706    Y=              4.0756    Z=             -1.2173  Tot=              5.4271
 Quadrupole moment (field-independent basis, Debye-Ang):
   XX=           -383.3691   YY=           -407.6946   ZZ=           -405.3859
   XY=              5.6709   XZ=              5.4101   YZ=             -4.7211

 Normal termination of Gaussian 16 at Thu May  5 04:12:29 2022.
