 Gaussian 16, Revision A.03,
 Gaussian 16:  ES64L-G16RevA.03 25-Dec-2016

 ---------------------------------
 #p PBE1PBE/Def2SVP td=(nstates=5)
 ---------------------------------

 -----------------------------------------------------
 step_601_chromophore_22 TDDFT with PBE1PBE functional
 -----------------------------------------------------
 Symbolic Z-matrix:
 Charge =  0 Multiplicity = 1

                         Standard orientation:
 ---------------------------------------------------------------------
 Center     Atomic      Atomic             Coordinates (Angstroms)
 Number     Number       Type             X           Y           Z
 ---------------------------------------------------------------------
      1         12           0        6.341656    0.578872   -0.059834
      2          6           0        3.942677   -1.919149   -0.791485
      3          6           0        4.100545    2.882481   -1.044741
      4          6           0        8.632046    2.874342    0.411341
      5          6           0        8.666864   -1.969477    0.468153
      6          7           0        4.327151    0.427924   -0.906728
      7          6           0        3.458199   -0.604217   -0.912967
      8          6           0        2.083814   -0.173435   -1.414123
      9          6           0        2.384182    1.251220   -1.803898
     10          6           0        3.693078    1.594965   -1.234449
     11          6           0        2.299780    1.520623   -3.383709
     12          6           0        0.846612   -0.308681   -0.437038
     13          6           0       -0.289427   -1.335389   -0.758389
     14          6           0       -1.219177   -1.874047    0.435354
     15          8           0       -0.853571   -2.159153    1.521154
     16          8           0       -2.516615   -1.928401   -0.035021
     17          7           0        6.340142    2.688110   -0.213980
     18          6           0        5.293408    3.430771   -0.577287
     19          6           0        5.694812    4.818246   -0.534132
     20          6           0        7.018365    4.886289   -0.115260
     21          6           0        7.410253    3.450522    0.004823
     22          6           0        4.742851    5.952634   -0.758432
     23          6           0        7.904197    6.063059    0.278905
     24          8           0        9.124695    5.906387    0.490094
     25          6           0        7.377935    7.483538    0.196791
     26          7           0        8.414972    0.466444    0.117953
     27          6           0        9.097846    1.579077    0.434974
     28          6           0       10.493950    1.227063    0.971128
     29          6           0       10.491218   -0.235768    1.101407
     30          6           0        9.088091   -0.650738    0.648653
     31          6           0       11.626032    1.737573    0.115602
     32          6           0       10.809470   -0.710173    2.590654
     33          6           0       11.457434   -2.105310    2.756705
     34          7           0        6.370775   -1.534883   -0.162989
     35          6           0        7.415033   -2.414962   -0.016846
     36          6           0        6.980270   -3.786640   -0.221580
     37          6           0        5.604952   -3.632386   -0.469140
     38          6           0        5.327200   -2.289483   -0.549684
     39          6           0        7.724226   -5.058196    0.154114
     40          6           0        4.356226   -4.327264   -0.674059
     41          8           0        4.099113   -5.556146   -0.672557
     42          6           0        3.206611   -3.235072   -0.961487
     43          6           0        2.131259   -3.554712   -0.010488
     44          8           0        2.061084   -3.046108    1.137481
     45          8           0        1.359300   -4.615107   -0.498863
     46          6           0        0.353669   -5.203884    0.460516
     47          6           0       -3.570398   -1.965785    1.036380
     48          6           0       -4.840447   -1.587334    0.374464
     49          6           0       -5.841019   -2.268353   -0.210191
     50          6           0       -6.107984   -3.729182   -0.113189
     51          6           0       -6.882761   -1.482744   -0.927797
     52          6           0       -8.438486   -1.608303   -0.589994
     53          6           0       -8.942452   -0.152665   -0.474168
     54          6           0      -10.455403   -0.006695   -0.731448
     55          6           0      -10.665822   -0.017321   -2.217464
     56          6           0      -10.917042    1.285644    0.031396
     57          6           0      -11.563288    1.130209    1.380595
     58          6           0      -12.644380    2.139364    1.765870
     59          6           0      -13.891088    1.507470    2.408944
     60          6           0      -13.634562    1.478720    3.938511
     61          6           0      -15.167469    2.341669    2.090059
     62          6           0      -16.168628    1.605147    1.147447
     63          6           0      -15.867573    1.948457   -0.285253
     64          6           0      -14.965396    1.004975   -1.113453
     65          6           0      -14.611989    1.551772   -2.492959
     66          6           0      -15.606148   -0.430164   -1.137463
     67          1           0        3.360519    3.604039   -1.398114
     68          1           0        9.391655    3.619084    0.657801
     69          1           0        9.480039   -2.687970    0.590556
     70          1           0        1.884407   -0.870419   -2.227956
     71          1           0        1.649277    1.927829   -1.367301
     72          1           0        2.320118    2.577342   -3.649387
     73          1           0        1.372160    1.123120   -3.794821
     74          1           0        3.181140    1.105847   -3.873800
     75          1           0        0.379982    0.650944   -0.213394
     76          1           0        1.302432   -0.643412    0.494105
     77          1           0        0.013452   -2.142883   -1.425918
     78          1           0       -0.883542   -0.684884   -1.400716
     79          1           0        3.842755    5.591509   -1.255388
     80          1           0        5.152696    6.685897   -1.454118
     81          1           0        4.423998    6.461426    0.151154
     82          1           0        6.398368    7.489793    0.672925
     83          1           0        7.382153    7.706642   -0.870543
     84          1           0        7.991448    8.286790    0.603934
     85          1           0       10.558982    1.692375    1.954977
     86          1           0       11.087633   -0.782355    0.371478
     87          1           0       12.143216    1.001156   -0.499786
     88          1           0       12.414310    2.166964    0.732868
     89          1           0       11.139008    2.519253   -0.468160
     90          1           0        9.813468   -0.886269    2.996882
     91          1           0       11.225636    0.030453    3.273545
     92          1           0       12.267985   -1.970650    2.040243
     93          1           0       10.815978   -2.960052    2.541771
     94          1           0       11.904649   -2.127437    3.750183
     95          1           0        8.775414   -4.861300    0.361684
     96          1           0        7.751531   -5.759436   -0.680489
     97          1           0        7.173450   -5.436754    1.015598
     98          1           0        3.023173   -3.497743   -2.003141
     99          1           0        0.738781   -5.219593    1.480149
    100          1           0        0.264030   -6.255908    0.189699
    101          1           0       -0.609080   -4.693570    0.467116
    102          1           0       -3.409551   -1.255605    1.847216
    103          1           0       -3.560877   -2.952765    1.498226
    104          1           0       -4.973255   -0.515433    0.226807
    105          1           0       -7.168100   -3.981227   -0.097340
    106          1           0       -5.626123   -4.052608    0.809951
    107          1           0       -5.625327   -4.197477   -0.971362
    108          1           0       -6.849693   -1.993195   -1.890737
    109          1           0       -6.516668   -0.457533   -0.984968
    110          1           0       -8.420504   -2.142145    0.360418
    111          1           0       -8.866181   -2.156379   -1.428256
    112          1           0       -8.434907    0.510111   -1.174679
    113          1           0       -8.712974    0.130158    0.553334
    114          1           0      -10.984182   -0.847165   -0.281191
    115          1           0      -11.397775   -0.806288   -2.387177
    116          1           0       -9.734087   -0.235735   -2.738708
    117          1           0      -10.940996    0.954378   -2.626918
    118          1           0      -11.611023    1.909876   -0.532793
    119          1           0      -10.084868    1.982504    0.132713
    120          1           0      -10.711824    1.187707    2.058985
    121          1           0      -11.929266    0.110901    1.499330
    122          1           0      -12.909308    2.744443    0.898991
    123          1           0      -12.070034    2.855416    2.354096
    124          1           0      -14.018286    0.484595    2.053341
    125          1           0      -13.100910    0.578015    4.241465
    126          1           0      -14.592220    1.548092    4.455382
    127          1           0      -13.082634    2.287096    4.416519
    128          1           0      -14.845379    3.273709    1.625899
    129          1           0      -15.743909    2.605201    2.976713
    130          1           0      -17.184506    1.823528    1.479194
    131          1           0      -16.013505    0.532677    1.264077
    132          1           0      -15.365162    2.914414   -0.246455
    133          1           0      -16.820044    2.113556   -0.790077
    134          1           0      -14.062537    0.821625   -0.530818
    135          1           0      -13.659586    2.077064   -2.426337
    136          1           0      -15.414701    2.252741   -2.722027
    137          1           0      -14.502255    0.818614   -3.292737
    138          1           0      -16.631151   -0.380810   -0.770537
    139          1           0      -15.048396   -1.188232   -0.587965
    140          1           0      -15.504723   -0.854866   -2.136576
 ---------------------------------------------------------------------

 SCF Done:  E(RPBE1PBE) =  -3005.35116198     A.U. after   16 cycles

 Excitation energies and oscillator strengths:

 Excited State   1:      Singlet-A      1.8173 eV  682.25 nm  f=0.3938  <S**2>=0.000
     245 -> 248       -0.14854
     246 -> 247        0.69697
     246 <- 247       -0.11542
 This state for optimization and/or second-order correction.
 Total Energy, E(TD-HF/TD-DFT) =  -3005.28437788
 Copying the excited state density for this state as the 1-particle RhoCI density.

 Excited State   2:      Singlet-A      2.1693 eV  571.54 nm  f=0.1367  <S**2>=0.000
     245 -> 247        0.66637
     246 -> 248        0.20762

 Excited State   3:      Singlet-A      2.8306 eV  438.01 nm  f=0.0027  <S**2>=0.000
     242 -> 247       -0.22045
     244 -> 247        0.63497
     244 -> 249       -0.11596

 Excited State   4:      Singlet-A      3.0000 eV  413.28 nm  f=0.0042  <S**2>=0.000
     242 -> 247        0.63440
     243 -> 247       -0.17657
     244 -> 247        0.20524

 Excited State   5:      Singlet-A      3.0456 eV  407.10 nm  f=0.0005  <S**2>=0.000
     240 -> 247        0.17980
     241 -> 247        0.63521
     241 -> 248        0.11541
     241 -> 249        0.13534

 The electronic state is 1-A.
 Alpha  occ. eigenvalues --  -46.92049 -19.24799 -19.24753 -19.20307 -19.19156
 Alpha  occ. eigenvalues --  -19.18933 -19.18746 -14.41303 -14.41085 -14.39138
 Alpha  occ. eigenvalues --  -14.38302 -10.36108 -10.35753 -10.32917 -10.32172
 Alpha  occ. eigenvalues --  -10.29305 -10.28517 -10.28323 -10.27929 -10.27896
 Alpha  occ. eigenvalues --  -10.27888 -10.27842 -10.27297 -10.27078 -10.26015
 Alpha  occ. eigenvalues --  -10.26008 -10.25761 -10.25701 -10.25574 -10.25563
 Alpha  occ. eigenvalues --  -10.25223 -10.25108 -10.24827 -10.24667 -10.24628
 Alpha  occ. eigenvalues --  -10.24437 -10.24251 -10.24178 -10.24151 -10.24078
 Alpha  occ. eigenvalues --  -10.23981 -10.23868 -10.23803 -10.23800 -10.23661
 Alpha  occ. eigenvalues --  -10.23518 -10.23337 -10.23333 -10.23303 -10.23078
 Alpha  occ. eigenvalues --  -10.23009 -10.22916 -10.22899 -10.22532 -10.22506
 Alpha  occ. eigenvalues --  -10.22478 -10.22158 -10.22085 -10.22084 -10.21962
 Alpha  occ. eigenvalues --  -10.21960 -10.21894 -10.21879 -10.21794 -10.21670
 Alpha  occ. eigenvalues --  -10.21602  -3.14150  -1.86992  -1.86506  -1.86392
 Alpha  occ. eigenvalues --   -1.10923  -1.07685  -1.03516  -1.03172  -1.02236
 Alpha  occ. eigenvalues --   -0.99938  -0.99823  -0.99043  -0.98381  -0.97523
 Alpha  occ. eigenvalues --   -0.86342  -0.85401  -0.84418  -0.83754  -0.83493
 Alpha  occ. eigenvalues --   -0.83198  -0.82988  -0.82266  -0.81782  -0.81742
 Alpha  occ. eigenvalues --   -0.80511  -0.79221  -0.78683  -0.77845  -0.77724
 Alpha  occ. eigenvalues --   -0.76836  -0.76243  -0.75623  -0.75178  -0.74634
 Alpha  occ. eigenvalues --   -0.74458  -0.72780  -0.71922  -0.71575  -0.70451
 Alpha  occ. eigenvalues --   -0.70192  -0.69702  -0.69410  -0.69197  -0.68315
 Alpha  occ. eigenvalues --   -0.67540  -0.67034  -0.65966  -0.64509  -0.63145
 Alpha  occ. eigenvalues --   -0.62863  -0.62635  -0.61996  -0.60919  -0.60140
 Alpha  occ. eigenvalues --   -0.59943  -0.59449  -0.59242  -0.58844  -0.58655
 Alpha  occ. eigenvalues --   -0.57739  -0.57267  -0.56479  -0.55837  -0.54981
 Alpha  occ. eigenvalues --   -0.54165  -0.53720  -0.53611  -0.52894  -0.52296
 Alpha  occ. eigenvalues --   -0.51765  -0.51076  -0.50691  -0.50348  -0.49828
 Alpha  occ. eigenvalues --   -0.49749  -0.49329  -0.49196  -0.48813  -0.48422
 Alpha  occ. eigenvalues --   -0.47865  -0.47707  -0.47582  -0.47466  -0.47143
 Alpha  occ. eigenvalues --   -0.47030  -0.46889  -0.46678  -0.46367  -0.46114
 Alpha  occ. eigenvalues --   -0.45956  -0.45715  -0.45582  -0.45343  -0.45231
 Alpha  occ. eigenvalues --   -0.45085  -0.44915  -0.44775  -0.44587  -0.44439
 Alpha  occ. eigenvalues --   -0.44284  -0.43609  -0.43486  -0.43376  -0.43179
 Alpha  occ. eigenvalues --   -0.43048  -0.42717  -0.42625  -0.42563  -0.42462
 Alpha  occ. eigenvalues --   -0.42220  -0.42058  -0.41778  -0.41450  -0.41261
 Alpha  occ. eigenvalues --   -0.41041  -0.40787  -0.40624  -0.40364  -0.40262
 Alpha  occ. eigenvalues --   -0.39990  -0.39829  -0.39793  -0.39350  -0.39318
 Alpha  occ. eigenvalues --   -0.39208  -0.38865  -0.38736  -0.38481  -0.38373
 Alpha  occ. eigenvalues --   -0.38309  -0.38135  -0.38024  -0.37777  -0.37449
 Alpha  occ. eigenvalues --   -0.37421  -0.37066  -0.36885  -0.36847  -0.36560
 Alpha  occ. eigenvalues --   -0.36511  -0.36403  -0.36133  -0.36081  -0.35946
 Alpha  occ. eigenvalues --   -0.35690  -0.35586  -0.35403  -0.35070  -0.35012
 Alpha  occ. eigenvalues --   -0.34232  -0.34154  -0.34041  -0.33532  -0.33484
 Alpha  occ. eigenvalues --   -0.33399  -0.32946  -0.32864  -0.32622  -0.32504
 Alpha  occ. eigenvalues --   -0.32254  -0.32155  -0.31687  -0.31223  -0.30858
 Alpha  occ. eigenvalues --   -0.30640  -0.30411  -0.30034  -0.29727  -0.29637
 Alpha  occ. eigenvalues --   -0.28873  -0.28673  -0.27574  -0.27055  -0.26127
 Alpha  occ. eigenvalues --   -0.25732  -0.25233  -0.25028  -0.24896  -0.20722
 Alpha  occ. eigenvalues --   -0.18730
 Alpha virt. eigenvalues --   -0.11320  -0.04706  -0.03895  -0.02451  -0.00221
 Alpha virt. eigenvalues --    0.00047   0.00526   0.01145   0.02230   0.03369
 Alpha virt. eigenvalues --    0.04321   0.04695   0.04753   0.05641   0.05690

 Mulliken charges:
               1
     1  Mg   0.964048
     2  C    0.009863
     3  C   -0.077254
     4  C   -0.055334
     5  C   -0.083403
     6  N   -0.397600
     7  C    0.063657
     8  C   -0.087922
     9  C   -0.130311
    10  C    0.107123
    11  C    0.003601
    12  C    0.015071
    13  C   -0.080118
    14  C    0.236594
    15  O   -0.202007
    16  O   -0.380541
    17  N   -0.443545
    18  C    0.170935
    19  C   -0.174885
    20  C   -0.054411
    21  C    0.116733
    22  C    0.049768
    23  C    0.066464
    24  O   -0.261633
    25  C   -0.017438
    26  N   -0.430327
    27  C    0.076560
    28  C   -0.103068
    29  C   -0.073261
    30  C    0.056220
    31  C    0.030506
    32  C   -0.057112
    33  C   -0.061354
    34  N   -0.442554
    35  C    0.151538
    36  C   -0.199365
    37  C    0.013055
    38  C    0.113291
    39  C    0.072272
    40  C    0.085129
    41  O   -0.240415
    42  C   -0.108764
    43  C    0.323197
    44  O   -0.275863
    45  O   -0.387502
    46  C    0.124107
    47  C    0.268330
    48  C   -0.158412
    49  C   -0.221647
    50  C    0.027811
    51  C    0.000113
    52  C   -0.019931
    53  C   -0.060417
    54  C   -0.207014
    55  C    0.023635
    56  C   -0.007246
    57  C   -0.040647
    58  C    0.005086
    59  C   -0.195170
    60  C   -0.009620
    61  C   -0.003251
    62  C   -0.044007
    63  C   -0.029968
    64  C   -0.241215
    65  C    0.006386
    66  C   -0.032329
    67  H   -0.006960
    68  H    0.026972
    69  H    0.008915
    70  H    0.043904
    71  H    0.034911
    72  H    0.035851
    73  H    0.048667
    74  H    0.047561
    75  H    0.037388
    76  H    0.072089
    77  H    0.067977
    78  H    0.051279
    79  H    0.028522
    80  H    0.048500
    81  H    0.069416
    82  H    0.053466
    83  H    0.072219
    84  H    0.053597
    85  H    0.048897
    86  H    0.046358
    87  H    0.039320
    88  H    0.038712
    89  H    0.050359
    90  H    0.036073
    91  H    0.045665
    92  H    0.036259
    93  H    0.060969
    94  H    0.044511
    95  H    0.028341
    96  H    0.058433
    97  H    0.079726
    98  H    0.083987
    99  H    0.066503
   100  H    0.058264
   101  H    0.065308
   102  H    0.050485
   103  H    0.036315
   104  H    0.011365
   105  H    0.049664
   106  H    0.043607
   107  H    0.061563
   108  H    0.031849
   109  H    0.030754
   110  H    0.048505
   111  H    0.033992
   112  H    0.040934
   113  H    0.035465
   114  H    0.027081
   115  H    0.041835
   116  H    0.026275
   117  H    0.035417
   118  H    0.005381
   119  H    0.015311
   120  H    0.022490
   121  H    0.017925
   122  H    0.018989
   123  H    0.026422
   124  H    0.039430
   125  H    0.032533
   126  H    0.025259
   127  H    0.029344
   128  H    0.025663
   129  H    0.019885
   130  H    0.029696
   131  H    0.026559
   132  H    0.017872
   133  H    0.026859
   134  H    0.045335
   135  H    0.038634
   136  H    0.035163
   137  H    0.036096
   138  H    0.046605
   139  H    0.026675
   140  H    0.020569
 Sum of Mulliken charges =  -0.00000

 Dipole moment (field-independent basis, Debye):
    X=             -3.3721    Y=              3.6726    Z=             -1.1733  Tot=              5.1221
 Quadrupole moment (field-independent basis, Debye-Ang):
   XX=           -377.4291   YY=           -405.5222   ZZ=           -402.7086
   XY=              2.3872   XZ=              6.3924   YZ=             -4.8778

 Normal termination of Gaussian 16 at Thu May  5 04:34:57 2022.
