 Gaussian 16, Revision A.03,
 Gaussian 16:  ES64L-G16RevA.03 25-Dec-2016

 --------------------------------
 #p wB97XD/Def2SVP td=(nstates=5)
 --------------------------------

 ----------------------------------------------------
 step_601_chromophore_22 TDDFT with wB97XD functional
 ----------------------------------------------------
 Symbolic Z-matrix:
 Charge =  0 Multiplicity = 1

                         Standard orientation:
 ---------------------------------------------------------------------
 Center     Atomic      Atomic             Coordinates (Angstroms)
 Number     Number       Type             X           Y           Z
 ---------------------------------------------------------------------
      1         12           0        6.341656    0.578872   -0.059834
      2          6           0        3.942677   -1.919149   -0.791485
      3          6           0        4.100545    2.882481   -1.044741
      4          6           0        8.632046    2.874342    0.411341
      5          6           0        8.666864   -1.969477    0.468153
      6          7           0        4.327151    0.427924   -0.906728
      7          6           0        3.458199   -0.604217   -0.912967
      8          6           0        2.083814   -0.173435   -1.414123
      9          6           0        2.384182    1.251220   -1.803898
     10          6           0        3.693078    1.594965   -1.234449
     11          6           0        2.299780    1.520623   -3.383709
     12          6           0        0.846612   -0.308681   -0.437038
     13          6           0       -0.289427   -1.335389   -0.758389
     14          6           0       -1.219177   -1.874047    0.435354
     15          8           0       -0.853571   -2.159153    1.521154
     16          8           0       -2.516615   -1.928401   -0.035021
     17          7           0        6.340142    2.688110   -0.213980
     18          6           0        5.293408    3.430771   -0.577287
     19          6           0        5.694812    4.818246   -0.534132
     20          6           0        7.018365    4.886289   -0.115260
     21          6           0        7.410253    3.450522    0.004823
     22          6           0        4.742851    5.952634   -0.758432
     23          6           0        7.904197    6.063059    0.278905
     24          8           0        9.124695    5.906387    0.490094
     25          6           0        7.377935    7.483538    0.196791
     26          7           0        8.414972    0.466444    0.117953
     27          6           0        9.097846    1.579077    0.434974
     28          6           0       10.493950    1.227063    0.971128
     29          6           0       10.491218   -0.235768    1.101407
     30          6           0        9.088091   -0.650738    0.648653
     31          6           0       11.626032    1.737573    0.115602
     32          6           0       10.809470   -0.710173    2.590654
     33          6           0       11.457434   -2.105310    2.756705
     34          7           0        6.370775   -1.534883   -0.162989
     35          6           0        7.415033   -2.414962   -0.016846
     36          6           0        6.980270   -3.786640   -0.221580
     37          6           0        5.604952   -3.632386   -0.469140
     38          6           0        5.327200   -2.289483   -0.549684
     39          6           0        7.724226   -5.058196    0.154114
     40          6           0        4.356226   -4.327264   -0.674059
     41          8           0        4.099113   -5.556146   -0.672557
     42          6           0        3.206611   -3.235072   -0.961487
     43          6           0        2.131259   -3.554712   -0.010488
     44          8           0        2.061084   -3.046108    1.137481
     45          8           0        1.359300   -4.615107   -0.498863
     46          6           0        0.353669   -5.203884    0.460516
     47          6           0       -3.570398   -1.965785    1.036380
     48          6           0       -4.840447   -1.587334    0.374464
     49          6           0       -5.841019   -2.268353   -0.210191
     50          6           0       -6.107984   -3.729182   -0.113189
     51          6           0       -6.882761   -1.482744   -0.927797
     52          6           0       -8.438486   -1.608303   -0.589994
     53          6           0       -8.942452   -0.152665   -0.474168
     54          6           0      -10.455403   -0.006695   -0.731448
     55          6           0      -10.665822   -0.017321   -2.217464
     56          6           0      -10.917042    1.285644    0.031396
     57          6           0      -11.563288    1.130209    1.380595
     58          6           0      -12.644380    2.139364    1.765870
     59          6           0      -13.891088    1.507470    2.408944
     60          6           0      -13.634562    1.478720    3.938511
     61          6           0      -15.167469    2.341669    2.090059
     62          6           0      -16.168628    1.605147    1.147447
     63          6           0      -15.867573    1.948457   -0.285253
     64          6           0      -14.965396    1.004975   -1.113453
     65          6           0      -14.611989    1.551772   -2.492959
     66          6           0      -15.606148   -0.430164   -1.137463
     67          1           0        3.360519    3.604039   -1.398114
     68          1           0        9.391655    3.619084    0.657801
     69          1           0        9.480039   -2.687970    0.590556
     70          1           0        1.884407   -0.870419   -2.227956
     71          1           0        1.649277    1.927829   -1.367301
     72          1           0        2.320118    2.577342   -3.649387
     73          1           0        1.372160    1.123120   -3.794821
     74          1           0        3.181140    1.105847   -3.873800
     75          1           0        0.379982    0.650944   -0.213394
     76          1           0        1.302432   -0.643412    0.494105
     77          1           0        0.013452   -2.142883   -1.425918
     78          1           0       -0.883542   -0.684884   -1.400716
     79          1           0        3.842755    5.591509   -1.255388
     80          1           0        5.152696    6.685897   -1.454118
     81          1           0        4.423998    6.461426    0.151154
     82          1           0        6.398368    7.489793    0.672925
     83          1           0        7.382153    7.706642   -0.870543
     84          1           0        7.991448    8.286790    0.603934
     85          1           0       10.558982    1.692375    1.954977
     86          1           0       11.087633   -0.782355    0.371478
     87          1           0       12.143216    1.001156   -0.499786
     88          1           0       12.414310    2.166964    0.732868
     89          1           0       11.139008    2.519253   -0.468160
     90          1           0        9.813468   -0.886269    2.996882
     91          1           0       11.225636    0.030453    3.273545
     92          1           0       12.267985   -1.970650    2.040243
     93          1           0       10.815978   -2.960052    2.541771
     94          1           0       11.904649   -2.127437    3.750183
     95          1           0        8.775414   -4.861300    0.361684
     96          1           0        7.751531   -5.759436   -0.680489
     97          1           0        7.173450   -5.436754    1.015598
     98          1           0        3.023173   -3.497743   -2.003141
     99          1           0        0.738781   -5.219593    1.480149
    100          1           0        0.264030   -6.255908    0.189699
    101          1           0       -0.609080   -4.693570    0.467116
    102          1           0       -3.409551   -1.255605    1.847216
    103          1           0       -3.560877   -2.952765    1.498226
    104          1           0       -4.973255   -0.515433    0.226807
    105          1           0       -7.168100   -3.981227   -0.097340
    106          1           0       -5.626123   -4.052608    0.809951
    107          1           0       -5.625327   -4.197477   -0.971362
    108          1           0       -6.849693   -1.993195   -1.890737
    109          1           0       -6.516668   -0.457533   -0.984968
    110          1           0       -8.420504   -2.142145    0.360418
    111          1           0       -8.866181   -2.156379   -1.428256
    112          1           0       -8.434907    0.510111   -1.174679
    113          1           0       -8.712974    0.130158    0.553334
    114          1           0      -10.984182   -0.847165   -0.281191
    115          1           0      -11.397775   -0.806288   -2.387177
    116          1           0       -9.734087   -0.235735   -2.738708
    117          1           0      -10.940996    0.954378   -2.626918
    118          1           0      -11.611023    1.909876   -0.532793
    119          1           0      -10.084868    1.982504    0.132713
    120          1           0      -10.711824    1.187707    2.058985
    121          1           0      -11.929266    0.110901    1.499330
    122          1           0      -12.909308    2.744443    0.898991
    123          1           0      -12.070034    2.855416    2.354096
    124          1           0      -14.018286    0.484595    2.053341
    125          1           0      -13.100910    0.578015    4.241465
    126          1           0      -14.592220    1.548092    4.455382
    127          1           0      -13.082634    2.287096    4.416519
    128          1           0      -14.845379    3.273709    1.625899
    129          1           0      -15.743909    2.605201    2.976713
    130          1           0      -17.184506    1.823528    1.479194
    131          1           0      -16.013505    0.532677    1.264077
    132          1           0      -15.365162    2.914414   -0.246455
    133          1           0      -16.820044    2.113556   -0.790077
    134          1           0      -14.062537    0.821625   -0.530818
    135          1           0      -13.659586    2.077064   -2.426337
    136          1           0      -15.414701    2.252741   -2.722027
    137          1           0      -14.502255    0.818614   -3.292737
    138          1           0      -16.631151   -0.380810   -0.770537
    139          1           0      -15.048396   -1.188232   -0.587965
    140          1           0      -15.504723   -0.854866   -2.136576
 ---------------------------------------------------------------------

 SCF Done:  E(RwB97XD) =  -3007.86083484     A.U. after   20 cycles

 Excitation energies and oscillator strengths:

 Excited State   1:      Singlet-A      1.6125 eV  768.91 nm  f=0.4076  <S**2>=0.000
     245 -> 248       -0.17007
     246 -> 247        0.68684
     245 <- 248       -0.11334
 This state for optimization and/or second-order correction.
 Total Energy, E(TD-HF/TD-DFT) =  -3007.80157779
 Copying the excited state density for this state as the 1-particle RhoCI density.

 Excited State   2:      Singlet-A      2.1099 eV  587.62 nm  f=0.1426  <S**2>=0.000
     245 -> 247        0.65525
     246 -> 248        0.24729

 Excited State   3:      Singlet-A      3.3276 eV  372.60 nm  f=0.0036  <S**2>=0.000
     241 -> 247       -0.13503
     242 -> 250       -0.10592
     244 -> 247        0.65440
     244 -> 249       -0.10606

 Excited State   4:      Singlet-A      3.4176 eV  362.78 nm  f=0.0030  <S**2>=0.000
     242 -> 247        0.57193
     242 -> 249       -0.23551
     242 -> 250       -0.20906
     243 -> 247        0.10708

 Excited State   5:      Singlet-A      3.5433 eV  349.91 nm  f=0.0438  <S**2>=0.000
     240 -> 247        0.39527
     240 -> 248        0.14046
     240 -> 249        0.30108
     240 -> 250       -0.17682
     241 -> 247       -0.31057
     246 -> 248        0.24532

 The electronic state is 1-A.
 Alpha  occ. eigenvalues --  -46.94996 -19.29337 -19.29292 -19.24960 -19.24148
 Alpha  occ. eigenvalues --  -19.23622 -19.23390 -14.46399 -14.46127 -14.44186
 Alpha  occ. eigenvalues --  -14.43120 -10.42884 -10.42599 -10.39923 -10.38889
 Alpha  occ. eigenvalues --  -10.35847 -10.34698 -10.34476 -10.34412 -10.34354
 Alpha  occ. eigenvalues --  -10.34339 -10.34292 -10.33858 -10.33141 -10.32761
 Alpha  occ. eigenvalues --  -10.32131 -10.32105 -10.31943 -10.31830 -10.31771
 Alpha  occ. eigenvalues --  -10.31711 -10.31493 -10.31123 -10.31044 -10.31022
 Alpha  occ. eigenvalues --  -10.30975 -10.30762 -10.30540 -10.30492 -10.30473
 Alpha  occ. eigenvalues --  -10.30392 -10.30307 -10.30158 -10.30095 -10.29939
 Alpha  occ. eigenvalues --  -10.29819 -10.29781 -10.29648 -10.29573 -10.29505
 Alpha  occ. eigenvalues --  -10.29338 -10.29255 -10.29250 -10.28901 -10.28862
 Alpha  occ. eigenvalues --  -10.28632 -10.28515 -10.28448 -10.28418 -10.28382
 Alpha  occ. eigenvalues --  -10.28321 -10.28314 -10.28266 -10.28168 -10.28098
 Alpha  occ. eigenvalues --  -10.28037  -3.20950  -1.94541  -1.94055  -1.93942
 Alpha  occ. eigenvalues --   -1.18266  -1.15091  -1.11188  -1.10486  -1.09597
 Alpha  occ. eigenvalues --   -1.07392  -1.07210  -1.06423  -1.05652  -1.04831
 Alpha  occ. eigenvalues --   -0.93874  -0.93055  -0.92081  -0.91332  -0.91146
 Alpha  occ. eigenvalues --   -0.90806  -0.90602  -0.90009  -0.89439  -0.89388
 Alpha  occ. eigenvalues --   -0.87975  -0.86877  -0.86333  -0.85433  -0.85324
 Alpha  occ. eigenvalues --   -0.84479  -0.84086  -0.83315  -0.82814  -0.82271
 Alpha  occ. eigenvalues --   -0.82069  -0.80545  -0.79541  -0.79143  -0.78102
 Alpha  occ. eigenvalues --   -0.77810  -0.77413  -0.76992  -0.76860  -0.75981
 Alpha  occ. eigenvalues --   -0.75028  -0.74626  -0.73514  -0.72114  -0.70697
 Alpha  occ. eigenvalues --   -0.70424  -0.70261  -0.69563  -0.68529  -0.67659
 Alpha  occ. eigenvalues --   -0.67410  -0.66891  -0.66851  -0.66341  -0.66222
 Alpha  occ. eigenvalues --   -0.65385  -0.64699  -0.64116  -0.63239  -0.62534
 Alpha  occ. eigenvalues --   -0.61609  -0.61222  -0.60974  -0.60243  -0.59619
 Alpha  occ. eigenvalues --   -0.59214  -0.58562  -0.58110  -0.57810  -0.57271
 Alpha  occ. eigenvalues --   -0.57219  -0.56808  -0.56607  -0.56240  -0.55804
 Alpha  occ. eigenvalues --   -0.55296  -0.55215  -0.55043  -0.54862  -0.54527
 Alpha  occ. eigenvalues --   -0.54447  -0.54166  -0.54115  -0.53688  -0.53478
 Alpha  occ. eigenvalues --   -0.53303  -0.53040  -0.52976  -0.52645  -0.52619
 Alpha  occ. eigenvalues --   -0.52394  -0.52312  -0.52076  -0.51945  -0.51834
 Alpha  occ. eigenvalues --   -0.51631  -0.50912  -0.50830  -0.50675  -0.50462
 Alpha  occ. eigenvalues --   -0.50351  -0.50062  -0.49875  -0.49839  -0.49707
 Alpha  occ. eigenvalues --   -0.49624  -0.49258  -0.48996  -0.48698  -0.48461
 Alpha  occ. eigenvalues --   -0.48224  -0.47989  -0.47800  -0.47562  -0.47409
 Alpha  occ. eigenvalues --   -0.47112  -0.47067  -0.46936  -0.46523  -0.46473
 Alpha  occ. eigenvalues --   -0.46319  -0.45998  -0.45942  -0.45617  -0.45571
 Alpha  occ. eigenvalues --   -0.45428  -0.45248  -0.45107  -0.44938  -0.44593
 Alpha  occ. eigenvalues --   -0.44545  -0.44181  -0.43989  -0.43928  -0.43902
 Alpha  occ. eigenvalues --   -0.43564  -0.43455  -0.43202  -0.43132  -0.42921
 Alpha  occ. eigenvalues --   -0.42808  -0.42713  -0.42430  -0.42103  -0.42023
 Alpha  occ. eigenvalues --   -0.41284  -0.41104  -0.41076  -0.40595  -0.40468
 Alpha  occ. eigenvalues --   -0.40447  -0.39897  -0.39870  -0.39612  -0.39497
 Alpha  occ. eigenvalues --   -0.39271  -0.39184  -0.38677  -0.38288  -0.37835
 Alpha  occ. eigenvalues --   -0.37674  -0.37421  -0.36961  -0.36587  -0.36496
 Alpha  occ. eigenvalues --   -0.35866  -0.35323  -0.34703  -0.33754  -0.33164
 Alpha  occ. eigenvalues --   -0.32663  -0.31953  -0.31651  -0.31452  -0.25709
 Alpha  occ. eigenvalues --   -0.22919
 Alpha virt. eigenvalues --   -0.07245   0.00875   0.02286   0.04065   0.05902
 Alpha virt. eigenvalues --    0.06525   0.07231   0.07860   0.09138   0.09743
 Alpha virt. eigenvalues --    0.10831   0.11317   0.11648   0.12223   0.12348

 Mulliken charges:
               1
     1  Mg   0.954675
     2  C    0.007525
     3  C   -0.094966
     4  C   -0.075713
     5  C   -0.098446
     6  N   -0.360918
     7  C    0.026460
     8  C   -0.063785
     9  C   -0.099940
    10  C    0.094773
    11  C    0.013540
    12  C    0.026753
    13  C   -0.060446
    14  C    0.221174
    15  O   -0.196344
    16  O   -0.379957
    17  N   -0.408537
    18  C    0.160079
    19  C   -0.160230
    20  C   -0.049403
    21  C    0.106383
    22  C    0.059407
    23  C    0.062794
    24  O   -0.254914
    25  C   -0.005995
    26  N   -0.401353
    27  C    0.072251
    28  C   -0.079180
    29  C   -0.045536
    30  C    0.046660
    31  C    0.039811
    32  C   -0.043491
    33  C   -0.042713
    34  N   -0.407114
    35  C    0.145118
    36  C   -0.200526
    37  C    0.016626
    38  C    0.097329
    39  C    0.087511
    40  C    0.064846
    41  O   -0.233392
    42  C   -0.066917
    43  C    0.296266
    44  O   -0.267435
    45  O   -0.386344
    46  C    0.140981
    47  C    0.282410
    48  C   -0.162852
    49  C   -0.212398
    50  C    0.040136
    51  C    0.022906
    52  C   -0.008552
    53  C   -0.035881
    54  C   -0.177539
    55  C    0.032122
    56  C    0.013889
    57  C   -0.025629
    58  C    0.023615
    59  C   -0.164117
    60  C    0.000746
    61  C    0.013038
    62  C   -0.025653
    63  C   -0.011985
    64  C   -0.199548
    65  C    0.021391
    66  C   -0.020802
    67  H   -0.015882
    68  H    0.021194
    69  H   -0.002788
    70  H    0.030480
    71  H    0.023958
    72  H    0.030141
    73  H    0.043326
    74  H    0.041497
    75  H    0.030170
    76  H    0.061879
    77  H    0.060374
    78  H    0.044533
    79  H    0.025072
    80  H    0.043599
    81  H    0.066030
    82  H    0.047282
    83  H    0.067531
    84  H    0.053596
    85  H    0.038698
    86  H    0.033736
    87  H    0.034976
    88  H    0.033769
    89  H    0.042229
    90  H    0.024627
    91  H    0.038714
    92  H    0.027511
    93  H    0.055397
    94  H    0.039493
    95  H    0.021869
    96  H    0.053127
    97  H    0.074126
    98  H    0.077720
    99  H    0.062822
   100  H    0.055567
   101  H    0.059368
   102  H    0.046577
   103  H    0.031935
   104  H    0.006909
   105  H    0.044441
   106  H    0.036918
   107  H    0.056788
   108  H    0.021165
   109  H    0.020660
   110  H    0.039188
   111  H    0.026750
   112  H    0.028981
   113  H    0.024770
   114  H    0.014954
   115  H    0.037025
   116  H    0.018803
   117  H    0.030191
   118  H   -0.010563
   119  H    0.006487
   120  H    0.013809
   121  H    0.006514
   122  H    0.004726
   123  H    0.018594
   124  H    0.025528
   125  H    0.027205
   126  H    0.018300
   127  H    0.023351
   128  H    0.014993
   129  H    0.012515
   130  H    0.024689
   131  H    0.012896
   132  H    0.005123
   133  H    0.018386
   134  H    0.016888
   135  H    0.031052
   136  H    0.028612
   137  H    0.030961
   138  H    0.039694
   139  H    0.021356
   140  H    0.014421
 Sum of Mulliken charges =  -0.00000

 Dipole moment (field-independent basis, Debye):
    X=             -3.4293    Y=              4.2102    Z=             -1.1976  Tot=              5.5606
 Quadrupole moment (field-independent basis, Debye-Ang):
   XX=           -378.6855   YY=           -402.8567   ZZ=           -402.3495
   XY=              6.2579   XZ=              6.1549   YZ=             -4.9084

 Normal termination of Gaussian 16 at Thu May  5 05:11:33 2022.
