 Gaussian 16, Revision A.03,
 Gaussian 16:  ES64L-G16RevA.03 25-Dec-2016

 --------------------
 #p ZINDO=(nstates=5)
 --------------------

 -----------------------------
 step_601_chromophore_22 ZINDO
 -----------------------------
 Symbolic Z-matrix:
 Charge =  0 Multiplicity = 1

                         Standard orientation:
 ---------------------------------------------------------------------
 Center     Atomic      Atomic             Coordinates (Angstroms)
 Number     Number       Type             X           Y           Z
 ---------------------------------------------------------------------
      1         12           0        6.341656    0.578872   -0.059834
      2          6           0        3.942677   -1.919149   -0.791485
      3          6           0        4.100545    2.882481   -1.044741
      4          6           0        8.632046    2.874342    0.411341
      5          6           0        8.666864   -1.969477    0.468153
      6          7           0        4.327151    0.427924   -0.906728
      7          6           0        3.458199   -0.604217   -0.912967
      8          6           0        2.083814   -0.173435   -1.414123
      9          6           0        2.384182    1.251220   -1.803898
     10          6           0        3.693078    1.594965   -1.234449
     11          6           0        2.299780    1.520623   -3.383709
     12          6           0        0.846612   -0.308681   -0.437038
     13          6           0       -0.289427   -1.335389   -0.758389
     14          6           0       -1.219177   -1.874047    0.435354
     15          8           0       -0.853571   -2.159153    1.521154
     16          8           0       -2.516615   -1.928401   -0.035021
     17          7           0        6.340142    2.688110   -0.213980
     18          6           0        5.293408    3.430771   -0.577287
     19          6           0        5.694812    4.818246   -0.534132
     20          6           0        7.018365    4.886289   -0.115260
     21          6           0        7.410253    3.450522    0.004823
     22          6           0        4.742851    5.952634   -0.758432
     23          6           0        7.904197    6.063059    0.278905
     24          8           0        9.124695    5.906387    0.490094
     25          6           0        7.377935    7.483538    0.196791
     26          7           0        8.414972    0.466444    0.117953
     27          6           0        9.097846    1.579077    0.434974
     28          6           0       10.493950    1.227063    0.971128
     29          6           0       10.491218   -0.235768    1.101407
     30          6           0        9.088091   -0.650738    0.648653
     31          6           0       11.626032    1.737573    0.115602
     32          6           0       10.809470   -0.710173    2.590654
     33          6           0       11.457434   -2.105310    2.756705
     34          7           0        6.370775   -1.534883   -0.162989
     35          6           0        7.415033   -2.414962   -0.016846
     36          6           0        6.980270   -3.786640   -0.221580
     37          6           0        5.604952   -3.632386   -0.469140
     38          6           0        5.327200   -2.289483   -0.549684
     39          6           0        7.724226   -5.058196    0.154114
     40          6           0        4.356226   -4.327264   -0.674059
     41          8           0        4.099113   -5.556146   -0.672557
     42          6           0        3.206611   -3.235072   -0.961487
     43          6           0        2.131259   -3.554712   -0.010488
     44          8           0        2.061084   -3.046108    1.137481
     45          8           0        1.359300   -4.615107   -0.498863
     46          6           0        0.353669   -5.203884    0.460516
     47          6           0       -3.570398   -1.965785    1.036380
     48          6           0       -4.840447   -1.587334    0.374464
     49          6           0       -5.841019   -2.268353   -0.210191
     50          6           0       -6.107984   -3.729182   -0.113189
     51          6           0       -6.882761   -1.482744   -0.927797
     52          6           0       -8.438486   -1.608303   -0.589994
     53          6           0       -8.942452   -0.152665   -0.474168
     54          6           0      -10.455403   -0.006695   -0.731448
     55          6           0      -10.665822   -0.017321   -2.217464
     56          6           0      -10.917042    1.285644    0.031396
     57          6           0      -11.563288    1.130209    1.380595
     58          6           0      -12.644380    2.139364    1.765870
     59          6           0      -13.891088    1.507470    2.408944
     60          6           0      -13.634562    1.478720    3.938511
     61          6           0      -15.167469    2.341669    2.090059
     62          6           0      -16.168628    1.605147    1.147447
     63          6           0      -15.867573    1.948457   -0.285253
     64          6           0      -14.965396    1.004975   -1.113453
     65          6           0      -14.611989    1.551772   -2.492959
     66          6           0      -15.606148   -0.430164   -1.137463
     67          1           0        3.360519    3.604039   -1.398114
     68          1           0        9.391655    3.619084    0.657801
     69          1           0        9.480039   -2.687970    0.590556
     70          1           0        1.884407   -0.870419   -2.227956
     71          1           0        1.649277    1.927829   -1.367301
     72          1           0        2.320118    2.577342   -3.649387
     73          1           0        1.372160    1.123120   -3.794821
     74          1           0        3.181140    1.105847   -3.873800
     75          1           0        0.379982    0.650944   -0.213394
     76          1           0        1.302432   -0.643412    0.494105
     77          1           0        0.013452   -2.142883   -1.425918
     78          1           0       -0.883542   -0.684884   -1.400716
     79          1           0        3.842755    5.591509   -1.255388
     80          1           0        5.152696    6.685897   -1.454118
     81          1           0        4.423998    6.461426    0.151154
     82          1           0        6.398368    7.489793    0.672925
     83          1           0        7.382153    7.706642   -0.870543
     84          1           0        7.991448    8.286790    0.603934
     85          1           0       10.558982    1.692375    1.954977
     86          1           0       11.087633   -0.782355    0.371478
     87          1           0       12.143216    1.001156   -0.499786
     88          1           0       12.414310    2.166964    0.732868
     89          1           0       11.139008    2.519253   -0.468160
     90          1           0        9.813468   -0.886269    2.996882
     91          1           0       11.225636    0.030453    3.273545
     92          1           0       12.267985   -1.970650    2.040243
     93          1           0       10.815978   -2.960052    2.541771
     94          1           0       11.904649   -2.127437    3.750183
     95          1           0        8.775414   -4.861300    0.361684
     96          1           0        7.751531   -5.759436   -0.680489
     97          1           0        7.173450   -5.436754    1.015598
     98          1           0        3.023173   -3.497743   -2.003141
     99          1           0        0.738781   -5.219593    1.480149
    100          1           0        0.264030   -6.255908    0.189699
    101          1           0       -0.609080   -4.693570    0.467116
    102          1           0       -3.409551   -1.255605    1.847216
    103          1           0       -3.560877   -2.952765    1.498226
    104          1           0       -4.973255   -0.515433    0.226807
    105          1           0       -7.168100   -3.981227   -0.097340
    106          1           0       -5.626123   -4.052608    0.809951
    107          1           0       -5.625327   -4.197477   -0.971362
    108          1           0       -6.849693   -1.993195   -1.890737
    109          1           0       -6.516668   -0.457533   -0.984968
    110          1           0       -8.420504   -2.142145    0.360418
    111          1           0       -8.866181   -2.156379   -1.428256
    112          1           0       -8.434907    0.510111   -1.174679
    113          1           0       -8.712974    0.130158    0.553334
    114          1           0      -10.984182   -0.847165   -0.281191
    115          1           0      -11.397775   -0.806288   -2.387177
    116          1           0       -9.734087   -0.235735   -2.738708
    117          1           0      -10.940996    0.954378   -2.626918
    118          1           0      -11.611023    1.909876   -0.532793
    119          1           0      -10.084868    1.982504    0.132713
    120          1           0      -10.711824    1.187707    2.058985
    121          1           0      -11.929266    0.110901    1.499330
    122          1           0      -12.909308    2.744443    0.898991
    123          1           0      -12.070034    2.855416    2.354096
    124          1           0      -14.018286    0.484595    2.053341
    125          1           0      -13.100910    0.578015    4.241465
    126          1           0      -14.592220    1.548092    4.455382
    127          1           0      -13.082634    2.287096    4.416519
    128          1           0      -14.845379    3.273709    1.625899
    129          1           0      -15.743909    2.605201    2.976713
    130          1           0      -17.184506    1.823528    1.479194
    131          1           0      -16.013505    0.532677    1.264077
    132          1           0      -15.365162    2.914414   -0.246455
    133          1           0      -16.820044    2.113556   -0.790077
    134          1           0      -14.062537    0.821625   -0.530818
    135          1           0      -13.659586    2.077064   -2.426337
    136          1           0      -15.414701    2.252741   -2.722027
    137          1           0      -14.502255    0.818614   -3.292737
    138          1           0      -16.631151   -0.380810   -0.770537
    139          1           0      -15.048396   -1.188232   -0.587965
    140          1           0      -15.504723   -0.854866   -2.136576
 ---------------------------------------------------------------------

 SCF Done:  E(RZINDO/S) =  -474.519109776     A.U. after   20 cycles

 Excitation energies and oscillator strengths:

 Excited State   1:      Singlet-A      1.2279 eV 1009.74 nm  f=0.6180  <S**2>=0.000
     175 ->178         0.18161
     176 ->177         0.66572
 This state for optimization and/or second-order correction.
 Total Energy, E(CIS/TDA) =  -474.473985882
 Copying the excited state density for this state as the 1-particle RhoCI density.

 Excited State   2:      Singlet-A      1.8635 eV  665.32 nm  f=0.0827  <S**2>=0.000
     175 ->177         0.58070
     176 ->178        -0.37029

 Excited State   3:      Singlet-A      2.8993 eV  427.63 nm  f=0.0267  <S**2>=0.000
     168 ->177        -0.28702
     168 ->178         0.14110
     168 ->179         0.41580
     168 ->180        -0.25754
     168 ->185         0.19977
     168 ->187        -0.10501
     171 ->177         0.10469
     176 ->178         0.12287

 Excited State   4:      Singlet-A      2.9370 eV  422.14 nm  f=0.0226  <S**2>=0.000
     170 ->177         0.27238
     170 ->179         0.27975
     170 ->180         0.33812
     170 ->185         0.14471
     170 ->187         0.14767
     174 ->177         0.16904
     176 ->179        -0.21016
     176 ->180        -0.10774

 Excited State   5:      Singlet-A      3.0090 eV  412.05 nm  f=0.8194  <S**2>=0.000
     170 ->180        -0.10734
     172 ->177        -0.10238
     175 ->177         0.31562
     176 ->178         0.52170

 The electronic state is 1-A.
 Alpha  occ. eigenvalues --   -1.85251  -1.83852  -1.82829  -1.73985  -1.70724
 Alpha  occ. eigenvalues --   -1.68072  -1.67320  -1.62864  -1.57593  -1.55662
 Alpha  occ. eigenvalues --   -1.54941  -1.52013  -1.48340  -1.47418  -1.46574
 Alpha  occ. eigenvalues --   -1.44359  -1.41779  -1.40610  -1.40299  -1.39979
 Alpha  occ. eigenvalues --   -1.36461  -1.33181  -1.32223  -1.32074  -1.29325
 Alpha  occ. eigenvalues --   -1.28484  -1.25310  -1.22467  -1.21485  -1.18098
 Alpha  occ. eigenvalues --   -1.16808  -1.16688  -1.15179  -1.14357  -1.12886
 Alpha  occ. eigenvalues --   -1.12116  -1.11112  -1.10443  -1.05294  -1.04153
 Alpha  occ. eigenvalues --   -1.03297  -1.01626  -0.99411  -0.98022  -0.96928
 Alpha  occ. eigenvalues --   -0.96581  -0.95067  -0.94154  -0.92291  -0.91178
 Alpha  occ. eigenvalues --   -0.90472  -0.89933  -0.88863  -0.88121  -0.85813
 Alpha  occ. eigenvalues --   -0.85597  -0.83450  -0.82326  -0.81491  -0.80288
 Alpha  occ. eigenvalues --   -0.79503  -0.78818  -0.78421  -0.77517  -0.76219
 Alpha  occ. eigenvalues --   -0.76051  -0.75003  -0.74244  -0.73825  -0.73382
 Alpha  occ. eigenvalues --   -0.73074  -0.72391  -0.71767  -0.71478  -0.71099
 Alpha  occ. eigenvalues --   -0.69875  -0.69104  -0.68952  -0.68244  -0.67556
 Alpha  occ. eigenvalues --   -0.67488  -0.66864  -0.66402  -0.66027  -0.65703
 Alpha  occ. eigenvalues --   -0.65315  -0.64747  -0.63834  -0.63614  -0.63355
 Alpha  occ. eigenvalues --   -0.63130  -0.62647  -0.62510  -0.62213  -0.61814
 Alpha  occ. eigenvalues --   -0.61349  -0.60809  -0.60535  -0.60149  -0.59728
 Alpha  occ. eigenvalues --   -0.59413  -0.58918  -0.58794  -0.58495  -0.57865
 Alpha  occ. eigenvalues --   -0.57776  -0.57403  -0.56836  -0.56440  -0.55879
 Alpha  occ. eigenvalues --   -0.55735  -0.55422  -0.55172  -0.54906  -0.54092
 Alpha  occ. eigenvalues --   -0.53515  -0.53057  -0.52872  -0.52616  -0.52412
 Alpha  occ. eigenvalues --   -0.52292  -0.51846  -0.51628  -0.51465  -0.51145
 Alpha  occ. eigenvalues --   -0.50607  -0.50224  -0.49998  -0.49758  -0.49652
 Alpha  occ. eigenvalues --   -0.49565  -0.49526  -0.49124  -0.48872  -0.48651
 Alpha  occ. eigenvalues --   -0.48175  -0.47708  -0.47268  -0.47246  -0.47022
 Alpha  occ. eigenvalues --   -0.46752  -0.46569  -0.46392  -0.46317  -0.46288
 Alpha  occ. eigenvalues --   -0.46115  -0.45877  -0.45716  -0.45563  -0.45172
 Alpha  occ. eigenvalues --   -0.44764  -0.44711  -0.44389  -0.43787  -0.43625
 Alpha  occ. eigenvalues --   -0.42970  -0.42946  -0.42375  -0.42326  -0.42085
 Alpha  occ. eigenvalues --   -0.41653  -0.41604  -0.40381  -0.38754  -0.38435
 Alpha  occ. eigenvalues --   -0.37456  -0.37013  -0.36087  -0.34537  -0.34299
 Alpha  occ. eigenvalues --   -0.34034  -0.32266  -0.31815  -0.31638  -0.26306
 Alpha  occ. eigenvalues --   -0.21700
 Alpha virt. eigenvalues --   -0.08626  -0.01516  -0.00648   0.00878   0.02254
 Alpha virt. eigenvalues --    0.02819   0.03113   0.03379   0.05086   0.05195
 Alpha virt. eigenvalues --    0.06545   0.06921   0.07618   0.07999   0.08626

 Mulliken charges:
               1
     1  Mg   0.431159
     2  C   -0.044833
     3  C   -0.078379
     4  C   -0.072844
     5  C   -0.061332
     6  N   -0.289523
     7  C    0.116888
     8  C    0.010744
     9  C    0.015645
    10  C    0.154117
    11  C   -0.053622
    12  C   -0.029643
    13  C   -0.005185
    14  C    0.467953
    15  O   -0.470189
    16  O   -0.281188
    17  N   -0.308616
    18  C    0.126623
    19  C    0.023781
    20  C   -0.041727
    21  C    0.147565
    22  C   -0.044432
    23  C    0.329198
    24  O   -0.526946
    25  C   -0.026920
    26  N   -0.276739
    27  C    0.164462
    28  C    0.018170
    29  C    0.010157
    30  C    0.091532
    31  C   -0.052214
    32  C   -0.044666
    33  C   -0.062906
    34  N   -0.323801
    35  C    0.089434
    36  C    0.009588
    37  C   -0.041142
    38  C    0.109088
    39  C   -0.036337
    40  C    0.325568
    41  O   -0.540705
    42  C    0.058360
    43  C    0.489590
    44  O   -0.528843
    45  O   -0.269705
    46  C    0.072421
    47  C    0.113063
    48  C   -0.101486
    49  C    0.007273
    50  C   -0.041862
    51  C   -0.043758
    52  C   -0.040238
    53  C   -0.028980
    54  C   -0.010995
    55  C   -0.053307
    56  C   -0.038038
    57  C   -0.034961
    58  C   -0.031575
    59  C   -0.001694
    60  C   -0.060248
    61  C   -0.039612
    62  C   -0.036721
    63  C   -0.026171
    64  C   -0.009994
    65  C   -0.053015
    66  C   -0.065913
    67  H    0.015695
    68  H    0.035885
    69  H    0.025902
    70  H    0.025551
    71  H    0.020191
    72  H    0.017008
    73  H    0.021548
    74  H    0.024836
    75  H    0.025403
    76  H    0.035511
    77  H    0.046583
    78  H    0.019441
    79  H    0.017968
    80  H    0.025235
    81  H    0.036294
    82  H    0.031691
    83  H    0.043965
    84  H    0.040874
    85  H    0.031073
    86  H    0.035579
    87  H    0.025049
    88  H    0.017304
    89  H    0.027254
    90  H    0.008568
    91  H    0.031918
    92  H    0.015147
    93  H    0.036708
    94  H    0.020267
    95  H    0.018659
    96  H    0.032495
    97  H    0.045043
    98  H    0.059794
    99  H    0.050820
   100  H    0.032953
   101  H    0.048161
   102  H    0.045570
   103  H    0.044900
   104  H    0.016815
   105  H    0.027843
   106  H    0.022270
   107  H    0.032577
   108  H    0.018981
   109  H    0.027392
   110  H    0.031913
   111  H    0.029753
   112  H    0.026565
   113  H    0.013642
   114  H    0.020714
   115  H    0.020040
   116  H    0.016224
   117  H    0.021589
   118  H    0.008358
   119  H    0.012141
   120  H    0.010347
   121  H    0.014413
   122  H    0.013833
   123  H    0.019460
   124  H    0.032170
   125  H    0.014405
   126  H    0.010132
   127  H    0.020802
   128  H    0.021426
   129  H    0.014614
   130  H    0.019733
   131  H    0.017706
   132  H    0.009806
   133  H    0.013280
   134  H    0.018298
   135  H    0.016084
   136  H    0.020614
   137  H    0.023026
   138  H    0.025841
   139  H    0.015520
   140  H    0.013461
 Sum of Mulliken charges =  -0.00000

 Dipole moment (field-independent basis, Debye):
    X=             -3.7113    Y=              7.7016    Z=             -3.8897  Tot=              9.3925
 N-N= 4.208564034778D+03 E-N= 0.000000000000D+00  KE=-9.092478554311D+03
 Leave Link  601 at Thu May  5 05:27:30 2022, MaxMem=  6710886400 cpu:               1.5 elap:               0.1
 (Enter /sw/apps/gaussian-16.0/g16/l9999.exe)
 1\1\GINC-BP1-COMPUTE176\SP\RZINDO CIS\STO-3G\C55H74Mg1N4O6\OF15641\05-
 May-2022\0\\#p ZINDO=(nstates=5)\\step_601_chromophore_22 ZINDO\\0,1\M
 g,0,8.334,48.284,25.226\C,0,6.375,48.402,28.172\C,0,11.01,49.101,27.08
 9\C,0,10.105,48.387,22.471\C,0,5.377,47.908,23.411\N,0,8.575,48.784,27
 .345\C,0,7.755,48.561,28.393\C,0,8.444,48.874,29.717\C,0,9.748,49.431,
 29.206\C,0,9.832,49.109,27.776\C,0,9.945,50.995,29.507\C,0,8.63,47.705
 ,30.767\C,0,7.856,47.75,32.126\C,0,7.594,46.381,32.924\O,0,7.295,45.34

 Normal termination of Gaussian 16 at Thu May  5 05:27:30 2022.
