 Gaussian 16, Revision A.03,
 Gaussian 16:  ES64L-G16RevA.03 25-Dec-2016

 ------------------------------
 #p blyp/Def2SVP td=(nstates=5)
 ------------------------------

 --------------------------------------------------
 step_1751_chromophore_8 TDDFT with blyp functional
 --------------------------------------------------
 Symbolic Z-matrix:
 Charge =  0 Multiplicity = 1

                         Standard orientation:
 ---------------------------------------------------------------------
 Center     Atomic      Atomic             Coordinates (Angstroms)
 Number     Number       Type             X           Y           Z
 ---------------------------------------------------------------------
      1         12           0        4.659772    0.915130    0.092979
      2          6           0        4.143228   -2.503991    0.475816
      3          6           0        4.462153    0.608425   -3.199281
      4          6           0        4.391068    4.246382   -0.094030
      5          6           0        4.292294    1.227929    3.660558
      6          7           0        4.233504   -0.787045   -1.142141
      7          6           0        4.240344   -2.099687   -0.888854
      8          6           0        4.353562   -2.968350   -2.112690
      9          6           0        4.702555   -1.891892   -3.212604
     10          6           0        4.507427   -0.587456   -2.479756
     11          6           0        6.152062   -2.076526   -3.793748
     12          6           0        2.984697   -3.732425   -2.393554
     13          6           0        1.600982   -3.018298   -2.282177
     14          6           0        0.387953   -3.791854   -1.713835
     15          8           0        0.313723   -5.003887   -1.561718
     16          8           0       -0.694496   -2.943294   -1.522151
     17          7           0        4.383706    2.234769   -1.471690
     18          6           0        4.320127    1.923247   -2.775546
     19          6           0        4.126274    3.064559   -3.504658
     20          6           0        4.122665    4.206502   -2.662861
     21          6           0        4.348593    3.619648   -1.328629
     22          6           0        3.972225    2.973342   -4.992162
     23          6           0        4.010222    5.654600   -3.081075
     24          8           0        3.825093    5.929349   -4.260820
     25          6           0        3.928103    6.695258   -2.067723
     26          7           0        4.379381    2.519860    1.638649
     27          6           0        4.487619    3.791434    1.262498
     28          6           0        4.763949    4.773929    2.397377
     29          6           0        4.774475    3.749508    3.637759
     30          6           0        4.363604    2.442769    2.945995
     31          6           0        6.099814    5.541847    2.243014
     32          6           0        3.740700    4.065340    4.793436
     33          6           0        4.295626    4.638961    6.122579
     34          7           0        4.491976   -0.434225    1.812207
     35          6           0        4.291594   -0.121928    3.132798
     36          6           0        4.079343   -1.340340    3.876634
     37          6           0        4.067829   -2.334275    2.885527
     38          6           0        4.259147   -1.688953    1.626073
     39          6           0        3.801890   -1.506428    5.295762
     40          6           0        3.885278   -3.692943    2.703215
     41          8           0        3.677237   -4.608935    3.468737
     42          6           0        3.832752   -3.886191    1.103328
     43          6           0        4.883223   -4.868122    0.853347
     44          8           0        6.079977   -4.660023    1.100777
     45          8           0        4.345649   -5.952236    0.220196
     46          6           0        5.215587   -7.035047   -0.280113
     47          6           0       -1.826097   -3.417540   -0.753048
     48          6           0       -2.897262   -2.390653   -0.627553
     49          6           0       -3.936086   -2.311731    0.142792
     50          6           0       -4.463677   -3.417648    0.996883
     51          6           0       -4.906606   -1.108704   -0.025354
     52          6           0       -5.734834   -1.049290   -1.362725
     53          6           0       -5.365921    0.105211   -2.345321
     54          6           0       -6.657395    0.727879   -2.847796
     55          6           0       -6.439081    1.269718   -4.284474
     56          6           0       -7.036314    1.866456   -1.875997
     57          6           0       -8.586643    1.789351   -1.409223
     58          6           0       -8.685565    1.477920    0.056982
     59          6           0      -10.081390    1.581836    0.611499
     60          6           0      -10.118379    2.529246    1.849825
     61          6           0      -10.745855    0.302662    1.154826
     62          6           0      -12.013084   -0.212346    0.305399
     63          6           0      -13.125343   -0.686287    1.261370
     64          6           0      -14.211853    0.334175    1.363238
     65          6           0      -15.404775    0.348291    0.399209
     66          6           0      -14.880840    0.206542    2.724675
     67          1           0        4.530427    0.335835   -4.254460
     68          1           0        4.280244    5.331978   -0.051165
     69          1           0        4.242896    1.415370    4.735011
     70          1           0        5.111331   -3.751141   -2.066196
     71          1           0        4.014953   -1.980846   -4.053759
     72          1           0        6.721660   -1.219609   -3.433485
     73          1           0        6.010992   -2.089497   -4.874265
     74          1           0        6.677310   -2.959903   -3.430961
     75          1           0        2.960148   -4.396225   -1.528779
     76          1           0        3.017137   -4.338732   -3.298275
     77          1           0        1.456508   -2.825920   -3.344626
     78          1           0        1.689245   -2.055155   -1.778376
     79          1           0        4.340591    2.119682   -5.560772
     80          1           0        4.668834    3.769795   -5.255302
     81          1           0        3.056861    3.415604   -5.385875
     82          1           0        4.952404    6.823713   -1.716858
     83          1           0        3.270620    6.606298   -1.203375
     84          1           0        3.722786    7.668568   -2.513128
     85          1           0        3.923908    5.468422    2.366530
     86          1           0        5.798158    3.735561    4.013189
     87          1           0        5.857409    6.486120    1.755356
     88          1           0        6.843298    4.988896    1.669577
     89          1           0        6.436423    5.738896    3.261733
     90          1           0        2.996773    3.285533    4.951957
     91          1           0        3.176163    4.884946    4.349540
     92          1           0        5.373095    4.607998    5.965537
     93          1           0        4.155732    3.999505    6.994570
     94          1           0        3.804243    5.582292    6.359014
     95          1           0        3.474041   -0.558779    5.723367
     96          1           0        4.774403   -1.795676    5.696796
     97          1           0        3.035446   -2.278803    5.354771
     98          1           0        2.848740   -4.302347    0.884520
     99          1           0        6.280929   -6.823999   -0.376370
    100          1           0        4.928509   -7.287451   -1.300668
    101          1           0        5.011904   -8.028328    0.121288
    102          1           0       -1.473203   -3.549017    0.269684
    103          1           0       -2.263491   -4.333759   -1.150921
    104          1           0       -2.708358   -1.517195   -1.251718
    105          1           0       -4.653879   -3.094705    2.020676
    106          1           0       -3.875688   -4.334191    1.021901
    107          1           0       -5.439749   -3.672030    0.584860
    108          1           0       -4.266321   -0.231242    0.069174
    109          1           0       -5.446620   -0.896704    0.896463
    110          1           0       -6.775309   -1.025700   -1.039872
    111          1           0       -5.592927   -2.013978   -1.849004
    112          1           0       -4.765855   -0.282096   -3.168701
    113          1           0       -4.711473    0.797266   -1.814697
    114          1           0       -7.519039    0.062652   -2.791308
    115          1           0       -6.574292    0.306521   -4.778128
    116          1           0       -5.399714    1.589489   -4.361175
    117          1           0       -7.211061    1.917844   -4.699806
    118          1           0       -6.737583    2.870800   -2.176395
    119          1           0       -6.453968    1.777065   -0.959762
    120          1           0       -9.131580    1.057332   -2.005476
    121          1           0       -9.059411    2.754135   -1.590160
    122          1           0       -7.963590    2.016524    0.670378
    123          1           0       -8.338050    0.450114    0.163635
    124          1           0      -10.817246    1.939727   -0.107953
    125          1           0       -9.536165    2.088073    2.658608
    126          1           0      -11.130564    2.701773    2.216652
    127          1           0       -9.703931    3.523406    1.682482
    128          1           0      -10.950672    0.442680    2.215675
    129          1           0      -10.079353   -0.559692    1.185350
    130          1           0      -11.723391   -1.086072   -0.278442
    131          1           0      -12.340096    0.515604   -0.437592
    132          1           0      -12.737154   -0.876534    2.262602
    133          1           0      -13.607467   -1.634954    1.025548
    134          1           0      -13.729938    1.301352    1.218458
    135          1           0      -16.102479   -0.427827    0.713567
    136          1           0      -15.017860    0.075748   -0.582909
    137          1           0      -15.831607    1.345291    0.508448
    138          1           0      -15.965427    0.297347    2.781992
    139          1           0      -14.455458    0.931078    3.418086
    140          1           0      -14.700604   -0.745980    3.222870
 ---------------------------------------------------------------------

 SCF Done:  E(RB-LYP) =  -3007.33525831     A.U. after   20 cycles

 Excitation energies and oscillator strengths:

 Excited State   1:      Singlet-A      1.8215 eV  680.65 nm  f=0.0559  <S**2>=0.000
     244 -> 247        0.62944
     246 -> 247       -0.29874
 This state for optimization and/or second-order correction.
 Total Energy, E(TD-HF/TD-DFT) =  -3007.26831774
 Copying the excited state density for this state as the 1-particle RhoCI density.

 Excited State   2:      Singlet-A      1.8639 eV  665.19 nm  f=0.2339  <S**2>=0.000
     244 -> 247        0.31003
     245 -> 248       -0.19947
     246 -> 247        0.60667
     246 <- 247       -0.12080

 Excited State   3:      Singlet-A      1.9969 eV  620.87 nm  f=0.0710  <S**2>=0.000
     245 -> 247        0.64424
     246 -> 248        0.24430

 Excited State   4:      Singlet-A      2.0068 eV  617.81 nm  f=0.0045  <S**2>=0.000
     243 -> 247        0.70139

 Excited State   5:      Singlet-A      2.3119 eV  536.28 nm  f=0.0000  <S**2>=0.000
     242 -> 247        0.70706

 The electronic state is 1-A.
 Alpha  occ. eigenvalues --  -46.28718 -18.82321 -18.81712 -18.77041 -18.75564
 Alpha  occ. eigenvalues --  -18.75543 -18.75133 -14.03745 -14.03391 -14.01034
 Alpha  occ. eigenvalues --  -14.00843 -10.04628 -10.03105  -9.99919  -9.98411
 Alpha  occ. eigenvalues --   -9.97751  -9.97565  -9.97131  -9.96725  -9.96456
 Alpha  occ. eigenvalues --   -9.96257  -9.96209  -9.95864  -9.94776  -9.94738
 Alpha  occ. eigenvalues --   -9.94700  -9.94565  -9.94294  -9.94028  -9.93917
 Alpha  occ. eigenvalues --   -9.93847  -9.93430  -9.93363  -9.93271  -9.93157
 Alpha  occ. eigenvalues --   -9.93137  -9.93058  -9.92912  -9.92809  -9.92682
 Alpha  occ. eigenvalues --   -9.92682  -9.92610  -9.92476  -9.92286  -9.92148
 Alpha  occ. eigenvalues --   -9.91898  -9.91819  -9.91816  -9.91681  -9.91654
 Alpha  occ. eigenvalues --   -9.91532  -9.91469  -9.91292  -9.91281  -9.91223
 Alpha  occ. eigenvalues --   -9.91015  -9.90997  -9.90794  -9.90783  -9.90705
 Alpha  occ. eigenvalues --   -9.90679  -9.90652  -9.90626  -9.90612  -9.90165
 Alpha  occ. eigenvalues --   -9.90030  -2.93162  -1.73569  -1.73072  -1.72861
 Alpha  occ. eigenvalues --   -0.97281  -0.96681  -0.91664  -0.91331  -0.89785
 Alpha  occ. eigenvalues --   -0.88544  -0.88325  -0.87543  -0.86884  -0.86048
 Alpha  occ. eigenvalues --   -0.74832  -0.73717  -0.73248  -0.72654  -0.72571
 Alpha  occ. eigenvalues --   -0.72527  -0.72344  -0.71602  -0.71419  -0.71201
 Alpha  occ. eigenvalues --   -0.70030  -0.69343  -0.68162  -0.67645  -0.67440
 Alpha  occ. eigenvalues --   -0.66688  -0.66564  -0.65714  -0.65159  -0.64828
 Alpha  occ. eigenvalues --   -0.64290  -0.63019  -0.62427  -0.61922  -0.60778
 Alpha  occ. eigenvalues --   -0.60425  -0.60209  -0.59684  -0.59307  -0.58760
 Alpha  occ. eigenvalues --   -0.58471  -0.58002  -0.57341  -0.55824  -0.54973
 Alpha  occ. eigenvalues --   -0.54335  -0.53779  -0.53455  -0.52707  -0.52515
 Alpha  occ. eigenvalues --   -0.51917  -0.51631  -0.51296  -0.50532  -0.50229
 Alpha  occ. eigenvalues --   -0.49649  -0.49340  -0.48799  -0.48743  -0.46664
 Alpha  occ. eigenvalues --   -0.46357  -0.45977  -0.45898  -0.45503  -0.44767
 Alpha  occ. eigenvalues --   -0.43990  -0.43741  -0.43597  -0.43166  -0.42810
 Alpha  occ. eigenvalues --   -0.42226  -0.41669  -0.41167  -0.41086  -0.40832
 Alpha  occ. eigenvalues --   -0.40761  -0.40594  -0.40475  -0.40244  -0.40136
 Alpha  occ. eigenvalues --   -0.40032  -0.39740  -0.39598  -0.39523  -0.39362
 Alpha  occ. eigenvalues --   -0.39330  -0.39056  -0.39017  -0.38323  -0.38144
 Alpha  occ. eigenvalues --   -0.37988  -0.37885  -0.37873  -0.37606  -0.37437
 Alpha  occ. eigenvalues --   -0.37398  -0.36993  -0.36834  -0.36676  -0.36596
 Alpha  occ. eigenvalues --   -0.36248  -0.36162  -0.35954  -0.35875  -0.35510
 Alpha  occ. eigenvalues --   -0.35281  -0.35076  -0.34946  -0.34924  -0.34779
 Alpha  occ. eigenvalues --   -0.34592  -0.34307  -0.34263  -0.34114  -0.34063
 Alpha  occ. eigenvalues --   -0.33963  -0.33894  -0.33789  -0.33275  -0.33034
 Alpha  occ. eigenvalues --   -0.32984  -0.32882  -0.32657  -0.32501  -0.32382
 Alpha  occ. eigenvalues --   -0.32033  -0.31986  -0.31671  -0.31563  -0.31363
 Alpha  occ. eigenvalues --   -0.31314  -0.31195  -0.31033  -0.30899  -0.30494
 Alpha  occ. eigenvalues --   -0.30361  -0.30057  -0.30011  -0.29966  -0.29903
 Alpha  occ. eigenvalues --   -0.29869  -0.29733  -0.29419  -0.29404  -0.29129
 Alpha  occ. eigenvalues --   -0.28913  -0.28540  -0.28383  -0.27712  -0.27578
 Alpha  occ. eigenvalues --   -0.27211  -0.27179  -0.27101  -0.26865  -0.26415
 Alpha  occ. eigenvalues --   -0.26279  -0.26033  -0.26025  -0.25292  -0.25145
 Alpha  occ. eigenvalues --   -0.24673  -0.24416  -0.24258  -0.23982  -0.23978
 Alpha  occ. eigenvalues --   -0.23683  -0.22119  -0.21932  -0.20992  -0.20634
 Alpha  occ. eigenvalues --   -0.20348  -0.20137  -0.18914  -0.18262  -0.17297
 Alpha  occ. eigenvalues --   -0.16216
 Alpha virt. eigenvalues --   -0.11641  -0.07429  -0.06093  -0.04415  -0.03709
 Alpha virt. eigenvalues --   -0.03208  -0.01951  -0.01873  -0.00380   0.00073
 Alpha virt. eigenvalues --    0.00987   0.01345   0.02083   0.02426   0.02816

 Mulliken charges:
               1
     1  Mg   0.677765
     2  C    0.051241
     3  C   -0.080333
     4  C   -0.038765
     5  C   -0.076742
     6  N   -0.225195
     7  C   -0.085025
     8  C    0.064661
     9  C   -0.019043
    10  C    0.007729
    11  C    0.127456
    12  C    0.049508
    13  C    0.084648
    14  C    0.108290
    15  O   -0.182974
    16  O   -0.284485
    17  N   -0.307202
    18  C    0.207686
    19  C   -0.127964
    20  C    0.033684
    21  C    0.152273
    22  C    0.193102
    23  C   -0.084955
    24  O   -0.162668
    25  C    0.155494
    26  N   -0.125587
    27  C   -0.086120
    28  C    0.016123
    29  C    0.009488
    30  C   -0.035411
    31  C    0.136881
    32  C    0.068664
    33  C    0.074094
    34  N   -0.169327
    35  C    0.116299
    36  C   -0.189594
    37  C    0.144974
    38  C    0.027559
    39  C    0.199076
    40  C   -0.110562
    41  O   -0.122205
    42  C   -0.000397
    43  C    0.125957
    44  O   -0.206524
    45  O   -0.254978
    46  C    0.218171
    47  C    0.344710
    48  C   -0.128943
    49  C   -0.141308
    50  C    0.150132
    51  C    0.090761
    52  C    0.088188
    53  C    0.118934
    54  C   -0.084282
    55  C    0.121882
    56  C    0.105718
    57  C    0.042481
    58  C    0.144043
    59  C   -0.047894
    60  C    0.071376
    61  C    0.092561
    62  C    0.075014
    63  C    0.120370
    64  C   -0.116654
    65  C    0.125990
    66  C    0.093587
    67  H   -0.073459
    68  H   -0.096645
    69  H   -0.060278
    70  H   -0.015518
    71  H   -0.023372
    72  H   -0.006484
    73  H    0.002094
    74  H   -0.001955
    75  H    0.002784
    76  H   -0.013054
    77  H    0.009123
    78  H    0.016264
    79  H   -0.014288
    80  H   -0.009584
    81  H   -0.002354
    82  H   -0.002336
    83  H    0.031060
    84  H   -0.021279
    85  H   -0.015787
    86  H   -0.011645
    87  H   -0.006083
    88  H    0.003339
    89  H   -0.002167
    90  H   -0.008665
    91  H   -0.037607
    92  H   -0.014666
    93  H   -0.011284
    94  H    0.004895
    95  H   -0.014924
    96  H    0.015826
    97  H    0.020761
    98  H    0.002363
    99  H    0.022595
   100  H   -0.008497
   101  H    0.015472
   102  H    0.001608
   103  H    0.009961
   104  H   -0.039520
   105  H   -0.010205
   106  H   -0.014421
   107  H   -0.007578
   108  H   -0.036520
   109  H   -0.046782
   110  H   -0.017145
   111  H   -0.022532
   112  H   -0.036860
   113  H   -0.023463
   114  H   -0.031425
   115  H   -0.022164
   116  H   -0.003950
   117  H   -0.012225
   118  H   -0.040363
   119  H   -0.045537
   120  H   -0.024536
   121  H   -0.032685
   122  H   -0.037126
   123  H   -0.049257
   124  H   -0.037673
   125  H   -0.014510
   126  H   -0.014575
   127  H   -0.026037
   128  H   -0.033403
   129  H   -0.043227
   130  H   -0.038045
   131  H   -0.019468
   132  H   -0.031859
   133  H   -0.051658
   134  H   -0.037705
   135  H   -0.017570
   136  H   -0.028991
   137  H   -0.000457
   138  H   -0.026058
   139  H   -0.025382
   140  H   -0.026728
 Sum of Mulliken charges =  -0.00000

 Dipole moment (field-independent basis, Debye):
    X=              0.3638    Y=              3.6674    Z=              0.5352  Tot=              3.7241
 Quadrupole moment (field-independent basis, Debye-Ang):
   XX=           -393.1854   YY=           -418.0724   ZZ=           -408.0905
   XY=             18.4452   XZ=             -6.5233   YZ=             50.1053

 Normal termination of Gaussian 16 at Wed May  4 14:05:50 2022.
