 Gaussian 16, Revision A.03,
 Gaussian 16:  ES64L-G16RevA.03 25-Dec-2016

 -----------------------------------
 #p cam-b3lyp/Def2SVP td=(nstates=5)
 -----------------------------------

 -------------------------------------------------------
 step_1751_chromophore_8 TDDFT with cam-b3lyp functional
 -------------------------------------------------------
 Symbolic Z-matrix:
 Charge =  0 Multiplicity = 1

                         Standard orientation:
 ---------------------------------------------------------------------
 Center     Atomic      Atomic             Coordinates (Angstroms)
 Number     Number       Type             X           Y           Z
 ---------------------------------------------------------------------
      1         12           0        4.659772    0.915130    0.092979
      2          6           0        4.143228   -2.503991    0.475816
      3          6           0        4.462153    0.608425   -3.199281
      4          6           0        4.391068    4.246382   -0.094030
      5          6           0        4.292294    1.227929    3.660558
      6          7           0        4.233504   -0.787045   -1.142141
      7          6           0        4.240344   -2.099687   -0.888854
      8          6           0        4.353562   -2.968350   -2.112690
      9          6           0        4.702555   -1.891892   -3.212604
     10          6           0        4.507427   -0.587456   -2.479756
     11          6           0        6.152062   -2.076526   -3.793748
     12          6           0        2.984697   -3.732425   -2.393554
     13          6           0        1.600982   -3.018298   -2.282177
     14          6           0        0.387953   -3.791854   -1.713835
     15          8           0        0.313723   -5.003887   -1.561718
     16          8           0       -0.694496   -2.943294   -1.522151
     17          7           0        4.383706    2.234769   -1.471690
     18          6           0        4.320127    1.923247   -2.775546
     19          6           0        4.126274    3.064559   -3.504658
     20          6           0        4.122665    4.206502   -2.662861
     21          6           0        4.348593    3.619648   -1.328629
     22          6           0        3.972225    2.973342   -4.992162
     23          6           0        4.010222    5.654600   -3.081075
     24          8           0        3.825093    5.929349   -4.260820
     25          6           0        3.928103    6.695258   -2.067723
     26          7           0        4.379381    2.519860    1.638649
     27          6           0        4.487619    3.791434    1.262498
     28          6           0        4.763949    4.773929    2.397377
     29          6           0        4.774475    3.749508    3.637759
     30          6           0        4.363604    2.442769    2.945995
     31          6           0        6.099814    5.541847    2.243014
     32          6           0        3.740700    4.065340    4.793436
     33          6           0        4.295626    4.638961    6.122579
     34          7           0        4.491976   -0.434225    1.812207
     35          6           0        4.291594   -0.121928    3.132798
     36          6           0        4.079343   -1.340340    3.876634
     37          6           0        4.067829   -2.334275    2.885527
     38          6           0        4.259147   -1.688953    1.626073
     39          6           0        3.801890   -1.506428    5.295762
     40          6           0        3.885278   -3.692943    2.703215
     41          8           0        3.677237   -4.608935    3.468737
     42          6           0        3.832752   -3.886191    1.103328
     43          6           0        4.883223   -4.868122    0.853347
     44          8           0        6.079977   -4.660023    1.100777
     45          8           0        4.345649   -5.952236    0.220196
     46          6           0        5.215587   -7.035047   -0.280113
     47          6           0       -1.826097   -3.417540   -0.753048
     48          6           0       -2.897262   -2.390653   -0.627553
     49          6           0       -3.936086   -2.311731    0.142792
     50          6           0       -4.463677   -3.417648    0.996883
     51          6           0       -4.906606   -1.108704   -0.025354
     52          6           0       -5.734834   -1.049290   -1.362725
     53          6           0       -5.365921    0.105211   -2.345321
     54          6           0       -6.657395    0.727879   -2.847796
     55          6           0       -6.439081    1.269718   -4.284474
     56          6           0       -7.036314    1.866456   -1.875997
     57          6           0       -8.586643    1.789351   -1.409223
     58          6           0       -8.685565    1.477920    0.056982
     59          6           0      -10.081390    1.581836    0.611499
     60          6           0      -10.118379    2.529246    1.849825
     61          6           0      -10.745855    0.302662    1.154826
     62          6           0      -12.013084   -0.212346    0.305399
     63          6           0      -13.125343   -0.686287    1.261370
     64          6           0      -14.211853    0.334175    1.363238
     65          6           0      -15.404775    0.348291    0.399209
     66          6           0      -14.880840    0.206542    2.724675
     67          1           0        4.530427    0.335835   -4.254460
     68          1           0        4.280244    5.331978   -0.051165
     69          1           0        4.242896    1.415370    4.735011
     70          1           0        5.111331   -3.751141   -2.066196
     71          1           0        4.014953   -1.980846   -4.053759
     72          1           0        6.721660   -1.219609   -3.433485
     73          1           0        6.010992   -2.089497   -4.874265
     74          1           0        6.677310   -2.959903   -3.430961
     75          1           0        2.960148   -4.396225   -1.528779
     76          1           0        3.017137   -4.338732   -3.298275
     77          1           0        1.456508   -2.825920   -3.344626
     78          1           0        1.689245   -2.055155   -1.778376
     79          1           0        4.340591    2.119682   -5.560772
     80          1           0        4.668834    3.769795   -5.255302
     81          1           0        3.056861    3.415604   -5.385875
     82          1           0        4.952404    6.823713   -1.716858
     83          1           0        3.270620    6.606298   -1.203375
     84          1           0        3.722786    7.668568   -2.513128
     85          1           0        3.923908    5.468422    2.366530
     86          1           0        5.798158    3.735561    4.013189
     87          1           0        5.857409    6.486120    1.755356
     88          1           0        6.843298    4.988896    1.669577
     89          1           0        6.436423    5.738896    3.261733
     90          1           0        2.996773    3.285533    4.951957
     91          1           0        3.176163    4.884946    4.349540
     92          1           0        5.373095    4.607998    5.965537
     93          1           0        4.155732    3.999505    6.994570
     94          1           0        3.804243    5.582292    6.359014
     95          1           0        3.474041   -0.558779    5.723367
     96          1           0        4.774403   -1.795676    5.696796
     97          1           0        3.035446   -2.278803    5.354771
     98          1           0        2.848740   -4.302347    0.884520
     99          1           0        6.280929   -6.823999   -0.376370
    100          1           0        4.928509   -7.287451   -1.300668
    101          1           0        5.011904   -8.028328    0.121288
    102          1           0       -1.473203   -3.549017    0.269684
    103          1           0       -2.263491   -4.333759   -1.150921
    104          1           0       -2.708358   -1.517195   -1.251718
    105          1           0       -4.653879   -3.094705    2.020676
    106          1           0       -3.875688   -4.334191    1.021901
    107          1           0       -5.439749   -3.672030    0.584860
    108          1           0       -4.266321   -0.231242    0.069174
    109          1           0       -5.446620   -0.896704    0.896463
    110          1           0       -6.775309   -1.025700   -1.039872
    111          1           0       -5.592927   -2.013978   -1.849004
    112          1           0       -4.765855   -0.282096   -3.168701
    113          1           0       -4.711473    0.797266   -1.814697
    114          1           0       -7.519039    0.062652   -2.791308
    115          1           0       -6.574292    0.306521   -4.778128
    116          1           0       -5.399714    1.589489   -4.361175
    117          1           0       -7.211061    1.917844   -4.699806
    118          1           0       -6.737583    2.870800   -2.176395
    119          1           0       -6.453968    1.777065   -0.959762
    120          1           0       -9.131580    1.057332   -2.005476
    121          1           0       -9.059411    2.754135   -1.590160
    122          1           0       -7.963590    2.016524    0.670378
    123          1           0       -8.338050    0.450114    0.163635
    124          1           0      -10.817246    1.939727   -0.107953
    125          1           0       -9.536165    2.088073    2.658608
    126          1           0      -11.130564    2.701773    2.216652
    127          1           0       -9.703931    3.523406    1.682482
    128          1           0      -10.950672    0.442680    2.215675
    129          1           0      -10.079353   -0.559692    1.185350
    130          1           0      -11.723391   -1.086072   -0.278442
    131          1           0      -12.340096    0.515604   -0.437592
    132          1           0      -12.737154   -0.876534    2.262602
    133          1           0      -13.607467   -1.634954    1.025548
    134          1           0      -13.729938    1.301352    1.218458
    135          1           0      -16.102479   -0.427827    0.713567
    136          1           0      -15.017860    0.075748   -0.582909
    137          1           0      -15.831607    1.345291    0.508448
    138          1           0      -15.965427    0.297347    2.781992
    139          1           0      -14.455458    0.931078    3.418086
    140          1           0      -14.700604   -0.745980    3.222870
 ---------------------------------------------------------------------

 SCF Done:  E(RCAM-B3LYP) =  -3007.13832321     A.U. after   16 cycles

 Excitation energies and oscillator strengths:

 Excited State   1:      Singlet-A      1.7682 eV  701.20 nm  f=0.3629  <S**2>=0.000
     245 -> 248        0.19875
     246 -> 247        0.67857
     245 <- 248        0.10764
 This state for optimization and/or second-order correction.
 Total Energy, E(TD-HF/TD-DFT) =  -3007.07334426
 Copying the excited state density for this state as the 1-particle RhoCI density.

 Excited State   2:      Singlet-A      2.1971 eV  564.31 nm  f=0.0986  <S**2>=0.000
     245 -> 247        0.63599
     246 -> 248       -0.29400

 Excited State   3:      Singlet-A      3.3765 eV  367.19 nm  f=0.0226  <S**2>=0.000
     241 -> 247        0.33590
     241 -> 249        0.18801
     241 -> 251       -0.14053
     243 -> 247        0.47035
     243 -> 249        0.14252
     244 -> 247       -0.14034
     246 -> 248        0.18825

 Excited State   4:      Singlet-A      3.4066 eV  363.95 nm  f=0.0029  <S**2>=0.000
     243 -> 247        0.13087
     244 -> 247        0.67387

 Excited State   5:      Singlet-A      3.4435 eV  360.05 nm  f=0.2711  <S**2>=0.000
     241 -> 247       -0.41390
     241 -> 249       -0.11441
     243 -> 247        0.15516
     245 -> 247        0.18815
     246 -> 248        0.47966

 The electronic state is 1-A.
 Alpha  occ. eigenvalues --  -46.90408 -19.25322 -19.24495 -19.20017 -19.18840
 Alpha  occ. eigenvalues --  -19.18619 -19.18150 -14.42574 -14.42386 -14.39542
 Alpha  occ. eigenvalues --  -14.39206 -10.39943 -10.38567 -10.35143 -10.33636
 Alpha  occ. eigenvalues --  -10.31673 -10.31655 -10.31625 -10.31253 -10.30963
 Alpha  occ. eigenvalues --  -10.30705 -10.30582 -10.30063 -10.28842 -10.28818
 Alpha  occ. eigenvalues --  -10.28801 -10.28749 -10.28557 -10.28027 -10.28016
 Alpha  occ. eigenvalues --  -10.27882 -10.27871 -10.27563 -10.27549 -10.27227
 Alpha  occ. eigenvalues --  -10.27195 -10.27107 -10.27018 -10.26994 -10.26948
 Alpha  occ. eigenvalues --  -10.26722 -10.26531 -10.26211 -10.26161 -10.25971
 Alpha  occ. eigenvalues --  -10.25908 -10.25475 -10.25395 -10.25375 -10.25340
 Alpha  occ. eigenvalues --  -10.25188 -10.25146 -10.25014 -10.24915 -10.24866
 Alpha  occ. eigenvalues --  -10.24679 -10.24628 -10.24491 -10.24380 -10.24377
 Alpha  occ. eigenvalues --  -10.24313 -10.24257 -10.24235 -10.24215 -10.24082
 Alpha  occ. eigenvalues --  -10.23594  -3.18744  -1.93631  -1.93220  -1.93026
 Alpha  occ. eigenvalues --   -1.15659  -1.15193  -1.10143  -1.09634  -1.07595
 Alpha  occ. eigenvalues --   -1.06500  -1.06183  -1.05277  -1.04541  -1.03675
 Alpha  occ. eigenvalues --   -0.91901  -0.90574  -0.90055  -0.89438  -0.89310
 Alpha  occ. eigenvalues --   -0.89239  -0.89078  -0.88213  -0.88079  -0.87815
 Alpha  occ. eigenvalues --   -0.86668  -0.85774  -0.84418  -0.83839  -0.83650
 Alpha  occ. eigenvalues --   -0.82887  -0.82574  -0.81693  -0.80990  -0.80664
 Alpha  occ. eigenvalues --   -0.80065  -0.78689  -0.77995  -0.77526  -0.76237
 Alpha  occ. eigenvalues --   -0.75778  -0.75500  -0.74999  -0.74541  -0.73976
 Alpha  occ. eigenvalues --   -0.73518  -0.73019  -0.72300  -0.70663  -0.69604
 Alpha  occ. eigenvalues --   -0.69036  -0.68313  -0.67981  -0.67063  -0.66726
 Alpha  occ. eigenvalues --   -0.66046  -0.65803  -0.65442  -0.64524  -0.64273
 Alpha  occ. eigenvalues --   -0.63612  -0.63019  -0.62650  -0.62480  -0.60381
 Alpha  occ. eigenvalues --   -0.59970  -0.59467  -0.59352  -0.58887  -0.58223
 Alpha  occ. eigenvalues --   -0.57508  -0.57069  -0.56886  -0.56388  -0.55882
 Alpha  occ. eigenvalues --   -0.55233  -0.54581  -0.54430  -0.54057  -0.53772
 Alpha  occ. eigenvalues --   -0.53517  -0.53417  -0.53256  -0.53120  -0.52873
 Alpha  occ. eigenvalues --   -0.52530  -0.52387  -0.52351  -0.52213  -0.51994
 Alpha  occ. eigenvalues --   -0.51741  -0.51561  -0.51431  -0.50937  -0.50732
 Alpha  occ. eigenvalues --   -0.50415  -0.50286  -0.50140  -0.50025  -0.49805
 Alpha  occ. eigenvalues --   -0.49636  -0.49592  -0.49315  -0.49246  -0.48958
 Alpha  occ. eigenvalues --   -0.48632  -0.48291  -0.48237  -0.48100  -0.47857
 Alpha  occ. eigenvalues --   -0.47231  -0.47157  -0.47038  -0.46766  -0.46682
 Alpha  occ. eigenvalues --   -0.46539  -0.46365  -0.46033  -0.46007  -0.45954
 Alpha  occ. eigenvalues --   -0.45651  -0.45560  -0.45516  -0.45218  -0.44827
 Alpha  occ. eigenvalues --   -0.44564  -0.44487  -0.44390  -0.44092  -0.44027
 Alpha  occ. eigenvalues --   -0.43676  -0.43503  -0.43356  -0.43101  -0.42796
 Alpha  occ. eigenvalues --   -0.42717  -0.42626  -0.42536  -0.42497  -0.42002
 Alpha  occ. eigenvalues --   -0.41885  -0.41593  -0.41414  -0.41286  -0.41234
 Alpha  occ. eigenvalues --   -0.41043  -0.41020  -0.40727  -0.40558  -0.40462
 Alpha  occ. eigenvalues --   -0.40197  -0.39619  -0.39495  -0.38658  -0.38457
 Alpha  occ. eigenvalues --   -0.38177  -0.38055  -0.37907  -0.37623  -0.37546
 Alpha  occ. eigenvalues --   -0.37206  -0.36905  -0.36751  -0.36648  -0.35756
 Alpha  occ. eigenvalues --   -0.35702  -0.35172  -0.34802  -0.34630  -0.34361
 Alpha  occ. eigenvalues --   -0.34142  -0.33690  -0.33310  -0.31550  -0.31156
 Alpha  occ. eigenvalues --   -0.30109  -0.29872  -0.29830  -0.29692  -0.23991
 Alpha  occ. eigenvalues --   -0.21597
 Alpha virt. eigenvalues --   -0.08733  -0.02417   0.00310   0.01257   0.02697
 Alpha virt. eigenvalues --    0.04589   0.04929   0.05894   0.06733   0.07186
 Alpha virt. eigenvalues --    0.07600   0.08253   0.08534   0.08586   0.08892

 Mulliken charges:
               1
     1  Mg   0.808746
     2  C    0.023653
     3  C   -0.088902
     4  C   -0.062938
     5  C   -0.073627
     6  N   -0.295002
     7  C   -0.047141
     8  C    0.019151
     9  C   -0.077860
    10  C    0.021623
    11  C    0.072301
    12  C    0.009827
    13  C    0.014186
    14  C    0.189613
    15  O   -0.222934
    16  O   -0.350249
    17  N   -0.396802
    18  C    0.210195
    19  C   -0.134256
    20  C   -0.031526
    21  C    0.179595
    22  C    0.132868
    23  C   -0.001105
    24  O   -0.201797
    25  C    0.058442
    26  N   -0.195122
    27  C   -0.058562
    28  C   -0.040356
    29  C   -0.044923
    30  C   -0.017837
    31  C    0.080313
    32  C    0.009187
    33  C    0.015725
    34  N   -0.260336
    35  C    0.115887
    36  C   -0.175789
    37  C    0.057005
    38  C    0.069005
    39  C    0.144260
    40  C   -0.010130
    41  O   -0.163203
    42  C   -0.075281
    43  C    0.217097
    44  O   -0.244920
    45  O   -0.320445
    46  C    0.181777
    47  C    0.313685
    48  C   -0.148443
    49  C   -0.166055
    50  C    0.087541
    51  C    0.035257
    52  C    0.036042
    53  C    0.061485
    54  C   -0.142386
    55  C    0.062412
    56  C    0.055056
    57  C   -0.010989
    58  C    0.093494
    59  C   -0.110653
    60  C    0.015966
    61  C    0.043444
    62  C    0.017664
    63  C    0.061741
    64  C   -0.168531
    65  C    0.066355
    66  C    0.027551
    67  H   -0.037798
    68  H   -0.060183
    69  H   -0.025046
    70  H    0.018546
    71  H    0.011246
    72  H    0.019320
    73  H    0.024854
    74  H    0.022689
    75  H    0.029228
    76  H    0.017381
    77  H    0.040237
    78  H    0.048576
    79  H    0.014081
    80  H    0.018616
    81  H    0.027890
    82  H    0.027073
    83  H    0.058918
    84  H    0.017474
    85  H    0.017281
    86  H    0.021513
    87  H    0.016719
    88  H    0.028881
    89  H    0.020998
    90  H    0.020809
    91  H   -0.007406
    92  H    0.006420
    93  H    0.012502
    94  H    0.028277
    95  H    0.009527
    96  H    0.043297
    97  H    0.047305
    98  H    0.044287
    99  H    0.048523
   100  H    0.013062
   101  H    0.037796
   102  H    0.027532
   103  H    0.037719
   104  H   -0.004624
   105  H    0.014844
   106  H    0.010442
   107  H    0.015527
   108  H   -0.005992
   109  H   -0.015974
   110  H    0.007202
   111  H    0.007355
   112  H   -0.005969
   113  H    0.004607
   114  H    0.000583
   115  H    0.002349
   116  H    0.018986
   117  H    0.012795
   118  H   -0.009690
   119  H   -0.018145
   120  H    0.001394
   121  H   -0.004080
   122  H   -0.007539
   123  H   -0.024544
   124  H   -0.005766
   125  H    0.008109
   126  H    0.008588
   127  H   -0.000456
   128  H   -0.004720
   129  H   -0.013121
   130  H   -0.007419
   131  H    0.005665
   132  H   -0.001752
   133  H   -0.020896
   134  H   -0.008328
   135  H    0.005312
   136  H   -0.005017
   137  H    0.023200
   138  H    0.000604
   139  H   -0.000193
   140  H   -0.001531
 Sum of Mulliken charges =  -0.00000

 Dipole moment (field-independent basis, Debye):
    X=              0.5512    Y=              4.1049    Z=              0.4812  Tot=              4.1696
 Quadrupole moment (field-independent basis, Debye-Ang):
   XX=           -392.1114   YY=           -413.9714   ZZ=           -406.4032
   XY=             20.1038   XZ=             -8.6381   YZ=             52.0063

 Normal termination of Gaussian 16 at Wed May  4 13:10:19 2022.
