 Gaussian 16, Revision A.03,
 Gaussian 16:  ES64L-G16RevA.03 25-Dec-2016

 ---------------------------------
 #p PBE1PBE/Def2SVP td=(nstates=5)
 ---------------------------------

 -----------------------------------------------------
 step_1751_chromophore_8 TDDFT with PBE1PBE functional
 -----------------------------------------------------
 Symbolic Z-matrix:
 Charge =  0 Multiplicity = 1

                         Standard orientation:
 ---------------------------------------------------------------------
 Center     Atomic      Atomic             Coordinates (Angstroms)
 Number     Number       Type             X           Y           Z
 ---------------------------------------------------------------------
      1         12           0        4.659772    0.915130    0.092979
      2          6           0        4.143228   -2.503991    0.475816
      3          6           0        4.462153    0.608425   -3.199281
      4          6           0        4.391068    4.246382   -0.094030
      5          6           0        4.292294    1.227929    3.660558
      6          7           0        4.233504   -0.787045   -1.142141
      7          6           0        4.240344   -2.099687   -0.888854
      8          6           0        4.353562   -2.968350   -2.112690
      9          6           0        4.702555   -1.891892   -3.212604
     10          6           0        4.507427   -0.587456   -2.479756
     11          6           0        6.152062   -2.076526   -3.793748
     12          6           0        2.984697   -3.732425   -2.393554
     13          6           0        1.600982   -3.018298   -2.282177
     14          6           0        0.387953   -3.791854   -1.713835
     15          8           0        0.313723   -5.003887   -1.561718
     16          8           0       -0.694496   -2.943294   -1.522151
     17          7           0        4.383706    2.234769   -1.471690
     18          6           0        4.320127    1.923247   -2.775546
     19          6           0        4.126274    3.064559   -3.504658
     20          6           0        4.122665    4.206502   -2.662861
     21          6           0        4.348593    3.619648   -1.328629
     22          6           0        3.972225    2.973342   -4.992162
     23          6           0        4.010222    5.654600   -3.081075
     24          8           0        3.825093    5.929349   -4.260820
     25          6           0        3.928103    6.695258   -2.067723
     26          7           0        4.379381    2.519860    1.638649
     27          6           0        4.487619    3.791434    1.262498
     28          6           0        4.763949    4.773929    2.397377
     29          6           0        4.774475    3.749508    3.637759
     30          6           0        4.363604    2.442769    2.945995
     31          6           0        6.099814    5.541847    2.243014
     32          6           0        3.740700    4.065340    4.793436
     33          6           0        4.295626    4.638961    6.122579
     34          7           0        4.491976   -0.434225    1.812207
     35          6           0        4.291594   -0.121928    3.132798
     36          6           0        4.079343   -1.340340    3.876634
     37          6           0        4.067829   -2.334275    2.885527
     38          6           0        4.259147   -1.688953    1.626073
     39          6           0        3.801890   -1.506428    5.295762
     40          6           0        3.885278   -3.692943    2.703215
     41          8           0        3.677237   -4.608935    3.468737
     42          6           0        3.832752   -3.886191    1.103328
     43          6           0        4.883223   -4.868122    0.853347
     44          8           0        6.079977   -4.660023    1.100777
     45          8           0        4.345649   -5.952236    0.220196
     46          6           0        5.215587   -7.035047   -0.280113
     47          6           0       -1.826097   -3.417540   -0.753048
     48          6           0       -2.897262   -2.390653   -0.627553
     49          6           0       -3.936086   -2.311731    0.142792
     50          6           0       -4.463677   -3.417648    0.996883
     51          6           0       -4.906606   -1.108704   -0.025354
     52          6           0       -5.734834   -1.049290   -1.362725
     53          6           0       -5.365921    0.105211   -2.345321
     54          6           0       -6.657395    0.727879   -2.847796
     55          6           0       -6.439081    1.269718   -4.284474
     56          6           0       -7.036314    1.866456   -1.875997
     57          6           0       -8.586643    1.789351   -1.409223
     58          6           0       -8.685565    1.477920    0.056982
     59          6           0      -10.081390    1.581836    0.611499
     60          6           0      -10.118379    2.529246    1.849825
     61          6           0      -10.745855    0.302662    1.154826
     62          6           0      -12.013084   -0.212346    0.305399
     63          6           0      -13.125343   -0.686287    1.261370
     64          6           0      -14.211853    0.334175    1.363238
     65          6           0      -15.404775    0.348291    0.399209
     66          6           0      -14.880840    0.206542    2.724675
     67          1           0        4.530427    0.335835   -4.254460
     68          1           0        4.280244    5.331978   -0.051165
     69          1           0        4.242896    1.415370    4.735011
     70          1           0        5.111331   -3.751141   -2.066196
     71          1           0        4.014953   -1.980846   -4.053759
     72          1           0        6.721660   -1.219609   -3.433485
     73          1           0        6.010992   -2.089497   -4.874265
     74          1           0        6.677310   -2.959903   -3.430961
     75          1           0        2.960148   -4.396225   -1.528779
     76          1           0        3.017137   -4.338732   -3.298275
     77          1           0        1.456508   -2.825920   -3.344626
     78          1           0        1.689245   -2.055155   -1.778376
     79          1           0        4.340591    2.119682   -5.560772
     80          1           0        4.668834    3.769795   -5.255302
     81          1           0        3.056861    3.415604   -5.385875
     82          1           0        4.952404    6.823713   -1.716858
     83          1           0        3.270620    6.606298   -1.203375
     84          1           0        3.722786    7.668568   -2.513128
     85          1           0        3.923908    5.468422    2.366530
     86          1           0        5.798158    3.735561    4.013189
     87          1           0        5.857409    6.486120    1.755356
     88          1           0        6.843298    4.988896    1.669577
     89          1           0        6.436423    5.738896    3.261733
     90          1           0        2.996773    3.285533    4.951957
     91          1           0        3.176163    4.884946    4.349540
     92          1           0        5.373095    4.607998    5.965537
     93          1           0        4.155732    3.999505    6.994570
     94          1           0        3.804243    5.582292    6.359014
     95          1           0        3.474041   -0.558779    5.723367
     96          1           0        4.774403   -1.795676    5.696796
     97          1           0        3.035446   -2.278803    5.354771
     98          1           0        2.848740   -4.302347    0.884520
     99          1           0        6.280929   -6.823999   -0.376370
    100          1           0        4.928509   -7.287451   -1.300668
    101          1           0        5.011904   -8.028328    0.121288
    102          1           0       -1.473203   -3.549017    0.269684
    103          1           0       -2.263491   -4.333759   -1.150921
    104          1           0       -2.708358   -1.517195   -1.251718
    105          1           0       -4.653879   -3.094705    2.020676
    106          1           0       -3.875688   -4.334191    1.021901
    107          1           0       -5.439749   -3.672030    0.584860
    108          1           0       -4.266321   -0.231242    0.069174
    109          1           0       -5.446620   -0.896704    0.896463
    110          1           0       -6.775309   -1.025700   -1.039872
    111          1           0       -5.592927   -2.013978   -1.849004
    112          1           0       -4.765855   -0.282096   -3.168701
    113          1           0       -4.711473    0.797266   -1.814697
    114          1           0       -7.519039    0.062652   -2.791308
    115          1           0       -6.574292    0.306521   -4.778128
    116          1           0       -5.399714    1.589489   -4.361175
    117          1           0       -7.211061    1.917844   -4.699806
    118          1           0       -6.737583    2.870800   -2.176395
    119          1           0       -6.453968    1.777065   -0.959762
    120          1           0       -9.131580    1.057332   -2.005476
    121          1           0       -9.059411    2.754135   -1.590160
    122          1           0       -7.963590    2.016524    0.670378
    123          1           0       -8.338050    0.450114    0.163635
    124          1           0      -10.817246    1.939727   -0.107953
    125          1           0       -9.536165    2.088073    2.658608
    126          1           0      -11.130564    2.701773    2.216652
    127          1           0       -9.703931    3.523406    1.682482
    128          1           0      -10.950672    0.442680    2.215675
    129          1           0      -10.079353   -0.559692    1.185350
    130          1           0      -11.723391   -1.086072   -0.278442
    131          1           0      -12.340096    0.515604   -0.437592
    132          1           0      -12.737154   -0.876534    2.262602
    133          1           0      -13.607467   -1.634954    1.025548
    134          1           0      -13.729938    1.301352    1.218458
    135          1           0      -16.102479   -0.427827    0.713567
    136          1           0      -15.017860    0.075748   -0.582909
    137          1           0      -15.831607    1.345291    0.508448
    138          1           0      -15.965427    0.297347    2.781992
    139          1           0      -14.455458    0.931078    3.418086
    140          1           0      -14.700604   -0.745980    3.222870
 ---------------------------------------------------------------------

 SCF Done:  E(RPBE1PBE) =  -3005.32860745     A.U. after   15 cycles

 Excitation energies and oscillator strengths:

 Excited State   1:      Singlet-A      1.9186 eV  646.21 nm  f=0.3504  <S**2>=0.000
     245 -> 248       -0.19445
     246 -> 247        0.68439
 This state for optimization and/or second-order correction.
 Total Energy, E(TD-HF/TD-DFT) =  -3005.25809930
 Copying the excited state density for this state as the 1-particle RhoCI density.

 Excited State   2:      Singlet-A      2.2079 eV  561.55 nm  f=0.0967  <S**2>=0.000
     245 -> 247        0.64885
     246 -> 248        0.26549

 Excited State   3:      Singlet-A      2.8409 eV  436.42 nm  f=0.0007  <S**2>=0.000
     244 -> 247        0.67863
     244 -> 249       -0.14237

 Excited State   4:      Singlet-A      3.0417 eV  407.61 nm  f=0.0031  <S**2>=0.000
     242 -> 247        0.69188

 Excited State   5:      Singlet-A      3.1414 eV  394.68 nm  f=0.0050  <S**2>=0.000
     240 -> 247       -0.26854
     241 -> 247        0.60500
     246 -> 248       -0.19176

 The electronic state is 1-A.
 Alpha  occ. eigenvalues --  -46.93761 -19.25961 -19.25189 -19.20271 -19.19002
 Alpha  occ. eigenvalues --  -19.18859 -19.18456 -14.42135 -14.41741 -14.39150
 Alpha  occ. eigenvalues --  -14.38830 -10.36982 -10.35566 -10.32208 -10.30813
 Alpha  occ. eigenvalues --  -10.29392 -10.29024 -10.28949 -10.28844 -10.28659
 Alpha  occ. eigenvalues --  -10.28346 -10.28329 -10.27841 -10.26700 -10.26648
 Alpha  occ. eigenvalues --  -10.26562 -10.26362 -10.26212 -10.25945 -10.25839
 Alpha  occ. eigenvalues --  -10.25500 -10.25371 -10.25155 -10.25143 -10.24783
 Alpha  occ. eigenvalues --  -10.24779 -10.24701 -10.24674 -10.24673 -10.24603
 Alpha  occ. eigenvalues --  -10.24396 -10.24028 -10.23592 -10.23528 -10.23485
 Alpha  occ. eigenvalues --  -10.23376 -10.23041 -10.23037 -10.22954 -10.22873
 Alpha  occ. eigenvalues --  -10.22741 -10.22717 -10.22484 -10.22469 -10.22396
 Alpha  occ. eigenvalues --  -10.22273 -10.22248 -10.21969 -10.21956 -10.21855
 Alpha  occ. eigenvalues --  -10.21791 -10.21763 -10.21763 -10.21708 -10.21584
 Alpha  occ. eigenvalues --  -10.20992  -3.15684  -1.88510  -1.88078  -1.87887
 Alpha  occ. eigenvalues --   -1.10466  -1.09946  -1.04825  -1.04442  -1.02459
 Alpha  occ. eigenvalues --   -1.01290  -1.00799  -0.99947  -0.99224  -0.98330
 Alpha  occ. eigenvalues --   -0.86276  -0.84681  -0.84159  -0.83745  -0.83506
 Alpha  occ. eigenvalues --   -0.83455  -0.83287  -0.82417  -0.82315  -0.82142
 Alpha  occ. eigenvalues --   -0.80965  -0.79998  -0.78626  -0.78107  -0.77785
 Alpha  occ. eigenvalues --   -0.77085  -0.76775  -0.75964  -0.75282  -0.74905
 Alpha  occ. eigenvalues --   -0.74219  -0.73007  -0.72295  -0.71809  -0.70547
 Alpha  occ. eigenvalues --   -0.70118  -0.69677  -0.69084  -0.68686  -0.68116
 Alpha  occ. eigenvalues --   -0.67879  -0.67412  -0.66732  -0.64984  -0.63968
 Alpha  occ. eigenvalues --   -0.63499  -0.62602  -0.62390  -0.61304  -0.61066
 Alpha  occ. eigenvalues --   -0.60527  -0.60166  -0.59809  -0.59083  -0.58373
 Alpha  occ. eigenvalues --   -0.57754  -0.57539  -0.57052  -0.56813  -0.54896
 Alpha  occ. eigenvalues --   -0.54486  -0.54041  -0.53834  -0.53452  -0.52860
 Alpha  occ. eigenvalues --   -0.51886  -0.51592  -0.51332  -0.50824  -0.50447
 Alpha  occ. eigenvalues --   -0.49775  -0.49133  -0.48883  -0.48582  -0.48327
 Alpha  occ. eigenvalues --   -0.48115  -0.47855  -0.47725  -0.47579  -0.47331
 Alpha  occ. eigenvalues --   -0.47002  -0.46921  -0.46798  -0.46725  -0.46526
 Alpha  occ. eigenvalues --   -0.46206  -0.46131  -0.45939  -0.45519  -0.45262
 Alpha  occ. eigenvalues --   -0.44981  -0.44872  -0.44691  -0.44583  -0.44318
 Alpha  occ. eigenvalues --   -0.44284  -0.44155  -0.43952  -0.43826  -0.43598
 Alpha  occ. eigenvalues --   -0.43143  -0.42911  -0.42870  -0.42766  -0.42469
 Alpha  occ. eigenvalues --   -0.41896  -0.41745  -0.41711  -0.41422  -0.41303
 Alpha  occ. eigenvalues --   -0.41266  -0.41074  -0.40771  -0.40714  -0.40620
 Alpha  occ. eigenvalues --   -0.40376  -0.40284  -0.40148  -0.39947  -0.39563
 Alpha  occ. eigenvalues --   -0.39276  -0.39238  -0.39179  -0.38843  -0.38645
 Alpha  occ. eigenvalues --   -0.38465  -0.38275  -0.38059  -0.37821  -0.37723
 Alpha  occ. eigenvalues --   -0.37514  -0.37378  -0.37355  -0.37311  -0.36842
 Alpha  occ. eigenvalues --   -0.36703  -0.36347  -0.36180  -0.36150  -0.36116
 Alpha  occ. eigenvalues --   -0.35863  -0.35755  -0.35629  -0.35524  -0.35237
 Alpha  occ. eigenvalues --   -0.34940  -0.34542  -0.34239  -0.33437  -0.33187
 Alpha  occ. eigenvalues --   -0.33133  -0.32821  -0.32711  -0.32516  -0.32409
 Alpha  occ. eigenvalues --   -0.32235  -0.31982  -0.31634  -0.31505  -0.30681
 Alpha  occ. eigenvalues --   -0.30669  -0.30061  -0.29809  -0.29627  -0.29319
 Alpha  occ. eigenvalues --   -0.29191  -0.28886  -0.28172  -0.26902  -0.26160
 Alpha  occ. eigenvalues --   -0.25587  -0.25244  -0.25088  -0.24967  -0.20957
 Alpha  occ. eigenvalues --   -0.19203
 Alpha virt. eigenvalues --   -0.11222  -0.05845  -0.03866  -0.01888  -0.01404
 Alpha virt. eigenvalues --    0.00109   0.00775   0.01207   0.02745   0.03029
 Alpha virt. eigenvalues --    0.03952   0.04067   0.04886   0.05343   0.05552

 Mulliken charges:
               1
     1  Mg   0.947093
     2  C    0.023341
     3  C   -0.072640
     4  C   -0.067805
     5  C   -0.057710
     6  N   -0.394423
     7  C    0.017982
     8  C   -0.048000
     9  C   -0.153943
    10  C    0.047857
    11  C    0.017795
    12  C   -0.040319
    13  C   -0.061275
    14  C    0.253903
    15  O   -0.256458
    16  O   -0.383858
    17  N   -0.514826
    18  C    0.234475
    19  C   -0.170869
    20  C   -0.074771
    21  C    0.209793
    22  C    0.081197
    23  C    0.049655
    24  O   -0.239282
    25  C   -0.018289
    26  N   -0.303260
    27  C   -0.012312
    28  C   -0.117165
    29  C   -0.122554
    30  C    0.025562
    31  C    0.020792
    32  C   -0.049002
    33  C   -0.054910
    34  N   -0.392545
    35  C    0.138944
    36  C   -0.191861
    37  C    0.005531
    38  C    0.128812
    39  C    0.087088
    40  C    0.084888
    41  O   -0.210043
    42  C   -0.189129
    43  C    0.315615
    44  O   -0.279382
    45  O   -0.355741
    46  C    0.128391
    47  C    0.277562
    48  C   -0.155378
    49  C   -0.219498
    50  C    0.025435
    51  C   -0.021741
    52  C   -0.026126
    53  C    0.004816
    54  C   -0.236726
    55  C   -0.000540
    56  C    0.013371
    57  C   -0.079053
    58  C    0.039280
    59  C   -0.201550
    60  C   -0.050576
    61  C    0.001311
    62  C   -0.050440
    63  C    0.006053
    64  C   -0.256063
    65  C   -0.000856
    66  C   -0.034443
    67  H   -0.004922
    68  H   -0.025714
    69  H    0.006937
    70  H    0.054739
    71  H    0.047289
    72  H    0.047834
    73  H    0.051186
    74  H    0.049357
    75  H    0.069365
    76  H    0.049050
    77  H    0.072592
    78  H    0.081637
    79  H    0.040021
    80  H    0.047512
    81  H    0.056507
    82  H    0.055662
    83  H    0.083114
    84  H    0.046061
    85  H    0.052349
    86  H    0.057253
    87  H    0.044333
    88  H    0.056537
    89  H    0.049670
    90  H    0.051216
    91  H    0.027479
    92  H    0.033877
    93  H    0.040362
    94  H    0.054768
    95  H    0.037196
    96  H    0.071821
    97  H    0.073992
    98  H    0.080477
    99  H    0.068611
   100  H    0.034400
   101  H    0.059115
   102  H    0.055026
   103  H    0.062898
   104  H    0.026812
   105  H    0.042895
   106  H    0.037053
   107  H    0.044116
   108  H    0.026583
   109  H    0.015192
   110  H    0.041056
   111  H    0.041042
   112  H    0.026201
   113  H    0.035724
   114  H    0.037382
   115  H    0.032424
   116  H    0.046751
   117  H    0.040938
   118  H    0.021682
   119  H    0.015453
   120  H    0.033356
   121  H    0.029809
   122  H    0.023328
   123  H    0.013207
   124  H    0.032298
   125  H    0.036865
   126  H    0.038105
   127  H    0.028805
   128  H    0.025799
   129  H    0.018992
   130  H    0.026376
   131  H    0.035470
   132  H    0.030810
   133  H    0.012074
   134  H    0.031164
   135  H    0.033729
   136  H    0.023969
   137  H    0.051492
   138  H    0.027789
   139  H    0.028515
   140  H    0.025958
 Sum of Mulliken charges =  -0.00000

 Dipole moment (field-independent basis, Debye):
    X=              0.5734    Y=              4.0634    Z=              0.5350  Tot=              4.1384
 Quadrupole moment (field-independent basis, Debye-Ang):
   XX=           -389.1463   YY=           -410.7149   ZZ=           -401.9519
   XY=             20.2531   XZ=             -8.8288   YZ=             52.9986

 Normal termination of Gaussian 16 at Wed May  4 13:28:26 2022.
