 Gaussian 16, Revision A.03,
 Gaussian 16:  ES64L-G16RevA.03 25-Dec-2016

 --------------------------------
 #p wB97XD/Def2SVP td=(nstates=5)
 --------------------------------

 ----------------------------------------------------
 step_1751_chromophore_8 TDDFT with wB97XD functional
 ----------------------------------------------------
 Symbolic Z-matrix:
 Charge =  0 Multiplicity = 1

                         Standard orientation:
 ---------------------------------------------------------------------
 Center     Atomic      Atomic             Coordinates (Angstroms)
 Number     Number       Type             X           Y           Z
 ---------------------------------------------------------------------
      1         12           0        4.659772    0.915130    0.092979
      2          6           0        4.143228   -2.503991    0.475816
      3          6           0        4.462153    0.608425   -3.199281
      4          6           0        4.391068    4.246382   -0.094030
      5          6           0        4.292294    1.227929    3.660558
      6          7           0        4.233504   -0.787045   -1.142141
      7          6           0        4.240344   -2.099687   -0.888854
      8          6           0        4.353562   -2.968350   -2.112690
      9          6           0        4.702555   -1.891892   -3.212604
     10          6           0        4.507427   -0.587456   -2.479756
     11          6           0        6.152062   -2.076526   -3.793748
     12          6           0        2.984697   -3.732425   -2.393554
     13          6           0        1.600982   -3.018298   -2.282177
     14          6           0        0.387953   -3.791854   -1.713835
     15          8           0        0.313723   -5.003887   -1.561718
     16          8           0       -0.694496   -2.943294   -1.522151
     17          7           0        4.383706    2.234769   -1.471690
     18          6           0        4.320127    1.923247   -2.775546
     19          6           0        4.126274    3.064559   -3.504658
     20          6           0        4.122665    4.206502   -2.662861
     21          6           0        4.348593    3.619648   -1.328629
     22          6           0        3.972225    2.973342   -4.992162
     23          6           0        4.010222    5.654600   -3.081075
     24          8           0        3.825093    5.929349   -4.260820
     25          6           0        3.928103    6.695258   -2.067723
     26          7           0        4.379381    2.519860    1.638649
     27          6           0        4.487619    3.791434    1.262498
     28          6           0        4.763949    4.773929    2.397377
     29          6           0        4.774475    3.749508    3.637759
     30          6           0        4.363604    2.442769    2.945995
     31          6           0        6.099814    5.541847    2.243014
     32          6           0        3.740700    4.065340    4.793436
     33          6           0        4.295626    4.638961    6.122579
     34          7           0        4.491976   -0.434225    1.812207
     35          6           0        4.291594   -0.121928    3.132798
     36          6           0        4.079343   -1.340340    3.876634
     37          6           0        4.067829   -2.334275    2.885527
     38          6           0        4.259147   -1.688953    1.626073
     39          6           0        3.801890   -1.506428    5.295762
     40          6           0        3.885278   -3.692943    2.703215
     41          8           0        3.677237   -4.608935    3.468737
     42          6           0        3.832752   -3.886191    1.103328
     43          6           0        4.883223   -4.868122    0.853347
     44          8           0        6.079977   -4.660023    1.100777
     45          8           0        4.345649   -5.952236    0.220196
     46          6           0        5.215587   -7.035047   -0.280113
     47          6           0       -1.826097   -3.417540   -0.753048
     48          6           0       -2.897262   -2.390653   -0.627553
     49          6           0       -3.936086   -2.311731    0.142792
     50          6           0       -4.463677   -3.417648    0.996883
     51          6           0       -4.906606   -1.108704   -0.025354
     52          6           0       -5.734834   -1.049290   -1.362725
     53          6           0       -5.365921    0.105211   -2.345321
     54          6           0       -6.657395    0.727879   -2.847796
     55          6           0       -6.439081    1.269718   -4.284474
     56          6           0       -7.036314    1.866456   -1.875997
     57          6           0       -8.586643    1.789351   -1.409223
     58          6           0       -8.685565    1.477920    0.056982
     59          6           0      -10.081390    1.581836    0.611499
     60          6           0      -10.118379    2.529246    1.849825
     61          6           0      -10.745855    0.302662    1.154826
     62          6           0      -12.013084   -0.212346    0.305399
     63          6           0      -13.125343   -0.686287    1.261370
     64          6           0      -14.211853    0.334175    1.363238
     65          6           0      -15.404775    0.348291    0.399209
     66          6           0      -14.880840    0.206542    2.724675
     67          1           0        4.530427    0.335835   -4.254460
     68          1           0        4.280244    5.331978   -0.051165
     69          1           0        4.242896    1.415370    4.735011
     70          1           0        5.111331   -3.751141   -2.066196
     71          1           0        4.014953   -1.980846   -4.053759
     72          1           0        6.721660   -1.219609   -3.433485
     73          1           0        6.010992   -2.089497   -4.874265
     74          1           0        6.677310   -2.959903   -3.430961
     75          1           0        2.960148   -4.396225   -1.528779
     76          1           0        3.017137   -4.338732   -3.298275
     77          1           0        1.456508   -2.825920   -3.344626
     78          1           0        1.689245   -2.055155   -1.778376
     79          1           0        4.340591    2.119682   -5.560772
     80          1           0        4.668834    3.769795   -5.255302
     81          1           0        3.056861    3.415604   -5.385875
     82          1           0        4.952404    6.823713   -1.716858
     83          1           0        3.270620    6.606298   -1.203375
     84          1           0        3.722786    7.668568   -2.513128
     85          1           0        3.923908    5.468422    2.366530
     86          1           0        5.798158    3.735561    4.013189
     87          1           0        5.857409    6.486120    1.755356
     88          1           0        6.843298    4.988896    1.669577
     89          1           0        6.436423    5.738896    3.261733
     90          1           0        2.996773    3.285533    4.951957
     91          1           0        3.176163    4.884946    4.349540
     92          1           0        5.373095    4.607998    5.965537
     93          1           0        4.155732    3.999505    6.994570
     94          1           0        3.804243    5.582292    6.359014
     95          1           0        3.474041   -0.558779    5.723367
     96          1           0        4.774403   -1.795676    5.696796
     97          1           0        3.035446   -2.278803    5.354771
     98          1           0        2.848740   -4.302347    0.884520
     99          1           0        6.280929   -6.823999   -0.376370
    100          1           0        4.928509   -7.287451   -1.300668
    101          1           0        5.011904   -8.028328    0.121288
    102          1           0       -1.473203   -3.549017    0.269684
    103          1           0       -2.263491   -4.333759   -1.150921
    104          1           0       -2.708358   -1.517195   -1.251718
    105          1           0       -4.653879   -3.094705    2.020676
    106          1           0       -3.875688   -4.334191    1.021901
    107          1           0       -5.439749   -3.672030    0.584860
    108          1           0       -4.266321   -0.231242    0.069174
    109          1           0       -5.446620   -0.896704    0.896463
    110          1           0       -6.775309   -1.025700   -1.039872
    111          1           0       -5.592927   -2.013978   -1.849004
    112          1           0       -4.765855   -0.282096   -3.168701
    113          1           0       -4.711473    0.797266   -1.814697
    114          1           0       -7.519039    0.062652   -2.791308
    115          1           0       -6.574292    0.306521   -4.778128
    116          1           0       -5.399714    1.589489   -4.361175
    117          1           0       -7.211061    1.917844   -4.699806
    118          1           0       -6.737583    2.870800   -2.176395
    119          1           0       -6.453968    1.777065   -0.959762
    120          1           0       -9.131580    1.057332   -2.005476
    121          1           0       -9.059411    2.754135   -1.590160
    122          1           0       -7.963590    2.016524    0.670378
    123          1           0       -8.338050    0.450114    0.163635
    124          1           0      -10.817246    1.939727   -0.107953
    125          1           0       -9.536165    2.088073    2.658608
    126          1           0      -11.130564    2.701773    2.216652
    127          1           0       -9.703931    3.523406    1.682482
    128          1           0      -10.950672    0.442680    2.215675
    129          1           0      -10.079353   -0.559692    1.185350
    130          1           0      -11.723391   -1.086072   -0.278442
    131          1           0      -12.340096    0.515604   -0.437592
    132          1           0      -12.737154   -0.876534    2.262602
    133          1           0      -13.607467   -1.634954    1.025548
    134          1           0      -13.729938    1.301352    1.218458
    135          1           0      -16.102479   -0.427827    0.713567
    136          1           0      -15.017860    0.075748   -0.582909
    137          1           0      -15.831607    1.345291    0.508448
    138          1           0      -15.965427    0.297347    2.781992
    139          1           0      -14.455458    0.931078    3.418086
    140          1           0      -14.700604   -0.745980    3.222870
 ---------------------------------------------------------------------

 SCF Done:  E(RwB97XD) =  -3007.83624011     A.U. after   18 cycles

 Excitation energies and oscillator strengths:

 Excited State   1:      Singlet-A      1.7116 eV  724.38 nm  f=0.3612  <S**2>=0.000
     245 -> 248        0.20489
     246 -> 247        0.67670
     245 <- 248        0.11767
 This state for optimization and/or second-order correction.
 Total Energy, E(TD-HF/TD-DFT) =  -3007.77334046
 Copying the excited state density for this state as the 1-particle RhoCI density.

 Excited State   2:      Singlet-A      2.1437 eV  578.37 nm  f=0.0958  <S**2>=0.000
     245 -> 247        0.63428
     246 -> 248       -0.29661

 Excited State   3:      Singlet-A      3.4100 eV  363.59 nm  f=0.0540  <S**2>=0.000
     241 -> 249       -0.10733
     242 -> 247        0.48363
     242 -> 249       -0.19416
     242 -> 251       -0.11597
     243 -> 247        0.20532
     244 -> 247       -0.20959
     246 -> 248        0.25741

 Excited State   4:      Singlet-A      3.4362 eV  360.81 nm  f=0.0121  <S**2>=0.000
     242 -> 247        0.27927
     243 -> 247       -0.31575
     244 -> 247        0.52403
     246 -> 248        0.12676

 Excited State   5:      Singlet-A      3.4736 eV  356.93 nm  f=0.2563  <S**2>=0.000
     241 -> 247        0.45116
     241 -> 249       -0.13313
     242 -> 247        0.10574
     242 -> 249       -0.12286
     245 -> 247       -0.17859
     246 -> 248       -0.43965

 The electronic state is 1-A.
 Alpha  occ. eigenvalues --  -46.96741 -19.30535 -19.29740 -19.24935 -19.23858
 Alpha  occ. eigenvalues --  -19.23573 -19.23199 -14.47138 -14.46946 -14.44149
 Alpha  occ. eigenvalues --  -14.43768 -10.43751 -10.42404 -10.39090 -10.37634
 Alpha  occ. eigenvalues --  -10.35695 -10.35512 -10.35361 -10.35251 -10.34998
 Alpha  occ. eigenvalues --  -10.34751 -10.34564 -10.34091 -10.32911 -10.32890
 Alpha  occ. eigenvalues --  -10.32790 -10.32790 -10.32540 -10.32141 -10.32072
 Alpha  occ. eigenvalues --  -10.31993 -10.31780 -10.31654 -10.31634 -10.31310
 Alpha  occ. eigenvalues --  -10.31118 -10.31109 -10.31072 -10.31034 -10.30901
 Alpha  occ. eigenvalues --  -10.30744 -10.30403 -10.30076 -10.29984 -10.29859
 Alpha  occ. eigenvalues --  -10.29833 -10.29412 -10.29313 -10.29308 -10.29191
 Alpha  occ. eigenvalues --  -10.29158 -10.29064 -10.28943 -10.28843 -10.28768
 Alpha  occ. eigenvalues --  -10.28615 -10.28531 -10.28371 -10.28302 -10.28214
 Alpha  occ. eigenvalues --  -10.28153 -10.28134 -10.28125 -10.28109 -10.28014
 Alpha  occ. eigenvalues --  -10.27404  -3.22547  -1.96118  -1.95686  -1.95492
 Alpha  occ. eigenvalues --   -1.17831  -1.17360  -1.12350  -1.11863  -1.09787
 Alpha  occ. eigenvalues --   -1.08678  -1.08183  -1.07288  -1.06572  -1.05727
 Alpha  occ. eigenvalues --   -0.93868  -0.92347  -0.91813  -0.91371  -0.91117
 Alpha  occ. eigenvalues --   -0.91075  -0.90914  -0.90033  -0.89953  -0.89753
 Alpha  occ. eigenvalues --   -0.88635  -0.87662  -0.86302  -0.85735  -0.85459
 Alpha  occ. eigenvalues --   -0.84796  -0.84425  -0.83607  -0.82903  -0.82540
 Alpha  occ. eigenvalues --   -0.81883  -0.80620  -0.79905  -0.79454  -0.78166
 Alpha  occ. eigenvalues --   -0.77719  -0.77337  -0.76775  -0.76353  -0.75782
 Alpha  occ. eigenvalues --   -0.75449  -0.74977  -0.74274  -0.72591  -0.71527
 Alpha  occ. eigenvalues --   -0.71030  -0.70191  -0.69959  -0.68920  -0.68619
 Alpha  occ. eigenvalues --   -0.67984  -0.67729  -0.67369  -0.66520  -0.66056
 Alpha  occ. eigenvalues --   -0.65415  -0.64980  -0.64459  -0.64452  -0.62380
 Alpha  occ. eigenvalues --   -0.61916  -0.61443  -0.61270  -0.60854  -0.60233
 Alpha  occ. eigenvalues --   -0.59436  -0.59049  -0.58775  -0.58285  -0.57834
 Alpha  occ. eigenvalues --   -0.57166  -0.56508  -0.56343  -0.55968  -0.55698
 Alpha  occ. eigenvalues --   -0.55407  -0.55292  -0.55159  -0.55031  -0.54763
 Alpha  occ. eigenvalues --   -0.54389  -0.54316  -0.54252  -0.54114  -0.53914
 Alpha  occ. eigenvalues --   -0.53591  -0.53491  -0.53293  -0.52863  -0.52615
 Alpha  occ. eigenvalues --   -0.52362  -0.52207  -0.52042  -0.51927  -0.51662
 Alpha  occ. eigenvalues --   -0.51573  -0.51523  -0.51233  -0.51160  -0.50900
 Alpha  occ. eigenvalues --   -0.50488  -0.50182  -0.50157  -0.50018  -0.49738
 Alpha  occ. eigenvalues --   -0.49168  -0.49015  -0.48985  -0.48667  -0.48551
 Alpha  occ. eigenvalues --   -0.48480  -0.48279  -0.47939  -0.47883  -0.47843
 Alpha  occ. eigenvalues --   -0.47530  -0.47453  -0.47389  -0.47138  -0.46787
 Alpha  occ. eigenvalues --   -0.46483  -0.46383  -0.46329  -0.46024  -0.45864
 Alpha  occ. eigenvalues --   -0.45607  -0.45417  -0.45197  -0.44955  -0.44790
 Alpha  occ. eigenvalues --   -0.44618  -0.44475  -0.44474  -0.44400  -0.43994
 Alpha  occ. eigenvalues --   -0.43804  -0.43496  -0.43278  -0.43174  -0.43148
 Alpha  occ. eigenvalues --   -0.42943  -0.42852  -0.42651  -0.42482  -0.42318
 Alpha  occ. eigenvalues --   -0.42033  -0.41514  -0.41319  -0.40496  -0.40269
 Alpha  occ. eigenvalues --   -0.40144  -0.39873  -0.39747  -0.39485  -0.39445
 Alpha  occ. eigenvalues --   -0.39197  -0.38949  -0.38682  -0.38542  -0.37718
 Alpha  occ. eigenvalues --   -0.37588  -0.37003  -0.36615  -0.36612  -0.36178
 Alpha  occ. eigenvalues --   -0.36055  -0.35850  -0.35310  -0.33575  -0.33283
 Alpha  occ. eigenvalues --   -0.32185  -0.31924  -0.31870  -0.31866  -0.25903
 Alpha  occ. eigenvalues --   -0.23403
 Alpha virt. eigenvalues --   -0.07073  -0.00496   0.02396   0.04331   0.04873
 Alpha virt. eigenvalues --    0.06998   0.07410   0.08017   0.09478   0.09587
 Alpha virt. eigenvalues --    0.10427   0.10895   0.11556   0.11998   0.12194

 Mulliken charges:
               1
     1  Mg   0.941397
     2  C    0.013391
     3  C   -0.095685
     4  C   -0.073361
     5  C   -0.077007
     6  N   -0.363914
     7  C   -0.010482
     8  C   -0.027030
     9  C   -0.130917
    10  C    0.040714
    11  C    0.027207
    12  C   -0.020530
    13  C   -0.045653
    14  C    0.245580
    15  O   -0.253283
    16  O   -0.381927
    17  N   -0.481605
    18  C    0.228426
    19  C   -0.156977
    20  C   -0.070827
    21  C    0.202379
    22  C    0.087127
    23  C    0.046573
    24  O   -0.232957
    25  C   -0.008006
    26  N   -0.265783
    27  C   -0.030308
    28  C   -0.092055
    29  C   -0.096416
    30  C    0.011335
    31  C    0.031525
    32  C   -0.036305
    33  C   -0.037558
    34  N   -0.350438
    35  C    0.128789
    36  C   -0.184465
    37  C    0.006352
    38  C    0.109760
    39  C    0.098170
    40  C    0.068532
    41  O   -0.200920
    42  C   -0.147065
    43  C    0.287438
    44  O   -0.274278
    45  O   -0.352755
    46  C    0.144427
    47  C    0.287850
    48  C   -0.166029
    49  C   -0.200319
    50  C    0.037621
    51  C   -0.004169
    52  C   -0.009411
    53  C    0.021304
    54  C   -0.200462
    55  C    0.012042
    56  C    0.022624
    57  C   -0.059837
    58  C    0.059005
    59  C   -0.171611
    60  C   -0.031541
    61  C    0.011205
    62  C   -0.030737
    63  C    0.021280
    64  C   -0.227968
    65  C    0.015076
    66  C   -0.022005
    67  H   -0.013193
    68  H   -0.039617
    69  H   -0.000317
    70  H    0.045891
    71  H    0.037826
    72  H    0.040483
    73  H    0.046454
    74  H    0.044514
    75  H    0.048673
    76  H    0.043968
    77  H    0.066360
    78  H    0.073137
    79  H    0.037300
    80  H    0.040513
    81  H    0.053705
    82  H    0.049342
    83  H    0.079784
    84  H    0.045108
    85  H    0.042891
    86  H    0.045338
    87  H    0.038812
    88  H    0.051085
    89  H    0.042721
    90  H    0.043886
    91  H    0.017904
    92  H    0.025800
    93  H    0.034446
    94  H    0.050070
    95  H    0.031418
    96  H    0.067348
    97  H    0.070391
    98  H    0.074772
    99  H    0.065670
   100  H    0.029596
   101  H    0.055270
   102  H    0.049279
   103  H    0.059146
   104  H    0.022353
   105  H    0.037580
   106  H    0.032716
   107  H    0.037051
   108  H    0.016102
   109  H    0.008784
   110  H    0.028581
   111  H    0.032237
   112  H    0.018706
   113  H    0.025284
   114  H    0.023110
   115  H    0.024614
   116  H    0.040518
   117  H    0.036270
   118  H    0.015881
   119  H    0.000378
   120  H    0.023886
   121  H    0.021276
   122  H    0.015023
   123  H   -0.004537
   124  H    0.017780
   125  H    0.028690
   126  H    0.030546
   127  H    0.022732
   128  H    0.014084
   129  H    0.011578
   130  H    0.019457
   131  H    0.025464
   132  H    0.019942
   133  H    0.004327
   134  H    0.016858
   135  H    0.025785
   136  H    0.017558
   137  H    0.045475
   138  H    0.021928
   139  H    0.022538
   140  H    0.019135
 Sum of Mulliken charges =  -0.00000

 Dipole moment (field-independent basis, Debye):
    X=              0.5972    Y=              4.1913    Z=              0.4687  Tot=              4.2595
 Quadrupole moment (field-independent basis, Debye-Ang):
   XX=           -388.4371   YY=           -409.7341   ZZ=           -401.7567
   XY=             20.5584   XZ=             -9.1122   YZ=             52.4984

 Normal termination of Gaussian 16 at Wed May  4 13:52:49 2022.
