 Gaussian 16, Revision A.03,
 Gaussian 16:  ES64L-G16RevA.03 25-Dec-2016

 --------------------
 #p ZINDO=(nstates=5)
 --------------------

 -----------------------------
 step_1751_chromophore_8 ZINDO
 -----------------------------
 Symbolic Z-matrix:
 Charge =  0 Multiplicity = 1

                         Standard orientation:
 ---------------------------------------------------------------------
 Center     Atomic      Atomic             Coordinates (Angstroms)
 Number     Number       Type             X           Y           Z
 ---------------------------------------------------------------------
      1         12           0        4.659772    0.915130    0.092979
      2          6           0        4.143228   -2.503991    0.475816
      3          6           0        4.462153    0.608425   -3.199281
      4          6           0        4.391068    4.246382   -0.094030
      5          6           0        4.292294    1.227929    3.660558
      6          7           0        4.233504   -0.787045   -1.142141
      7          6           0        4.240344   -2.099687   -0.888854
      8          6           0        4.353562   -2.968350   -2.112690
      9          6           0        4.702555   -1.891892   -3.212604
     10          6           0        4.507427   -0.587456   -2.479756
     11          6           0        6.152062   -2.076526   -3.793748
     12          6           0        2.984697   -3.732425   -2.393554
     13          6           0        1.600982   -3.018298   -2.282177
     14          6           0        0.387953   -3.791854   -1.713835
     15          8           0        0.313723   -5.003887   -1.561718
     16          8           0       -0.694496   -2.943294   -1.522151
     17          7           0        4.383706    2.234769   -1.471690
     18          6           0        4.320127    1.923247   -2.775546
     19          6           0        4.126274    3.064559   -3.504658
     20          6           0        4.122665    4.206502   -2.662861
     21          6           0        4.348593    3.619648   -1.328629
     22          6           0        3.972225    2.973342   -4.992162
     23          6           0        4.010222    5.654600   -3.081075
     24          8           0        3.825093    5.929349   -4.260820
     25          6           0        3.928103    6.695258   -2.067723
     26          7           0        4.379381    2.519860    1.638649
     27          6           0        4.487619    3.791434    1.262498
     28          6           0        4.763949    4.773929    2.397377
     29          6           0        4.774475    3.749508    3.637759
     30          6           0        4.363604    2.442769    2.945995
     31          6           0        6.099814    5.541847    2.243014
     32          6           0        3.740700    4.065340    4.793436
     33          6           0        4.295626    4.638961    6.122579
     34          7           0        4.491976   -0.434225    1.812207
     35          6           0        4.291594   -0.121928    3.132798
     36          6           0        4.079343   -1.340340    3.876634
     37          6           0        4.067829   -2.334275    2.885527
     38          6           0        4.259147   -1.688953    1.626073
     39          6           0        3.801890   -1.506428    5.295762
     40          6           0        3.885278   -3.692943    2.703215
     41          8           0        3.677237   -4.608935    3.468737
     42          6           0        3.832752   -3.886191    1.103328
     43          6           0        4.883223   -4.868122    0.853347
     44          8           0        6.079977   -4.660023    1.100777
     45          8           0        4.345649   -5.952236    0.220196
     46          6           0        5.215587   -7.035047   -0.280113
     47          6           0       -1.826097   -3.417540   -0.753048
     48          6           0       -2.897262   -2.390653   -0.627553
     49          6           0       -3.936086   -2.311731    0.142792
     50          6           0       -4.463677   -3.417648    0.996883
     51          6           0       -4.906606   -1.108704   -0.025354
     52          6           0       -5.734834   -1.049290   -1.362725
     53          6           0       -5.365921    0.105211   -2.345321
     54          6           0       -6.657395    0.727879   -2.847796
     55          6           0       -6.439081    1.269718   -4.284474
     56          6           0       -7.036314    1.866456   -1.875997
     57          6           0       -8.586643    1.789351   -1.409223
     58          6           0       -8.685565    1.477920    0.056982
     59          6           0      -10.081390    1.581836    0.611499
     60          6           0      -10.118379    2.529246    1.849825
     61          6           0      -10.745855    0.302662    1.154826
     62          6           0      -12.013084   -0.212346    0.305399
     63          6           0      -13.125343   -0.686287    1.261370
     64          6           0      -14.211853    0.334175    1.363238
     65          6           0      -15.404775    0.348291    0.399209
     66          6           0      -14.880840    0.206542    2.724675
     67          1           0        4.530427    0.335835   -4.254460
     68          1           0        4.280244    5.331978   -0.051165
     69          1           0        4.242896    1.415370    4.735011
     70          1           0        5.111331   -3.751141   -2.066196
     71          1           0        4.014953   -1.980846   -4.053759
     72          1           0        6.721660   -1.219609   -3.433485
     73          1           0        6.010992   -2.089497   -4.874265
     74          1           0        6.677310   -2.959903   -3.430961
     75          1           0        2.960148   -4.396225   -1.528779
     76          1           0        3.017137   -4.338732   -3.298275
     77          1           0        1.456508   -2.825920   -3.344626
     78          1           0        1.689245   -2.055155   -1.778376
     79          1           0        4.340591    2.119682   -5.560772
     80          1           0        4.668834    3.769795   -5.255302
     81          1           0        3.056861    3.415604   -5.385875
     82          1           0        4.952404    6.823713   -1.716858
     83          1           0        3.270620    6.606298   -1.203375
     84          1           0        3.722786    7.668568   -2.513128
     85          1           0        3.923908    5.468422    2.366530
     86          1           0        5.798158    3.735561    4.013189
     87          1           0        5.857409    6.486120    1.755356
     88          1           0        6.843298    4.988896    1.669577
     89          1           0        6.436423    5.738896    3.261733
     90          1           0        2.996773    3.285533    4.951957
     91          1           0        3.176163    4.884946    4.349540
     92          1           0        5.373095    4.607998    5.965537
     93          1           0        4.155732    3.999505    6.994570
     94          1           0        3.804243    5.582292    6.359014
     95          1           0        3.474041   -0.558779    5.723367
     96          1           0        4.774403   -1.795676    5.696796
     97          1           0        3.035446   -2.278803    5.354771
     98          1           0        2.848740   -4.302347    0.884520
     99          1           0        6.280929   -6.823999   -0.376370
    100          1           0        4.928509   -7.287451   -1.300668
    101          1           0        5.011904   -8.028328    0.121288
    102          1           0       -1.473203   -3.549017    0.269684
    103          1           0       -2.263491   -4.333759   -1.150921
    104          1           0       -2.708358   -1.517195   -1.251718
    105          1           0       -4.653879   -3.094705    2.020676
    106          1           0       -3.875688   -4.334191    1.021901
    107          1           0       -5.439749   -3.672030    0.584860
    108          1           0       -4.266321   -0.231242    0.069174
    109          1           0       -5.446620   -0.896704    0.896463
    110          1           0       -6.775309   -1.025700   -1.039872
    111          1           0       -5.592927   -2.013978   -1.849004
    112          1           0       -4.765855   -0.282096   -3.168701
    113          1           0       -4.711473    0.797266   -1.814697
    114          1           0       -7.519039    0.062652   -2.791308
    115          1           0       -6.574292    0.306521   -4.778128
    116          1           0       -5.399714    1.589489   -4.361175
    117          1           0       -7.211061    1.917844   -4.699806
    118          1           0       -6.737583    2.870800   -2.176395
    119          1           0       -6.453968    1.777065   -0.959762
    120          1           0       -9.131580    1.057332   -2.005476
    121          1           0       -9.059411    2.754135   -1.590160
    122          1           0       -7.963590    2.016524    0.670378
    123          1           0       -8.338050    0.450114    0.163635
    124          1           0      -10.817246    1.939727   -0.107953
    125          1           0       -9.536165    2.088073    2.658608
    126          1           0      -11.130564    2.701773    2.216652
    127          1           0       -9.703931    3.523406    1.682482
    128          1           0      -10.950672    0.442680    2.215675
    129          1           0      -10.079353   -0.559692    1.185350
    130          1           0      -11.723391   -1.086072   -0.278442
    131          1           0      -12.340096    0.515604   -0.437592
    132          1           0      -12.737154   -0.876534    2.262602
    133          1           0      -13.607467   -1.634954    1.025548
    134          1           0      -13.729938    1.301352    1.218458
    135          1           0      -16.102479   -0.427827    0.713567
    136          1           0      -15.017860    0.075748   -0.582909
    137          1           0      -15.831607    1.345291    0.508448
    138          1           0      -15.965427    0.297347    2.781992
    139          1           0      -14.455458    0.931078    3.418086
    140          1           0      -14.700604   -0.745980    3.222870
 ---------------------------------------------------------------------

 SCF Done:  E(RZINDO/S) =  -474.669400706     A.U. after   20 cycles

 Excitation energies and oscillator strengths:

 Excited State   1:      Singlet-A      1.2645 eV  980.47 nm  f=0.5653  <S**2>=0.000
     175 ->178         0.20866
     176 ->177         0.65678
 This state for optimization and/or second-order correction.
 Total Energy, E(CIS/TDA) =  -474.622929943
 Copying the excited state density for this state as the 1-particle RhoCI density.

 Excited State   2:      Singlet-A      1.8617 eV  665.98 nm  f=0.0390  <S**2>=0.000
     175 ->177         0.54493
     176 ->178        -0.42573

 Excited State   3:      Singlet-A      2.9207 eV  424.50 nm  f=0.4461  <S**2>=0.000
     170 ->177         0.24780
     170 ->179         0.24494
     170 ->181         0.13340
     170 ->182        -0.12830
     170 ->185         0.13122
     170 ->187        -0.10011
     174 ->177         0.12832
     175 ->177         0.25475
     176 ->178         0.35614
     176 ->180         0.16906

 Excited State   4:      Singlet-A      2.9388 eV  421.88 nm  f=0.4718  <S**2>=0.000
     170 ->177         0.27279
     170 ->179         0.25703
     170 ->181         0.14254
     170 ->182        -0.13683
     170 ->185         0.13511
     170 ->187        -0.10925
     175 ->177        -0.24280
     176 ->178        -0.33085
     176 ->179        -0.14616
     176 ->180        -0.18277

 Excited State   5:      Singlet-A      2.9666 eV  417.94 nm  f=0.0223  <S**2>=0.000
     168 ->177         0.29366
     168 ->178        -0.18894
     168 ->179        -0.32556
     168 ->181         0.26309
     168 ->182        -0.24261
     168 ->185        -0.23331
     168 ->187        -0.10687

 The electronic state is 1-A.
 Alpha  occ. eigenvalues --   -1.86291  -1.83622  -1.82485  -1.74117  -1.71393
 Alpha  occ. eigenvalues --   -1.70817  -1.66289  -1.62813  -1.60289  -1.58377
 Alpha  occ. eigenvalues --   -1.56671  -1.53029  -1.48563  -1.48302  -1.47181
 Alpha  occ. eigenvalues --   -1.43638  -1.42810  -1.41682  -1.39497  -1.38615
 Alpha  occ. eigenvalues --   -1.36477  -1.36057  -1.32657  -1.31980  -1.29467
 Alpha  occ. eigenvalues --   -1.28493  -1.27668  -1.23344  -1.22269  -1.19028
 Alpha  occ. eigenvalues --   -1.18080  -1.16130  -1.14816  -1.13699  -1.13493
 Alpha  occ. eigenvalues --   -1.12190  -1.10397  -1.09808  -1.05720  -1.04436
 Alpha  occ. eigenvalues --   -1.02833  -1.01681  -0.99869  -0.98155  -0.97215
 Alpha  occ. eigenvalues --   -0.95696  -0.95201  -0.93944  -0.93482  -0.92581
 Alpha  occ. eigenvalues --   -0.92279  -0.91874  -0.89872  -0.88866  -0.87970
 Alpha  occ. eigenvalues --   -0.86981  -0.84915  -0.83753  -0.82044  -0.80251
 Alpha  occ. eigenvalues --   -0.79550  -0.78559  -0.77621  -0.77187  -0.76193
 Alpha  occ. eigenvalues --   -0.75378  -0.75322  -0.74689  -0.73968  -0.73779
 Alpha  occ. eigenvalues --   -0.73365  -0.72734  -0.71864  -0.71486  -0.70971
 Alpha  occ. eigenvalues --   -0.70683  -0.69514  -0.68658  -0.68328  -0.67716
 Alpha  occ. eigenvalues --   -0.66980  -0.66746  -0.66541  -0.66405  -0.65674
 Alpha  occ. eigenvalues --   -0.65139  -0.64950  -0.64689  -0.64317  -0.63821
 Alpha  occ. eigenvalues --   -0.63789  -0.63015  -0.62823  -0.62347  -0.61804
 Alpha  occ. eigenvalues --   -0.61427  -0.61240  -0.60977  -0.60719  -0.60606
 Alpha  occ. eigenvalues --   -0.60289  -0.59640  -0.58861  -0.58786  -0.58470
 Alpha  occ. eigenvalues --   -0.57957  -0.57227  -0.56925  -0.56527  -0.55997
 Alpha  occ. eigenvalues --   -0.55880  -0.55627  -0.55351  -0.55080  -0.54539
 Alpha  occ. eigenvalues --   -0.54364  -0.54056  -0.53143  -0.53078  -0.52561
 Alpha  occ. eigenvalues --   -0.52481  -0.52403  -0.52063  -0.51764  -0.51675
 Alpha  occ. eigenvalues --   -0.50944  -0.50710  -0.50626  -0.50531  -0.50066
 Alpha  occ. eigenvalues --   -0.49710  -0.49533  -0.49445  -0.49058  -0.48995
 Alpha  occ. eigenvalues --   -0.48903  -0.48693  -0.48093  -0.47966  -0.47779
 Alpha  occ. eigenvalues --   -0.47061  -0.46770  -0.46552  -0.46381  -0.46344
 Alpha  occ. eigenvalues --   -0.45974  -0.45854  -0.45688  -0.45446  -0.45175
 Alpha  occ. eigenvalues --   -0.44970  -0.44960  -0.44549  -0.44202  -0.44069
 Alpha  occ. eigenvalues --   -0.43428  -0.42672  -0.42600  -0.42476  -0.42092
 Alpha  occ. eigenvalues --   -0.42025  -0.41767  -0.40667  -0.39452  -0.38977
 Alpha  occ. eigenvalues --   -0.37912  -0.37223  -0.35589  -0.35077  -0.34105
 Alpha  occ. eigenvalues --   -0.32967  -0.32552  -0.32547  -0.32175  -0.26442
 Alpha  occ. eigenvalues --   -0.22071
 Alpha virt. eigenvalues --   -0.08528  -0.02695  -0.00584   0.00907   0.01495
 Alpha virt. eigenvalues --    0.01535   0.02917   0.03085   0.04703   0.05744
 Alpha virt. eigenvalues --    0.06190   0.07020   0.07425   0.07730   0.08077

 Mulliken charges:
               1
     1  Mg   0.436489
     2  C   -0.068282
     3  C   -0.083200
     4  C   -0.079839
     5  C   -0.068481
     6  N   -0.286910
     7  C    0.153563
     8  C    0.008053
     9  C   -0.004200
    10  C    0.125078
    11  C   -0.054097
    12  C   -0.034784
    13  C    0.004911
    14  C    0.468152
    15  O   -0.504885
    16  O   -0.279281
    17  N   -0.334600
    18  C    0.127876
    19  C    0.047937
    20  C   -0.056599
    21  C    0.105824
    22  C   -0.058694
    23  C    0.341575
    24  O   -0.524571
    25  C   -0.026604
    26  N   -0.241117
    27  C    0.122036
    28  C   -0.004222
    29  C   -0.000386
    30  C    0.107551
    31  C   -0.047432
    32  C   -0.039944
    33  C   -0.062129
    34  N   -0.309845
    35  C    0.076287
    36  C    0.055796
    37  C   -0.064341
    38  C    0.142739
    39  C   -0.034386
    40  C    0.334828
    41  O   -0.530126
    42  C    0.046041
    43  C    0.499588
    44  O   -0.544964
    45  O   -0.260070
    46  C    0.066834
    47  C    0.113616
    48  C   -0.069640
    49  C   -0.009173
    50  C   -0.041716
    51  C   -0.038432
    52  C   -0.031220
    53  C   -0.023064
    54  C   -0.007069
    55  C   -0.066709
    56  C   -0.051045
    57  C   -0.037108
    58  C   -0.019512
    59  C   -0.009300
    60  C   -0.056576
    61  C   -0.040935
    62  C   -0.039335
    63  C   -0.025595
    64  C   -0.009226
    65  C   -0.054462
    66  C   -0.059006
    67  H    0.021636
    68  H    0.019521
    69  H    0.029168
    70  H    0.043995
    71  H    0.028279
    72  H    0.025605
    73  H    0.024886
    74  H    0.029041
    75  H    0.020320
    76  H    0.032002
    77  H    0.042990
    78  H    0.043581
    79  H    0.032199
    80  H    0.027004
    81  H    0.043758
    82  H    0.033865
    83  H    0.043378
    84  H    0.027449
    85  H    0.037443
    86  H    0.041725
    87  H    0.019249
    88  H    0.032773
    89  H    0.020863
    90  H    0.031282
    91  H    0.009409
    92  H    0.024124
    93  H    0.017191
    94  H    0.029805
    95  H    0.023438
    96  H    0.046739
    97  H    0.044763
    98  H    0.055217
    99  H    0.054123
   100  H    0.019418
   101  H    0.046910
   102  H    0.045239
   103  H    0.058571
   104  H    0.020070
   105  H    0.025372
   106  H    0.021621
   107  H    0.023723
   108  H    0.010298
   109  H    0.019340
   110  H    0.020840
   111  H    0.019715
   112  H    0.015275
   113  H    0.025975
   114  H    0.030522
   115  H    0.008998
   116  H    0.031241
   117  H    0.027159
   118  H    0.021310
   119  H    0.009438
   120  H    0.024047
   121  H    0.013810
   122  H    0.022657
   123  H    0.010060
   124  H    0.023326
   125  H    0.017286
   126  H    0.013585
   127  H    0.006503
   128  H    0.024526
   129  H    0.011469
   130  H    0.010612
   131  H    0.027425
   132  H    0.017645
   133  H    0.015070
   134  H    0.015567
   135  H    0.020445
   136  H    0.013699
   137  H    0.027539
   138  H    0.015652
   139  H    0.006785
   140  H    0.012771
 Sum of Mulliken charges =  -0.00000

 Dipole moment (field-independent basis, Debye):
    X=              0.5940    Y=              5.2775    Z=              0.8799  Tot=              5.3833
 N-N= 4.398731455666D+03 E-N= 0.000000000000D+00  KE=-9.471835063427D+03
 Leave Link  601 at Wed May  4 14:05:57 2022, MaxMem=  6710886400 cpu:               0.9 elap:               0.1
 (Enter /sw/apps/gaussian-16.0/g16/l9999.exe)
 1\1\GINC-BP1-COMPUTE155\SP\RZINDO CIS\STO-3G\C55H74Mg1N4O6\OF15641\04-
 May-2022\0\\#p ZINDO=(nstates=5)\\step_1751_chromophore_8 ZINDO\\0,1\M
 g,0,44.142,3.315,48.038\C,0,42.358,6.271,47.61\C,0,41.337,1.561,47.872
 \C,0,46.011,0.561,47.682\C,0,47.157,5.241,47.637\N,0,42.118,3.923,47.6
 66\C,0,41.522,5.119,47.706\C,0,40.025,5.063,47.851\C,0,39.813,3.534,48
 .179\C,0,41.183,2.947,47.944\C,0,39.271,3.303,49.637\C,0,39.308,5.522,
 46.505\C,0,39.8,5.046,45.102\C,0,39.755,6.026,43.906\O,0,39.138,7.082,

 Normal termination of Gaussian 16 at Wed May  4 14:05:57 2022.
