 Gaussian 16, Revision A.03,
 Gaussian 16:  ES64L-G16RevA.03 25-Dec-2016

 ------------------------------
 #p blyp/Def2SVP td=(nstates=5)
 ------------------------------

 ---------------------------------------------------
 step_1501_chromophore_17 TDDFT with blyp functional
 ---------------------------------------------------
 Symbolic Z-matrix:
 Charge =  0 Multiplicity = 1

                         Standard orientation:
 ---------------------------------------------------------------------
 Center     Atomic      Atomic             Coordinates (Angstroms)
 Number     Number       Type             X           Y           Z
 ---------------------------------------------------------------------
      1         12           0       -4.560204   -1.488782   -0.484301
      2          6           0       -4.706556    1.967336   -0.145708
      3          6           0       -1.910508   -1.015256   -2.665081
      4          6           0       -3.820305   -4.658403   -0.101781
      5          6           0       -7.035716   -1.760224    1.951667
      6          7           0       -3.327274    0.208846   -1.116790
      7          6           0       -3.638104    1.610305   -0.919008
      8          6           0       -2.651996    2.494528   -1.747781
      9          6           0       -2.217462    1.462471   -2.802470
     10          6           0       -2.468111    0.082360   -2.140183
     11          6           0       -2.981027    1.647999   -4.168145
     12          6           0       -1.516402    3.223192   -0.852010
     13          6           0       -1.361401    4.755492   -1.032229
     14          6           0       -0.205623    5.483746   -0.327564
     15          8           0       -0.350784    6.617917    0.041290
     16          8           0        0.970940    4.727520   -0.273609
     17          7           0       -3.117199   -2.702272   -1.365850
     18          6           0       -2.072268   -2.355897   -2.217011
     19          6           0       -1.447319   -3.518275   -2.617324
     20          6           0       -1.933520   -4.605800   -1.824710
     21          6           0       -2.963179   -4.000528   -0.983113
     22          6           0       -0.311206   -3.455451   -3.635189
     23          6           0       -1.342369   -6.016081   -1.879713
     24          8           0       -0.529382   -6.233205   -2.720693
     25          6           0       -1.776566   -7.110996   -0.853780
     26          7           0       -5.356763   -2.992968    0.796916
     27          6           0       -4.844556   -4.258124    0.738526
     28          6           0       -5.721692   -5.222782    1.677168
     29          6           0       -6.832691   -4.249350    2.154521
     30          6           0       -6.356543   -2.903563    1.675488
     31          6           0       -6.144640   -6.601947    1.099250
     32          6           0       -7.272000   -4.454189    3.648631
     33          6           0       -6.503127   -3.570204    4.657152
     34          7           0       -5.835007   -0.225458    0.601081
     35          6           0       -6.780907   -0.475518    1.547223
     36          6           0       -7.416045    0.826626    1.899373
     37          6           0       -6.585450    1.813807    1.319771
     38          6           0       -5.620955    1.103298    0.613391
     39          6           0       -8.455912    1.041304    2.811301
     40          6           0       -6.442909    3.185163    1.042640
     41          8           0       -7.084225    4.163638    1.377451
     42          6           0       -5.150595    3.323905    0.154172
     43          6           0       -5.448272    4.137508   -1.042483
     44          8           0       -6.012486    3.720383   -2.028853
     45          8           0       -5.088588    5.472313   -0.908240
     46          6           0       -5.220240    6.296902   -2.073444
     47          6           0        2.070140    5.415245    0.384651
     48          6           0        3.209615    4.523739    0.719890
     49          6           0        4.152189    4.815803    1.567093
     50          6           0        4.243443    6.101885    2.310720
     51          6           0        5.399959    3.968054    1.800413
     52          6           0        5.990724    3.282775    0.544941
     53          6           0        5.620549    1.744858    0.332331
     54          6           0        6.719992    0.761954    0.763053
     55          6           0        6.117065   -0.283167    1.814872
     56          6           0        7.549112   -0.001956   -0.341611
     57          6           0        9.044232   -0.160541    0.058112
     58          6           0        9.411525   -1.567518   -0.131522
     59          6           0       10.491543   -1.896813   -1.167002
     60          6           0        9.745582   -2.239244   -2.465221
     61          6           0       11.472365   -3.051789   -0.763859
     62          6           0       12.861753   -2.512337   -0.404762
     63          6           0       12.987863   -2.420927    1.115867
     64          6           0       13.414166   -0.927918    1.486077
     65          6           0       14.942352   -0.818861    1.231935
     66          6           0       13.135474   -0.638029    2.954288
     67          1           0       -1.146546   -0.837126   -3.424158
     68          1           0       -3.704299   -5.739619    0.001862
     69          1           0       -7.803172   -1.849534    2.724297
     70          1           0       -3.143695    3.385833   -2.137392
     71          1           0       -1.151507    1.569271   -3.003594
     72          1           0       -2.274298    1.350682   -4.942820
     73          1           0       -3.310147    2.675339   -4.323829
     74          1           0       -3.794321    0.924597   -4.215546
     75          1           0       -0.537292    2.772580   -1.015997
     76          1           0       -1.712993    2.932043    0.179841
     77          1           0       -2.285726    5.222214   -0.690815
     78          1           0       -1.399745    5.116273   -2.060200
     79          1           0        0.608875   -3.620039   -3.075562
     80          1           0       -0.303107   -2.542988   -4.230741
     81          1           0       -0.457123   -4.278596   -4.334865
     82          1           0       -1.688615   -6.556740    0.081454
     83          1           0       -1.173389   -8.012482   -0.962462
     84          1           0       -2.779591   -7.393629   -1.172663
     85          1           0       -5.041246   -5.380010    2.513867
     86          1           0       -7.754644   -4.533508    1.648203
     87          1           0       -5.274456   -7.249616    0.992092
     88          1           0       -6.644094   -6.595097    0.130185
     89          1           0       -6.676424   -7.212026    1.828830
     90          1           0       -7.243623   -5.510487    3.918266
     91          1           0       -8.315183   -4.155104    3.543516
     92          1           0       -7.167116   -2.746511    4.920285
     93          1           0       -5.581516   -3.113966    4.297261
     94          1           0       -6.420748   -4.141036    5.582327
     95          1           0       -8.418950    2.105548    3.043381
     96          1           0       -8.242535    0.398454    3.665519
     97          1           0       -9.469554    0.945766    2.421587
     98          1           0       -4.346983    3.794923    0.721999
     99          1           0       -4.356330    5.961103   -2.647112
    100          1           0       -4.955351    7.333875   -1.865676
    101          1           0       -6.107783    6.213352   -2.700030
    102          1           0        1.740085    5.887517    1.309809
    103          1           0        2.498558    6.158174   -0.289137
    104          1           0        3.229976    3.489613    0.378622
    105          1           0        4.497662    5.785997    3.322077
    106          1           0        3.341679    6.708919    2.391602
    107          1           0        4.831632    6.801465    1.716651
    108          1           0        5.172669    3.249616    2.587577
    109          1           0        6.218743    4.553163    2.219586
    110          1           0        7.065144    3.421477    0.426674
    111          1           0        5.636582    3.842548   -0.320115
    112          1           0        5.418475    1.537259   -0.718681
    113          1           0        4.709254    1.685040    0.927282
    114          1           0        7.371430    1.320689    1.436117
    115          1           0        5.027688   -0.267584    1.772582
    116          1           0        6.412404    0.049354    2.810188
    117          1           0        6.435716   -1.306061    1.618123
    118          1           0        7.508566    0.584843   -1.259781
    119          1           0        7.030729   -0.904615   -0.662608
    120          1           0        9.210189    0.208429    1.069328
    121          1           0        9.607714    0.427657   -0.666136
    122          1           0        8.536358   -2.216501   -0.180486
    123          1           0        9.790661   -1.842849    0.852398
    124          1           0       11.108506   -0.999467   -1.210855
    125          1           0       10.380462   -2.174811   -3.348871
    126          1           0        8.948254   -1.540358   -2.716850
    127          1           0        9.390906   -3.261271   -2.330631
    128          1           0       11.526091   -3.773032   -1.578827
    129          1           0       10.967602   -3.652347   -0.006925
    130          1           0       13.069448   -1.543534   -0.860027
    131          1           0       13.590116   -3.265620   -0.703899
    132          1           0       13.763301   -3.062464    1.536081
    133          1           0       12.097563   -2.600845    1.717296
    134          1           0       12.965776   -0.168910    0.844048
    135          1           0       15.424937   -1.796756    1.245684
    136          1           0       15.525801   -0.277877    1.977168
    137          1           0       15.042847   -0.215213    0.329871
    138          1           0       13.917156    0.043185    3.292614
    139          1           0       13.351420   -1.599529    3.418747
    140          1           0       12.102651   -0.330653    3.116856
 ---------------------------------------------------------------------

 SCF Done:  E(RB-LYP) =  -3007.34475522     A.U. after   21 cycles

 Excitation energies and oscillator strengths:

 Excited State   1:      Singlet-A      1.7749 eV  698.55 nm  f=0.0009  <S**2>=0.000
     244 -> 247        0.70085
 This state for optimization and/or second-order correction.
 Total Energy, E(TD-HF/TD-DFT) =  -3007.27952946
 Copying the excited state density for this state as the 1-particle RhoCI density.

 Excited State   2:      Singlet-A      1.8087 eV  685.47 nm  f=0.3024  <S**2>=0.000
     245 -> 248        0.16089
     246 -> 247        0.69683
     246 <- 247       -0.16451

 Excited State   3:      Singlet-A      1.9445 eV  637.62 nm  f=0.0014  <S**2>=0.000
     243 -> 247        0.70206

 Excited State   4:      Singlet-A      2.0349 eV  609.30 nm  f=0.0879  <S**2>=0.000
     240 -> 247        0.10248
     242 -> 247        0.12711
     245 -> 247        0.63541
     246 -> 248       -0.21686

 Excited State   5:      Singlet-A      2.2744 eV  545.12 nm  f=0.0001  <S**2>=0.000
     241 -> 247        0.70586

 The electronic state is 1-A.
 Alpha  occ. eigenvalues --  -46.27127 -18.82530 -18.81700 -18.77359 -18.76472
 Alpha  occ. eigenvalues --  -18.75765 -18.75536 -14.03264 -14.02968 -14.01001
 Alpha  occ. eigenvalues --  -14.00622 -10.04514 -10.03595  -9.99808  -9.99600
 Alpha  occ. eigenvalues --   -9.97806  -9.97275  -9.96837  -9.96669  -9.96231
 Alpha  occ. eigenvalues --   -9.95855  -9.95846  -9.95396  -9.94952  -9.94819
 Alpha  occ. eigenvalues --   -9.94663  -9.94460  -9.93782  -9.93734  -9.93729
 Alpha  occ. eigenvalues --   -9.93714  -9.93380  -9.93357  -9.93293  -9.93292
 Alpha  occ. eigenvalues --   -9.93229  -9.92789  -9.92676  -9.92415  -9.92317
 Alpha  occ. eigenvalues --   -9.92310  -9.92271  -9.92265  -9.92229  -9.92204
 Alpha  occ. eigenvalues --   -9.91939  -9.91928  -9.91903  -9.91787  -9.91564
 Alpha  occ. eigenvalues --   -9.91482  -9.91463  -9.91405  -9.91243  -9.91135
 Alpha  occ. eigenvalues --   -9.91066  -9.90911  -9.90898  -9.90843  -9.90822
 Alpha  occ. eigenvalues --   -9.90717  -9.90668  -9.90597  -9.90409  -9.90392
 Alpha  occ. eigenvalues --   -9.89766  -2.91767  -1.72185  -1.71671  -1.71463
 Alpha  occ. eigenvalues --   -0.97917  -0.97755  -0.93263  -0.91777  -0.91137
 Alpha  occ. eigenvalues --   -0.90014  -0.87261  -0.86288  -0.85532  -0.84329
 Alpha  occ. eigenvalues --   -0.76524  -0.74247  -0.73449  -0.72971  -0.72172
 Alpha  occ. eigenvalues --   -0.72018  -0.71927  -0.71713  -0.70979  -0.70647
 Alpha  occ. eigenvalues --   -0.69226  -0.68953  -0.68285  -0.67951  -0.67562
 Alpha  occ. eigenvalues --   -0.66616  -0.66374  -0.65350  -0.65166  -0.64951
 Alpha  occ. eigenvalues --   -0.64082  -0.62780  -0.62453  -0.61558  -0.60938
 Alpha  occ. eigenvalues --   -0.60050  -0.59867  -0.59741  -0.59204  -0.58624
 Alpha  occ. eigenvalues --   -0.58436  -0.57977  -0.56906  -0.56077  -0.55992
 Alpha  occ. eigenvalues --   -0.54531  -0.53724  -0.52748  -0.52488  -0.51455
 Alpha  occ. eigenvalues --   -0.51131  -0.50970  -0.50834  -0.50549  -0.50207
 Alpha  occ. eigenvalues --   -0.50099  -0.49120  -0.48785  -0.48376  -0.46687
 Alpha  occ. eigenvalues --   -0.46153  -0.45935  -0.45386  -0.45091  -0.44781
 Alpha  occ. eigenvalues --   -0.44012  -0.43532  -0.43318  -0.42936  -0.42696
 Alpha  occ. eigenvalues --   -0.42143  -0.41778  -0.41444  -0.41397  -0.41263
 Alpha  occ. eigenvalues --   -0.40896  -0.40621  -0.40397  -0.40305  -0.40114
 Alpha  occ. eigenvalues --   -0.40033  -0.39943  -0.39872  -0.39515  -0.39442
 Alpha  occ. eigenvalues --   -0.39386  -0.38931  -0.38831  -0.38565  -0.38383
 Alpha  occ. eigenvalues --   -0.38177  -0.38150  -0.37700  -0.37507  -0.37274
 Alpha  occ. eigenvalues --   -0.37182  -0.36877  -0.36783  -0.36665  -0.36537
 Alpha  occ. eigenvalues --   -0.36449  -0.36052  -0.35931  -0.35776  -0.35688
 Alpha  occ. eigenvalues --   -0.35623  -0.35224  -0.34998  -0.34883  -0.34760
 Alpha  occ. eigenvalues --   -0.34685  -0.34665  -0.34481  -0.34386  -0.34023
 Alpha  occ. eigenvalues --   -0.33851  -0.33700  -0.33604  -0.33307  -0.33220
 Alpha  occ. eigenvalues --   -0.33073  -0.32901  -0.32718  -0.32562  -0.32417
 Alpha  occ. eigenvalues --   -0.32341  -0.32230  -0.31868  -0.31831  -0.31520
 Alpha  occ. eigenvalues --   -0.31460  -0.31269  -0.31115  -0.30994  -0.30722
 Alpha  occ. eigenvalues --   -0.30616  -0.30425  -0.30347  -0.30042  -0.29864
 Alpha  occ. eigenvalues --   -0.29574  -0.29419  -0.29213  -0.29129  -0.28730
 Alpha  occ. eigenvalues --   -0.28668  -0.28399  -0.28126  -0.27882  -0.27674
 Alpha  occ. eigenvalues --   -0.27549  -0.27250  -0.26878  -0.26577  -0.26513
 Alpha  occ. eigenvalues --   -0.26228  -0.26004  -0.25892  -0.25617  -0.25502
 Alpha  occ. eigenvalues --   -0.24517  -0.24353  -0.24154  -0.23777  -0.23572
 Alpha  occ. eigenvalues --   -0.23345  -0.22691  -0.22104  -0.21754  -0.20581
 Alpha  occ. eigenvalues --   -0.20416  -0.19896  -0.19120  -0.18523  -0.17707
 Alpha  occ. eigenvalues --   -0.16165
 Alpha virt. eigenvalues --   -0.12058  -0.06855  -0.06027  -0.04085  -0.02921
 Alpha virt. eigenvalues --   -0.02662  -0.02546  -0.01471  -0.00648   0.00281
 Alpha virt. eigenvalues --    0.01233   0.01800   0.02070   0.02236   0.02572

 Mulliken charges:
               1
     1  Mg   0.692704
     2  C    0.033407
     3  C   -0.079464
     4  C   -0.059432
     5  C   -0.095712
     6  N   -0.245499
     7  C   -0.065933
     8  C    0.011248
     9  C   -0.004660
    10  C    0.068583
    11  C    0.137785
    12  C    0.121276
    13  C    0.096111
    14  C    0.087907
    15  O   -0.162287
    16  O   -0.285777
    17  N   -0.316409
    18  C    0.153187
    19  C   -0.151962
    20  C    0.009575
    21  C    0.176422
    22  C    0.190019
    23  C   -0.121009
    24  O   -0.128083
    25  C    0.145582
    26  N   -0.208225
    27  C   -0.041127
    28  C    0.074862
    29  C    0.003739
    30  C    0.039974
    31  C    0.133825
    32  C    0.040470
    33  C    0.086835
    34  N   -0.252762
    35  C    0.132178
    36  C   -0.173864
    37  C    0.130301
    38  C    0.058639
    39  C    0.174295
    40  C   -0.081735
    41  O   -0.121100
    42  C    0.096552
    43  C    0.077986
    44  O   -0.175715
    45  O   -0.269657
    46  C    0.238476
    47  C    0.335878
    48  C   -0.091800
    49  C   -0.191891
    50  C    0.152593
    51  C    0.146923
    52  C    0.037624
    53  C    0.116084
    54  C   -0.080305
    55  C    0.072371
    56  C    0.090197
    57  C    0.119369
    58  C    0.089116
    59  C   -0.056261
    60  C    0.111421
    61  C    0.117215
    62  C    0.131236
    63  C    0.084166
    64  C   -0.161727
    65  C    0.092600
    66  C    0.136360
    67  H   -0.061795
    68  H   -0.092758
    69  H   -0.075833
    70  H   -0.019482
    71  H   -0.038794
    72  H   -0.012999
    73  H    0.006695
    74  H   -0.000202
    75  H   -0.017101
    76  H   -0.022098
    77  H   -0.006869
    78  H    0.003852
    79  H    0.009057
    80  H   -0.018467
    81  H    0.002157
    82  H    0.019695
    83  H   -0.010045
    84  H    0.019405
    85  H   -0.029538
    86  H   -0.024456
    87  H   -0.014300
    88  H    0.003328
    89  H   -0.018940
    90  H   -0.015093
    91  H   -0.016711
    92  H   -0.015573
    93  H    0.015639
    94  H   -0.010110
    95  H   -0.002520
    96  H    0.009446
    97  H   -0.000474
    98  H    0.000884
    99  H   -0.022804
   100  H    0.012479
   101  H    0.025853
   102  H    0.014052
   103  H   -0.001192
   104  H   -0.042088
   105  H    0.008248
   106  H   -0.033625
   107  H    0.003854
   108  H   -0.014738
   109  H   -0.034742
   110  H   -0.034270
   111  H   -0.037526
   112  H   -0.035110
   113  H   -0.024536
   114  H   -0.038077
   115  H   -0.018934
   116  H   -0.015355
   117  H   -0.015703
   118  H   -0.047702
   119  H   -0.024521
   120  H   -0.018317
   121  H   -0.035101
   122  H   -0.039721
   123  H   -0.063887
   124  H   -0.050227
   125  H   -0.025022
   126  H   -0.020654
   127  H   -0.008005
   128  H   -0.056216
   129  H   -0.039313
   130  H   -0.013016
   131  H   -0.037246
   132  H   -0.030282
   133  H   -0.028306
   134  H   -0.031751
   135  H   -0.016580
   136  H   -0.030336
   137  H   -0.012251
   138  H   -0.022796
   139  H   -0.027862
   140  H   -0.005372
 Sum of Mulliken charges =  -0.00000

 Dipole moment (field-independent basis, Debye):
    X=              1.0781    Y=             -3.3335    Z=              1.3532  Tot=              3.7558
 Quadrupole moment (field-independent basis, Debye-Ang):
   XX=           -395.2784   YY=           -414.6745   ZZ=           -399.7777
   XY=             53.4896   XZ=             -4.6372   YZ=            -29.5721

 Normal termination of Gaussian 16 at Thu Apr 28 07:39:35 2022.
