 Gaussian 16, Revision A.03,
 Gaussian 16:  ES64L-G16RevA.03 25-Dec-2016

 -----------------------------------
 #p cam-b3lyp/Def2SVP td=(nstates=5)
 -----------------------------------

 --------------------------------------------------------
 step_1501_chromophore_17 TDDFT with cam-b3lyp functional
 --------------------------------------------------------
 Symbolic Z-matrix:
 Charge =  0 Multiplicity = 1

                         Standard orientation:
 ---------------------------------------------------------------------
 Center     Atomic      Atomic             Coordinates (Angstroms)
 Number     Number       Type             X           Y           Z
 ---------------------------------------------------------------------
      1         12           0       -4.560204   -1.488782   -0.484301
      2          6           0       -4.706556    1.967336   -0.145708
      3          6           0       -1.910508   -1.015256   -2.665081
      4          6           0       -3.820305   -4.658403   -0.101781
      5          6           0       -7.035716   -1.760224    1.951667
      6          7           0       -3.327274    0.208846   -1.116790
      7          6           0       -3.638104    1.610305   -0.919008
      8          6           0       -2.651996    2.494528   -1.747781
      9          6           0       -2.217462    1.462471   -2.802470
     10          6           0       -2.468111    0.082360   -2.140183
     11          6           0       -2.981027    1.647999   -4.168145
     12          6           0       -1.516402    3.223192   -0.852010
     13          6           0       -1.361401    4.755492   -1.032229
     14          6           0       -0.205623    5.483746   -0.327564
     15          8           0       -0.350784    6.617917    0.041290
     16          8           0        0.970940    4.727520   -0.273609
     17          7           0       -3.117199   -2.702272   -1.365850
     18          6           0       -2.072268   -2.355897   -2.217011
     19          6           0       -1.447319   -3.518275   -2.617324
     20          6           0       -1.933520   -4.605800   -1.824710
     21          6           0       -2.963179   -4.000528   -0.983113
     22          6           0       -0.311206   -3.455451   -3.635189
     23          6           0       -1.342369   -6.016081   -1.879713
     24          8           0       -0.529382   -6.233205   -2.720693
     25          6           0       -1.776566   -7.110996   -0.853780
     26          7           0       -5.356763   -2.992968    0.796916
     27          6           0       -4.844556   -4.258124    0.738526
     28          6           0       -5.721692   -5.222782    1.677168
     29          6           0       -6.832691   -4.249350    2.154521
     30          6           0       -6.356543   -2.903563    1.675488
     31          6           0       -6.144640   -6.601947    1.099250
     32          6           0       -7.272000   -4.454189    3.648631
     33          6           0       -6.503127   -3.570204    4.657152
     34          7           0       -5.835007   -0.225458    0.601081
     35          6           0       -6.780907   -0.475518    1.547223
     36          6           0       -7.416045    0.826626    1.899373
     37          6           0       -6.585450    1.813807    1.319771
     38          6           0       -5.620955    1.103298    0.613391
     39          6           0       -8.455912    1.041304    2.811301
     40          6           0       -6.442909    3.185163    1.042640
     41          8           0       -7.084225    4.163638    1.377451
     42          6           0       -5.150595    3.323905    0.154172
     43          6           0       -5.448272    4.137508   -1.042483
     44          8           0       -6.012486    3.720383   -2.028853
     45          8           0       -5.088588    5.472313   -0.908240
     46          6           0       -5.220240    6.296902   -2.073444
     47          6           0        2.070140    5.415245    0.384651
     48          6           0        3.209615    4.523739    0.719890
     49          6           0        4.152189    4.815803    1.567093
     50          6           0        4.243443    6.101885    2.310720
     51          6           0        5.399959    3.968054    1.800413
     52          6           0        5.990724    3.282775    0.544941
     53          6           0        5.620549    1.744858    0.332331
     54          6           0        6.719992    0.761954    0.763053
     55          6           0        6.117065   -0.283167    1.814872
     56          6           0        7.549112   -0.001956   -0.341611
     57          6           0        9.044232   -0.160541    0.058112
     58          6           0        9.411525   -1.567518   -0.131522
     59          6           0       10.491543   -1.896813   -1.167002
     60          6           0        9.745582   -2.239244   -2.465221
     61          6           0       11.472365   -3.051789   -0.763859
     62          6           0       12.861753   -2.512337   -0.404762
     63          6           0       12.987863   -2.420927    1.115867
     64          6           0       13.414166   -0.927918    1.486077
     65          6           0       14.942352   -0.818861    1.231935
     66          6           0       13.135474   -0.638029    2.954288
     67          1           0       -1.146546   -0.837126   -3.424158
     68          1           0       -3.704299   -5.739619    0.001862
     69          1           0       -7.803172   -1.849534    2.724297
     70          1           0       -3.143695    3.385833   -2.137392
     71          1           0       -1.151507    1.569271   -3.003594
     72          1           0       -2.274298    1.350682   -4.942820
     73          1           0       -3.310147    2.675339   -4.323829
     74          1           0       -3.794321    0.924597   -4.215546
     75          1           0       -0.537292    2.772580   -1.015997
     76          1           0       -1.712993    2.932043    0.179841
     77          1           0       -2.285726    5.222214   -0.690815
     78          1           0       -1.399745    5.116273   -2.060200
     79          1           0        0.608875   -3.620039   -3.075562
     80          1           0       -0.303107   -2.542988   -4.230741
     81          1           0       -0.457123   -4.278596   -4.334865
     82          1           0       -1.688615   -6.556740    0.081454
     83          1           0       -1.173389   -8.012482   -0.962462
     84          1           0       -2.779591   -7.393629   -1.172663
     85          1           0       -5.041246   -5.380010    2.513867
     86          1           0       -7.754644   -4.533508    1.648203
     87          1           0       -5.274456   -7.249616    0.992092
     88          1           0       -6.644094   -6.595097    0.130185
     89          1           0       -6.676424   -7.212026    1.828830
     90          1           0       -7.243623   -5.510487    3.918266
     91          1           0       -8.315183   -4.155104    3.543516
     92          1           0       -7.167116   -2.746511    4.920285
     93          1           0       -5.581516   -3.113966    4.297261
     94          1           0       -6.420748   -4.141036    5.582327
     95          1           0       -8.418950    2.105548    3.043381
     96          1           0       -8.242535    0.398454    3.665519
     97          1           0       -9.469554    0.945766    2.421587
     98          1           0       -4.346983    3.794923    0.721999
     99          1           0       -4.356330    5.961103   -2.647112
    100          1           0       -4.955351    7.333875   -1.865676
    101          1           0       -6.107783    6.213352   -2.700030
    102          1           0        1.740085    5.887517    1.309809
    103          1           0        2.498558    6.158174   -0.289137
    104          1           0        3.229976    3.489613    0.378622
    105          1           0        4.497662    5.785997    3.322077
    106          1           0        3.341679    6.708919    2.391602
    107          1           0        4.831632    6.801465    1.716651
    108          1           0        5.172669    3.249616    2.587577
    109          1           0        6.218743    4.553163    2.219586
    110          1           0        7.065144    3.421477    0.426674
    111          1           0        5.636582    3.842548   -0.320115
    112          1           0        5.418475    1.537259   -0.718681
    113          1           0        4.709254    1.685040    0.927282
    114          1           0        7.371430    1.320689    1.436117
    115          1           0        5.027688   -0.267584    1.772582
    116          1           0        6.412404    0.049354    2.810188
    117          1           0        6.435716   -1.306061    1.618123
    118          1           0        7.508566    0.584843   -1.259781
    119          1           0        7.030729   -0.904615   -0.662608
    120          1           0        9.210189    0.208429    1.069328
    121          1           0        9.607714    0.427657   -0.666136
    122          1           0        8.536358   -2.216501   -0.180486
    123          1           0        9.790661   -1.842849    0.852398
    124          1           0       11.108506   -0.999467   -1.210855
    125          1           0       10.380462   -2.174811   -3.348871
    126          1           0        8.948254   -1.540358   -2.716850
    127          1           0        9.390906   -3.261271   -2.330631
    128          1           0       11.526091   -3.773032   -1.578827
    129          1           0       10.967602   -3.652347   -0.006925
    130          1           0       13.069448   -1.543534   -0.860027
    131          1           0       13.590116   -3.265620   -0.703899
    132          1           0       13.763301   -3.062464    1.536081
    133          1           0       12.097563   -2.600845    1.717296
    134          1           0       12.965776   -0.168910    0.844048
    135          1           0       15.424937   -1.796756    1.245684
    136          1           0       15.525801   -0.277877    1.977168
    137          1           0       15.042847   -0.215213    0.329871
    138          1           0       13.917156    0.043185    3.292614
    139          1           0       13.351420   -1.599529    3.418747
    140          1           0       12.102651   -0.330653    3.116856
 ---------------------------------------------------------------------

 SCF Done:  E(RCAM-B3LYP) =  -3007.15149584     A.U. after   19 cycles

 Excitation energies and oscillator strengths:

 Excited State   1:      Singlet-A      1.6890 eV  734.05 nm  f=0.3915  <S**2>=0.000
     245 -> 248        0.15416
     246 -> 247        0.69083
 This state for optimization and/or second-order correction.
 Total Energy, E(TD-HF/TD-DFT) =  -3007.08942485
 Copying the excited state density for this state as the 1-particle RhoCI density.

 Excited State   2:      Singlet-A      2.2248 eV  557.29 nm  f=0.1378  <S**2>=0.000
     245 -> 247        0.64885
     246 -> 248       -0.25671

 Excited State   3:      Singlet-A      3.0541 eV  405.96 nm  f=0.0060  <S**2>=0.000
     244 -> 247        0.69087

 Excited State   4:      Singlet-A      3.3404 eV  371.17 nm  f=0.0046  <S**2>=0.000
     243 -> 247        0.67900

 Excited State   5:      Singlet-A      3.5519 eV  349.06 nm  f=0.0000  <S**2>=0.000
     241 -> 247        0.60991
     241 -> 248        0.17415
     241 -> 249       -0.11227
     241 -> 251        0.25206

 The electronic state is 1-A.
 Alpha  occ. eigenvalues --  -46.88684 -19.25376 -19.24586 -19.20364 -19.19634
 Alpha  occ. eigenvalues --  -19.18894 -19.18840 -14.42283 -14.41761 -14.39376
 Alpha  occ. eigenvalues --  -14.39162 -10.39825 -10.39063 -10.35095 -10.34841
 Alpha  occ. eigenvalues --  -10.31764 -10.31526 -10.31177 -10.31156 -10.30476
 Alpha  occ. eigenvalues --  -10.30453 -10.30340 -10.29430 -10.29322 -10.29236
 Alpha  occ. eigenvalues --  -10.28777 -10.28607 -10.28183 -10.27731 -10.27715
 Alpha  occ. eigenvalues --  -10.27641 -10.27524 -10.27476 -10.27421 -10.27232
 Alpha  occ. eigenvalues --  -10.27149 -10.27129 -10.26973 -10.26822 -10.26663
 Alpha  occ. eigenvalues --  -10.26439 -10.26283 -10.26026 -10.25965 -10.25888
 Alpha  occ. eigenvalues --  -10.25846 -10.25564 -10.25544 -10.25451 -10.25336
 Alpha  occ. eigenvalues --  -10.25290 -10.25192 -10.25109 -10.24954 -10.24806
 Alpha  occ. eigenvalues --  -10.24763 -10.24761 -10.24729 -10.24587 -10.24431
 Alpha  occ. eigenvalues --  -10.24333 -10.24309 -10.24219 -10.24016 -10.23977
 Alpha  occ. eigenvalues --  -10.23353  -3.17226  -1.92122  -1.91698  -1.91515
 Alpha  occ. eigenvalues --   -1.16379  -1.16319  -1.11891  -1.10105  -1.09005
 Alpha  occ. eigenvalues --   -1.07969  -1.05010  -1.03902  -1.03285  -1.01887
 Alpha  occ. eigenvalues --   -0.93692  -0.91166  -0.90294  -0.89772  -0.88908
 Alpha  occ. eigenvalues --   -0.88736  -0.88631  -0.88338  -0.87539  -0.87227
 Alpha  occ. eigenvalues --   -0.85790  -0.85417  -0.84586  -0.84193  -0.83830
 Alpha  occ. eigenvalues --   -0.82664  -0.82439  -0.81437  -0.81079  -0.80844
 Alpha  occ. eigenvalues --   -0.79843  -0.78453  -0.78015  -0.77213  -0.76324
 Alpha  occ. eigenvalues --   -0.75431  -0.75176  -0.75089  -0.74488  -0.73843
 Alpha  occ. eigenvalues --   -0.73484  -0.72969  -0.71842  -0.70865  -0.70788
 Alpha  occ. eigenvalues --   -0.69149  -0.68301  -0.67409  -0.66862  -0.65642
 Alpha  occ. eigenvalues --   -0.65180  -0.65137  -0.64839  -0.64591  -0.64213
 Alpha  occ. eigenvalues --   -0.64074  -0.63080  -0.62694  -0.62019  -0.60371
 Alpha  occ. eigenvalues --   -0.59779  -0.59475  -0.58878  -0.58679  -0.58180
 Alpha  occ. eigenvalues --   -0.57372  -0.56779  -0.56525  -0.56174  -0.55962
 Alpha  occ. eigenvalues --   -0.55259  -0.54962  -0.54783  -0.54449  -0.54077
 Alpha  occ. eigenvalues --   -0.53632  -0.53438  -0.53281  -0.53103  -0.52953
 Alpha  occ. eigenvalues --   -0.52608  -0.52555  -0.52456  -0.52237  -0.51972
 Alpha  occ. eigenvalues --   -0.51946  -0.51637  -0.51490  -0.51356  -0.50767
 Alpha  occ. eigenvalues --   -0.50558  -0.50491  -0.50080  -0.49988  -0.49928
 Alpha  occ. eigenvalues --   -0.49608  -0.49449  -0.49040  -0.48967  -0.48805
 Alpha  occ. eigenvalues --   -0.48757  -0.48554  -0.48229  -0.47852  -0.47717
 Alpha  occ. eigenvalues --   -0.47600  -0.47325  -0.47053  -0.46964  -0.46742
 Alpha  occ. eigenvalues --   -0.46634  -0.46580  -0.46456  -0.46266  -0.45997
 Alpha  occ. eigenvalues --   -0.45795  -0.45583  -0.45450  -0.45177  -0.44967
 Alpha  occ. eigenvalues --   -0.44830  -0.44666  -0.44286  -0.44052  -0.44025
 Alpha  occ. eigenvalues --   -0.44016  -0.43946  -0.43579  -0.43393  -0.43137
 Alpha  occ. eigenvalues --   -0.43037  -0.42912  -0.42676  -0.42493  -0.42094
 Alpha  occ. eigenvalues --   -0.41965  -0.41889  -0.41799  -0.41479  -0.41364
 Alpha  occ. eigenvalues --   -0.41249  -0.40545  -0.40366  -0.40157  -0.39881
 Alpha  occ. eigenvalues --   -0.39746  -0.39388  -0.39152  -0.38998  -0.38657
 Alpha  occ. eigenvalues --   -0.38435  -0.38086  -0.37768  -0.37694  -0.37397
 Alpha  occ. eigenvalues --   -0.37141  -0.37017  -0.36720  -0.36553  -0.36120
 Alpha  occ. eigenvalues --   -0.35868  -0.34974  -0.34816  -0.34314  -0.34250
 Alpha  occ. eigenvalues --   -0.34236  -0.33781  -0.33277  -0.31742  -0.31087
 Alpha  occ. eigenvalues --   -0.30695  -0.30163  -0.29756  -0.29417  -0.24600
 Alpha  occ. eigenvalues --   -0.21538
 Alpha virt. eigenvalues --   -0.09360  -0.01610   0.00520   0.02271   0.02909
 Alpha virt. eigenvalues --    0.04902   0.05158   0.05638   0.06860   0.06966
 Alpha virt. eigenvalues --    0.07593   0.08002   0.08319   0.08643   0.08880

 Mulliken charges:
               1
     1  Mg   0.824879
     2  C    0.002926
     3  C   -0.091953
     4  C   -0.085315
     5  C   -0.092578
     6  N   -0.315790
     7  C   -0.024993
     8  C   -0.029086
     9  C   -0.064325
    10  C    0.085590
    11  C    0.085342
    12  C    0.074467
    13  C    0.025974
    14  C    0.171203
    15  O   -0.202917
    16  O   -0.350967
    17  N   -0.402175
    18  C    0.157002
    19  C   -0.156423
    20  C   -0.056059
    21  C    0.205221
    22  C    0.136128
    23  C   -0.041490
    24  O   -0.168057
    25  C    0.065099
    26  N   -0.280675
    27  C   -0.010237
    28  C    0.012790
    29  C   -0.042728
    30  C    0.050535
    31  C    0.074679
    32  C   -0.008647
    33  C    0.020345
    34  N   -0.336988
    35  C    0.124609
    36  C   -0.146110
    37  C    0.039668
    38  C    0.098727
    39  C    0.106476
    40  C    0.019030
    41  O   -0.160793
    42  C    0.015554
    43  C    0.164939
    44  O   -0.209858
    45  O   -0.332692
    46  C    0.195720
    47  C    0.301177
    48  C   -0.111794
    49  C   -0.211335
    50  C    0.082884
    51  C    0.089655
    52  C   -0.023364
    53  C    0.064832
    54  C   -0.134699
    55  C    0.020292
    56  C    0.036598
    57  C    0.064808
    58  C    0.031794
    59  C   -0.109999
    60  C    0.054975
    61  C    0.060151
    62  C    0.068088
    63  C    0.032834
    64  C   -0.214922
    65  C    0.032458
    66  C    0.076713
    67  H   -0.027207
    68  H   -0.056291
    69  H   -0.040473
    70  H    0.009853
    71  H   -0.002190
    72  H    0.010861
    73  H    0.029849
    74  H    0.024839
    75  H    0.014633
    76  H    0.009253
    77  H    0.023905
    78  H    0.033795
    79  H    0.036190
    80  H    0.007736
    81  H    0.030977
    82  H    0.045064
    83  H    0.026283
    84  H    0.044719
    85  H    0.005293
    86  H    0.010432
    87  H    0.008362
    88  H    0.028636
    89  H    0.007767
    90  H    0.012215
    91  H    0.010947
    92  H    0.007053
    93  H    0.038594
    94  H    0.015139
    95  H    0.026844
    96  H    0.031538
    97  H    0.028233
    98  H    0.043183
    99  H   -0.003905
   100  H    0.037121
   101  H    0.051166
   102  H    0.040508
   103  H    0.026187
   104  H   -0.007015
   105  H    0.032123
   106  H   -0.006114
   107  H    0.029519
   108  H    0.013523
   109  H   -0.001211
   110  H   -0.004767
   111  H   -0.004676
   112  H   -0.005456
   113  H    0.000365
   114  H   -0.006750
   115  H    0.004992
   116  H    0.007409
   117  H    0.006506
   118  H   -0.018221
   119  H    0.002423
   120  H    0.008841
   121  H   -0.005245
   122  H   -0.011063
   123  H   -0.033400
   124  H   -0.020435
   125  H    0.000809
   126  H    0.001929
   127  H    0.014245
   128  H   -0.022954
   129  H   -0.009338
   130  H    0.013458
   131  H   -0.005538
   132  H   -0.002379
   133  H   -0.001577
   134  H   -0.003325
   135  H    0.006906
   136  H   -0.004375
   137  H    0.011335
   138  H    0.002185
   139  H   -0.004486
   140  H    0.017454
 Sum of Mulliken charges =  -0.00000

 Dipole moment (field-independent basis, Debye):
    X=              1.2975    Y=             -4.0170    Z=              1.2525  Tot=              4.4033
 Quadrupole moment (field-independent basis, Debye-Ang):
   XX=           -396.3096   YY=           -410.3617   ZZ=           -398.7342
   XY=             56.5146   XZ=             -4.7183   YZ=            -30.8757

 Normal termination of Gaussian 16 at Thu Apr 28 06:34:26 2022.
