 Gaussian 16, Revision A.03,
 Gaussian 16:  ES64L-G16RevA.03 25-Dec-2016

 ---------------------------------
 #p PBE1PBE/Def2SVP td=(nstates=5)
 ---------------------------------

 ------------------------------------------------------
 step_1501_chromophore_17 TDDFT with PBE1PBE functional
 ------------------------------------------------------
 Symbolic Z-matrix:
 Charge =  0 Multiplicity = 1

                         Standard orientation:
 ---------------------------------------------------------------------
 Center     Atomic      Atomic             Coordinates (Angstroms)
 Number     Number       Type             X           Y           Z
 ---------------------------------------------------------------------
      1         12           0       -4.560204   -1.488782   -0.484301
      2          6           0       -4.706556    1.967336   -0.145708
      3          6           0       -1.910508   -1.015256   -2.665081
      4          6           0       -3.820305   -4.658403   -0.101781
      5          6           0       -7.035716   -1.760224    1.951667
      6          7           0       -3.327274    0.208846   -1.116790
      7          6           0       -3.638104    1.610305   -0.919008
      8          6           0       -2.651996    2.494528   -1.747781
      9          6           0       -2.217462    1.462471   -2.802470
     10          6           0       -2.468111    0.082360   -2.140183
     11          6           0       -2.981027    1.647999   -4.168145
     12          6           0       -1.516402    3.223192   -0.852010
     13          6           0       -1.361401    4.755492   -1.032229
     14          6           0       -0.205623    5.483746   -0.327564
     15          8           0       -0.350784    6.617917    0.041290
     16          8           0        0.970940    4.727520   -0.273609
     17          7           0       -3.117199   -2.702272   -1.365850
     18          6           0       -2.072268   -2.355897   -2.217011
     19          6           0       -1.447319   -3.518275   -2.617324
     20          6           0       -1.933520   -4.605800   -1.824710
     21          6           0       -2.963179   -4.000528   -0.983113
     22          6           0       -0.311206   -3.455451   -3.635189
     23          6           0       -1.342369   -6.016081   -1.879713
     24          8           0       -0.529382   -6.233205   -2.720693
     25          6           0       -1.776566   -7.110996   -0.853780
     26          7           0       -5.356763   -2.992968    0.796916
     27          6           0       -4.844556   -4.258124    0.738526
     28          6           0       -5.721692   -5.222782    1.677168
     29          6           0       -6.832691   -4.249350    2.154521
     30          6           0       -6.356543   -2.903563    1.675488
     31          6           0       -6.144640   -6.601947    1.099250
     32          6           0       -7.272000   -4.454189    3.648631
     33          6           0       -6.503127   -3.570204    4.657152
     34          7           0       -5.835007   -0.225458    0.601081
     35          6           0       -6.780907   -0.475518    1.547223
     36          6           0       -7.416045    0.826626    1.899373
     37          6           0       -6.585450    1.813807    1.319771
     38          6           0       -5.620955    1.103298    0.613391
     39          6           0       -8.455912    1.041304    2.811301
     40          6           0       -6.442909    3.185163    1.042640
     41          8           0       -7.084225    4.163638    1.377451
     42          6           0       -5.150595    3.323905    0.154172
     43          6           0       -5.448272    4.137508   -1.042483
     44          8           0       -6.012486    3.720383   -2.028853
     45          8           0       -5.088588    5.472313   -0.908240
     46          6           0       -5.220240    6.296902   -2.073444
     47          6           0        2.070140    5.415245    0.384651
     48          6           0        3.209615    4.523739    0.719890
     49          6           0        4.152189    4.815803    1.567093
     50          6           0        4.243443    6.101885    2.310720
     51          6           0        5.399959    3.968054    1.800413
     52          6           0        5.990724    3.282775    0.544941
     53          6           0        5.620549    1.744858    0.332331
     54          6           0        6.719992    0.761954    0.763053
     55          6           0        6.117065   -0.283167    1.814872
     56          6           0        7.549112   -0.001956   -0.341611
     57          6           0        9.044232   -0.160541    0.058112
     58          6           0        9.411525   -1.567518   -0.131522
     59          6           0       10.491543   -1.896813   -1.167002
     60          6           0        9.745582   -2.239244   -2.465221
     61          6           0       11.472365   -3.051789   -0.763859
     62          6           0       12.861753   -2.512337   -0.404762
     63          6           0       12.987863   -2.420927    1.115867
     64          6           0       13.414166   -0.927918    1.486077
     65          6           0       14.942352   -0.818861    1.231935
     66          6           0       13.135474   -0.638029    2.954288
     67          1           0       -1.146546   -0.837126   -3.424158
     68          1           0       -3.704299   -5.739619    0.001862
     69          1           0       -7.803172   -1.849534    2.724297
     70          1           0       -3.143695    3.385833   -2.137392
     71          1           0       -1.151507    1.569271   -3.003594
     72          1           0       -2.274298    1.350682   -4.942820
     73          1           0       -3.310147    2.675339   -4.323829
     74          1           0       -3.794321    0.924597   -4.215546
     75          1           0       -0.537292    2.772580   -1.015997
     76          1           0       -1.712993    2.932043    0.179841
     77          1           0       -2.285726    5.222214   -0.690815
     78          1           0       -1.399745    5.116273   -2.060200
     79          1           0        0.608875   -3.620039   -3.075562
     80          1           0       -0.303107   -2.542988   -4.230741
     81          1           0       -0.457123   -4.278596   -4.334865
     82          1           0       -1.688615   -6.556740    0.081454
     83          1           0       -1.173389   -8.012482   -0.962462
     84          1           0       -2.779591   -7.393629   -1.172663
     85          1           0       -5.041246   -5.380010    2.513867
     86          1           0       -7.754644   -4.533508    1.648203
     87          1           0       -5.274456   -7.249616    0.992092
     88          1           0       -6.644094   -6.595097    0.130185
     89          1           0       -6.676424   -7.212026    1.828830
     90          1           0       -7.243623   -5.510487    3.918266
     91          1           0       -8.315183   -4.155104    3.543516
     92          1           0       -7.167116   -2.746511    4.920285
     93          1           0       -5.581516   -3.113966    4.297261
     94          1           0       -6.420748   -4.141036    5.582327
     95          1           0       -8.418950    2.105548    3.043381
     96          1           0       -8.242535    0.398454    3.665519
     97          1           0       -9.469554    0.945766    2.421587
     98          1           0       -4.346983    3.794923    0.721999
     99          1           0       -4.356330    5.961103   -2.647112
    100          1           0       -4.955351    7.333875   -1.865676
    101          1           0       -6.107783    6.213352   -2.700030
    102          1           0        1.740085    5.887517    1.309809
    103          1           0        2.498558    6.158174   -0.289137
    104          1           0        3.229976    3.489613    0.378622
    105          1           0        4.497662    5.785997    3.322077
    106          1           0        3.341679    6.708919    2.391602
    107          1           0        4.831632    6.801465    1.716651
    108          1           0        5.172669    3.249616    2.587577
    109          1           0        6.218743    4.553163    2.219586
    110          1           0        7.065144    3.421477    0.426674
    111          1           0        5.636582    3.842548   -0.320115
    112          1           0        5.418475    1.537259   -0.718681
    113          1           0        4.709254    1.685040    0.927282
    114          1           0        7.371430    1.320689    1.436117
    115          1           0        5.027688   -0.267584    1.772582
    116          1           0        6.412404    0.049354    2.810188
    117          1           0        6.435716   -1.306061    1.618123
    118          1           0        7.508566    0.584843   -1.259781
    119          1           0        7.030729   -0.904615   -0.662608
    120          1           0        9.210189    0.208429    1.069328
    121          1           0        9.607714    0.427657   -0.666136
    122          1           0        8.536358   -2.216501   -0.180486
    123          1           0        9.790661   -1.842849    0.852398
    124          1           0       11.108506   -0.999467   -1.210855
    125          1           0       10.380462   -2.174811   -3.348871
    126          1           0        8.948254   -1.540358   -2.716850
    127          1           0        9.390906   -3.261271   -2.330631
    128          1           0       11.526091   -3.773032   -1.578827
    129          1           0       10.967602   -3.652347   -0.006925
    130          1           0       13.069448   -1.543534   -0.860027
    131          1           0       13.590116   -3.265620   -0.703899
    132          1           0       13.763301   -3.062464    1.536081
    133          1           0       12.097563   -2.600845    1.717296
    134          1           0       12.965776   -0.168910    0.844048
    135          1           0       15.424937   -1.796756    1.245684
    136          1           0       15.525801   -0.277877    1.977168
    137          1           0       15.042847   -0.215213    0.329871
    138          1           0       13.917156    0.043185    3.292614
    139          1           0       13.351420   -1.599529    3.418747
    140          1           0       12.102651   -0.330653    3.116856
 ---------------------------------------------------------------------

 SCF Done:  E(RPBE1PBE) =  -3005.33941563     A.U. after   15 cycles

 Excitation energies and oscillator strengths:

 Excited State   1:      Singlet-A      1.8450 eV  672.01 nm  f=0.3732  <S**2>=0.000
     245 -> 248        0.14847
     246 -> 247        0.69877
     246 <- 247       -0.12257
 This state for optimization and/or second-order correction.
 Total Energy, E(TD-HF/TD-DFT) =  -3005.27161370
 Copying the excited state density for this state as the 1-particle RhoCI density.

 Excited State   2:      Singlet-A      2.2353 eV  554.65 nm  f=0.1275  <S**2>=0.000
     245 -> 247        0.65560
     246 -> 248       -0.23407

 Excited State   3:      Singlet-A      2.7472 eV  451.31 nm  f=0.0095  <S**2>=0.000
     244 -> 247        0.69550

 Excited State   4:      Singlet-A      2.9151 eV  425.32 nm  f=0.0000  <S**2>=0.000
     242 -> 247        0.68856

 Excited State   5:      Singlet-A      3.0028 eV  412.89 nm  f=0.0148  <S**2>=0.000
     240 -> 247       -0.15852
     241 -> 247        0.66925

 The electronic state is 1-A.
 Alpha  occ. eigenvalues --  -46.92065 -19.26096 -19.25260 -19.20658 -19.19849
 Alpha  occ. eigenvalues --  -19.19158 -19.18970 -14.41692 -14.41363 -14.39073
 Alpha  occ. eigenvalues --  -14.38761 -10.36900 -10.36093 -10.32146 -10.32034
 Alpha  occ. eigenvalues --  -10.29175 -10.29158 -10.29008 -10.28433 -10.28237
 Alpha  occ. eigenvalues --  -10.27993 -10.27920 -10.27296 -10.27019 -10.26820
 Alpha  occ. eigenvalues --  -10.26536 -10.26446 -10.25928 -10.25513 -10.25464
 Alpha  occ. eigenvalues --  -10.25382 -10.25244 -10.25118 -10.24960 -10.24875
 Alpha  occ. eigenvalues --  -10.24796 -10.24566 -10.24477 -10.24421 -10.23972
 Alpha  occ. eigenvalues --  -10.23912 -10.23892 -10.23589 -10.23482 -10.23451
 Alpha  occ. eigenvalues --  -10.23288 -10.23285 -10.22972 -10.22943 -10.22932
 Alpha  occ. eigenvalues --  -10.22878 -10.22708 -10.22692 -10.22632 -10.22522
 Alpha  occ. eigenvalues --  -10.22340 -10.22298 -10.22247 -10.22163 -10.21939
 Alpha  occ. eigenvalues --  -10.21894 -10.21673 -10.21620 -10.21425 -10.21354
 Alpha  occ. eigenvalues --  -10.20882  -3.14187  -1.87023  -1.86579  -1.86397
 Alpha  occ. eigenvalues --   -1.11214  -1.11099  -1.06547  -1.04932  -1.03924
 Alpha  occ. eigenvalues --   -1.02812  -0.99656  -0.98602  -0.97840  -0.96483
 Alpha  occ. eigenvalues --   -0.88121  -0.85330  -0.84369  -0.84051  -0.83167
 Alpha  occ. eigenvalues --   -0.82991  -0.82756  -0.82665  -0.81875  -0.81335
 Alpha  occ. eigenvalues --   -0.80041  -0.79635  -0.78800  -0.78439  -0.78053
 Alpha  occ. eigenvalues --   -0.76879  -0.76698  -0.75611  -0.75306  -0.75102
 Alpha  occ. eigenvalues --   -0.74013  -0.72779  -0.72303  -0.71450  -0.70677
 Alpha  occ. eigenvalues --   -0.69753  -0.69351  -0.69169  -0.68589  -0.68011
 Alpha  occ. eigenvalues --   -0.67889  -0.67352  -0.66223  -0.65170  -0.65157
 Alpha  occ. eigenvalues --   -0.63680  -0.62509  -0.61775  -0.61093  -0.60177
 Alpha  occ. eigenvalues --   -0.59614  -0.59380  -0.59361  -0.59025  -0.58615
 Alpha  occ. eigenvalues --   -0.58254  -0.57256  -0.56879  -0.56615  -0.54904
 Alpha  occ. eigenvalues --   -0.54308  -0.53989  -0.53373  -0.53151  -0.52808
 Alpha  occ. eigenvalues --   -0.51953  -0.51248  -0.50966  -0.50638  -0.50456
 Alpha  occ. eigenvalues --   -0.49807  -0.49490  -0.49387  -0.49050  -0.48438
 Alpha  occ. eigenvalues --   -0.48121  -0.48004  -0.47798  -0.47601  -0.47247
 Alpha  occ. eigenvalues --   -0.47202  -0.47056  -0.46993  -0.46751  -0.46554
 Alpha  occ. eigenvalues --   -0.46481  -0.46252  -0.46061  -0.45868  -0.45277
 Alpha  occ. eigenvalues --   -0.45099  -0.45004  -0.44587  -0.44513  -0.44439
 Alpha  occ. eigenvalues --   -0.44185  -0.44068  -0.43657  -0.43487  -0.43398
 Alpha  occ. eigenvalues --   -0.43318  -0.43135  -0.42869  -0.42477  -0.42401
 Alpha  occ. eigenvalues --   -0.42229  -0.42020  -0.41765  -0.41615  -0.41377
 Alpha  occ. eigenvalues --   -0.41362  -0.41194  -0.41074  -0.40851  -0.40641
 Alpha  occ. eigenvalues --   -0.40482  -0.40330  -0.40141  -0.39932  -0.39722
 Alpha  occ. eigenvalues --   -0.39475  -0.39425  -0.39135  -0.38858  -0.38827
 Alpha  occ. eigenvalues --   -0.38740  -0.38553  -0.38296  -0.38160  -0.37925
 Alpha  occ. eigenvalues --   -0.37808  -0.37720  -0.37518  -0.37344  -0.36962
 Alpha  occ. eigenvalues --   -0.36728  -0.36686  -0.36545  -0.36385  -0.36144
 Alpha  occ. eigenvalues --   -0.35995  -0.35430  -0.35113  -0.35031  -0.34765
 Alpha  occ. eigenvalues --   -0.34529  -0.34117  -0.34010  -0.33842  -0.33580
 Alpha  occ. eigenvalues --   -0.33270  -0.32862  -0.32766  -0.32538  -0.32352
 Alpha  occ. eigenvalues --   -0.32220  -0.31827  -0.31608  -0.31504  -0.30996
 Alpha  occ. eigenvalues --   -0.30788  -0.30020  -0.29902  -0.29219  -0.29153
 Alpha  occ. eigenvalues --   -0.29123  -0.28819  -0.28670  -0.27328  -0.26035
 Alpha  occ. eigenvalues --   -0.25525  -0.25417  -0.25395  -0.24880  -0.21471
 Alpha  occ. eigenvalues --   -0.19148
 Alpha virt. eigenvalues --   -0.11752  -0.05160  -0.03738  -0.01489  -0.00507
 Alpha virt. eigenvalues --    0.00388   0.00534   0.01320   0.02427   0.03242
 Alpha virt. eigenvalues --    0.03916   0.04690   0.04956   0.05105   0.05353

 Mulliken charges:
               1
     1  Mg   0.971591
     2  C   -0.022008
     3  C   -0.079136
     4  C   -0.094522
     5  C   -0.084180
     6  N   -0.413051
     7  C    0.049368
     8  C   -0.098184
     9  C   -0.147709
    10  C    0.114993
    11  C    0.031352
    12  C    0.033807
    13  C   -0.059970
    14  C    0.238742
    15  O   -0.236059
    16  O   -0.382696
    17  N   -0.510222
    18  C    0.179068
    19  C   -0.179398
    20  C   -0.102573
    21  C    0.229085
    22  C    0.077146
    23  C    0.014144
    24  O   -0.204527
    25  C   -0.016414
    26  N   -0.393242
    27  C    0.041412
    28  C   -0.071992
    29  C   -0.104491
    30  C    0.087562
    31  C    0.013097
    32  C   -0.071514
    33  C   -0.053274
    34  N   -0.454984
    35  C    0.145385
    36  C   -0.154028
    37  C   -0.009684
    38  C    0.150037
    39  C    0.047448
    40  C    0.112900
    41  O   -0.207551
    42  C   -0.097849
    43  C    0.255702
    44  O   -0.244727
    45  O   -0.367252
    46  C    0.137339
    47  C    0.261176
    48  C   -0.126625
    49  C   -0.253765
    50  C    0.015979
    51  C    0.031974
    52  C   -0.089315
    53  C    0.009745
    54  C   -0.217181
    55  C   -0.036537
    56  C   -0.019167
    57  C    0.005583
    58  C   -0.023451
    59  C   -0.198745
    60  C   -0.007497
    61  C    0.009628
    62  C   -0.002669
    63  C   -0.018647
    64  C   -0.308781
    65  C   -0.021796
    66  C    0.011386
    67  H    0.003326
    68  H   -0.018183
    69  H   -0.008295
    70  H    0.056098
    71  H    0.034115
    72  H    0.038406
    73  H    0.055777
    74  H    0.052685
    75  H    0.046847
    76  H    0.042152
    77  H    0.060624
    78  H    0.065194
    79  H    0.064376
    80  H    0.034007
    81  H    0.058911
    82  H    0.071973
    83  H    0.054070
    84  H    0.071147
    85  H    0.045452
    86  H    0.050067
    87  H    0.035525
    88  H    0.055799
    89  H    0.035807
    90  H    0.044406
    91  H    0.042677
    92  H    0.034877
    93  H    0.066916
    94  H    0.044021
    95  H    0.055903
    96  H    0.058484
    97  H    0.057124
    98  H    0.081281
    99  H    0.020357
   100  H    0.059450
   101  H    0.072814
   102  H    0.065826
   103  H    0.054411
   104  H    0.026447
   105  H    0.059602
   106  H    0.021194
   107  H    0.058047
   108  H    0.046689
   109  H    0.030671
   110  H    0.027637
   111  H    0.029313
   112  H    0.027042
   113  H    0.032169
   114  H    0.031994
   115  H    0.032197
   116  H    0.034273
   117  H    0.034357
   118  H    0.015111
   119  H    0.032575
   120  H    0.039333
   121  H    0.027738
   122  H    0.020779
   123  H    0.003324
   124  H    0.017663
   125  H    0.029792
   126  H    0.031410
   127  H    0.041866
   128  H    0.010078
   129  H    0.022494
   130  H    0.043888
   131  H    0.028590
   132  H    0.029740
   133  H    0.030422
   134  H    0.034487
   135  H    0.033261
   136  H    0.022635
   137  H    0.038177
   138  H    0.030437
   139  H    0.024481
   140  H    0.045420
 Sum of Mulliken charges =  -0.00000

 Dipole moment (field-independent basis, Debye):
    X=              1.1536    Y=             -3.8423    Z=              1.3641  Tot=              4.2373
 Quadrupole moment (field-independent basis, Debye-Ang):
   XX=           -390.7654   YY=           -407.2582   ZZ=           -395.3551
   XY=             56.6711   XZ=             -5.8964   YZ=            -31.7038

 Normal termination of Gaussian 16 at Thu Apr 28 06:54:46 2022.
