 Gaussian 16, Revision A.03,
 Gaussian 16:  ES64L-G16RevA.03 25-Dec-2016

 --------------------------------
 #p wB97XD/Def2SVP td=(nstates=5)
 --------------------------------

 -----------------------------------------------------
 step_1501_chromophore_17 TDDFT with wB97XD functional
 -----------------------------------------------------
 Symbolic Z-matrix:
 Charge =  0 Multiplicity = 1

                         Standard orientation:
 ---------------------------------------------------------------------
 Center     Atomic      Atomic             Coordinates (Angstroms)
 Number     Number       Type             X           Y           Z
 ---------------------------------------------------------------------
      1         12           0       -4.560204   -1.488782   -0.484301
      2          6           0       -4.706556    1.967336   -0.145708
      3          6           0       -1.910508   -1.015256   -2.665081
      4          6           0       -3.820305   -4.658403   -0.101781
      5          6           0       -7.035716   -1.760224    1.951667
      6          7           0       -3.327274    0.208846   -1.116790
      7          6           0       -3.638104    1.610305   -0.919008
      8          6           0       -2.651996    2.494528   -1.747781
      9          6           0       -2.217462    1.462471   -2.802470
     10          6           0       -2.468111    0.082360   -2.140183
     11          6           0       -2.981027    1.647999   -4.168145
     12          6           0       -1.516402    3.223192   -0.852010
     13          6           0       -1.361401    4.755492   -1.032229
     14          6           0       -0.205623    5.483746   -0.327564
     15          8           0       -0.350784    6.617917    0.041290
     16          8           0        0.970940    4.727520   -0.273609
     17          7           0       -3.117199   -2.702272   -1.365850
     18          6           0       -2.072268   -2.355897   -2.217011
     19          6           0       -1.447319   -3.518275   -2.617324
     20          6           0       -1.933520   -4.605800   -1.824710
     21          6           0       -2.963179   -4.000528   -0.983113
     22          6           0       -0.311206   -3.455451   -3.635189
     23          6           0       -1.342369   -6.016081   -1.879713
     24          8           0       -0.529382   -6.233205   -2.720693
     25          6           0       -1.776566   -7.110996   -0.853780
     26          7           0       -5.356763   -2.992968    0.796916
     27          6           0       -4.844556   -4.258124    0.738526
     28          6           0       -5.721692   -5.222782    1.677168
     29          6           0       -6.832691   -4.249350    2.154521
     30          6           0       -6.356543   -2.903563    1.675488
     31          6           0       -6.144640   -6.601947    1.099250
     32          6           0       -7.272000   -4.454189    3.648631
     33          6           0       -6.503127   -3.570204    4.657152
     34          7           0       -5.835007   -0.225458    0.601081
     35          6           0       -6.780907   -0.475518    1.547223
     36          6           0       -7.416045    0.826626    1.899373
     37          6           0       -6.585450    1.813807    1.319771
     38          6           0       -5.620955    1.103298    0.613391
     39          6           0       -8.455912    1.041304    2.811301
     40          6           0       -6.442909    3.185163    1.042640
     41          8           0       -7.084225    4.163638    1.377451
     42          6           0       -5.150595    3.323905    0.154172
     43          6           0       -5.448272    4.137508   -1.042483
     44          8           0       -6.012486    3.720383   -2.028853
     45          8           0       -5.088588    5.472313   -0.908240
     46          6           0       -5.220240    6.296902   -2.073444
     47          6           0        2.070140    5.415245    0.384651
     48          6           0        3.209615    4.523739    0.719890
     49          6           0        4.152189    4.815803    1.567093
     50          6           0        4.243443    6.101885    2.310720
     51          6           0        5.399959    3.968054    1.800413
     52          6           0        5.990724    3.282775    0.544941
     53          6           0        5.620549    1.744858    0.332331
     54          6           0        6.719992    0.761954    0.763053
     55          6           0        6.117065   -0.283167    1.814872
     56          6           0        7.549112   -0.001956   -0.341611
     57          6           0        9.044232   -0.160541    0.058112
     58          6           0        9.411525   -1.567518   -0.131522
     59          6           0       10.491543   -1.896813   -1.167002
     60          6           0        9.745582   -2.239244   -2.465221
     61          6           0       11.472365   -3.051789   -0.763859
     62          6           0       12.861753   -2.512337   -0.404762
     63          6           0       12.987863   -2.420927    1.115867
     64          6           0       13.414166   -0.927918    1.486077
     65          6           0       14.942352   -0.818861    1.231935
     66          6           0       13.135474   -0.638029    2.954288
     67          1           0       -1.146546   -0.837126   -3.424158
     68          1           0       -3.704299   -5.739619    0.001862
     69          1           0       -7.803172   -1.849534    2.724297
     70          1           0       -3.143695    3.385833   -2.137392
     71          1           0       -1.151507    1.569271   -3.003594
     72          1           0       -2.274298    1.350682   -4.942820
     73          1           0       -3.310147    2.675339   -4.323829
     74          1           0       -3.794321    0.924597   -4.215546
     75          1           0       -0.537292    2.772580   -1.015997
     76          1           0       -1.712993    2.932043    0.179841
     77          1           0       -2.285726    5.222214   -0.690815
     78          1           0       -1.399745    5.116273   -2.060200
     79          1           0        0.608875   -3.620039   -3.075562
     80          1           0       -0.303107   -2.542988   -4.230741
     81          1           0       -0.457123   -4.278596   -4.334865
     82          1           0       -1.688615   -6.556740    0.081454
     83          1           0       -1.173389   -8.012482   -0.962462
     84          1           0       -2.779591   -7.393629   -1.172663
     85          1           0       -5.041246   -5.380010    2.513867
     86          1           0       -7.754644   -4.533508    1.648203
     87          1           0       -5.274456   -7.249616    0.992092
     88          1           0       -6.644094   -6.595097    0.130185
     89          1           0       -6.676424   -7.212026    1.828830
     90          1           0       -7.243623   -5.510487    3.918266
     91          1           0       -8.315183   -4.155104    3.543516
     92          1           0       -7.167116   -2.746511    4.920285
     93          1           0       -5.581516   -3.113966    4.297261
     94          1           0       -6.420748   -4.141036    5.582327
     95          1           0       -8.418950    2.105548    3.043381
     96          1           0       -8.242535    0.398454    3.665519
     97          1           0       -9.469554    0.945766    2.421587
     98          1           0       -4.346983    3.794923    0.721999
     99          1           0       -4.356330    5.961103   -2.647112
    100          1           0       -4.955351    7.333875   -1.865676
    101          1           0       -6.107783    6.213352   -2.700030
    102          1           0        1.740085    5.887517    1.309809
    103          1           0        2.498558    6.158174   -0.289137
    104          1           0        3.229976    3.489613    0.378622
    105          1           0        4.497662    5.785997    3.322077
    106          1           0        3.341679    6.708919    2.391602
    107          1           0        4.831632    6.801465    1.716651
    108          1           0        5.172669    3.249616    2.587577
    109          1           0        6.218743    4.553163    2.219586
    110          1           0        7.065144    3.421477    0.426674
    111          1           0        5.636582    3.842548   -0.320115
    112          1           0        5.418475    1.537259   -0.718681
    113          1           0        4.709254    1.685040    0.927282
    114          1           0        7.371430    1.320689    1.436117
    115          1           0        5.027688   -0.267584    1.772582
    116          1           0        6.412404    0.049354    2.810188
    117          1           0        6.435716   -1.306061    1.618123
    118          1           0        7.508566    0.584843   -1.259781
    119          1           0        7.030729   -0.904615   -0.662608
    120          1           0        9.210189    0.208429    1.069328
    121          1           0        9.607714    0.427657   -0.666136
    122          1           0        8.536358   -2.216501   -0.180486
    123          1           0        9.790661   -1.842849    0.852398
    124          1           0       11.108506   -0.999467   -1.210855
    125          1           0       10.380462   -2.174811   -3.348871
    126          1           0        8.948254   -1.540358   -2.716850
    127          1           0        9.390906   -3.261271   -2.330631
    128          1           0       11.526091   -3.773032   -1.578827
    129          1           0       10.967602   -3.652347   -0.006925
    130          1           0       13.069448   -1.543534   -0.860027
    131          1           0       13.590116   -3.265620   -0.703899
    132          1           0       13.763301   -3.062464    1.536081
    133          1           0       12.097563   -2.600845    1.717296
    134          1           0       12.965776   -0.168910    0.844048
    135          1           0       15.424937   -1.796756    1.245684
    136          1           0       15.525801   -0.277877    1.977168
    137          1           0       15.042847   -0.215213    0.329871
    138          1           0       13.917156    0.043185    3.292614
    139          1           0       13.351420   -1.599529    3.418747
    140          1           0       12.102651   -0.330653    3.116856
 ---------------------------------------------------------------------

 SCF Done:  E(RwB97XD) =  -3007.84994703     A.U. after   19 cycles

 Excitation energies and oscillator strengths:

 Excited State   1:      Singlet-A      1.6349 eV  758.35 nm  f=0.3925  <S**2>=0.000
     245 -> 248        0.15962
     246 -> 247        0.68845
     245 <- 248        0.10794
 This state for optimization and/or second-order correction.
 Total Energy, E(TD-HF/TD-DFT) =  -3007.78986487
 Copying the excited state density for this state as the 1-particle RhoCI density.

 Excited State   2:      Singlet-A      2.1718 eV  570.89 nm  f=0.1345  <S**2>=0.000
     245 -> 247        0.64666
     246 -> 248       -0.25931

 Excited State   3:      Singlet-A      3.0715 eV  403.66 nm  f=0.0048  <S**2>=0.000
     244 -> 247        0.68487

 Excited State   4:      Singlet-A      3.3768 eV  367.17 nm  f=0.0018  <S**2>=0.000
     243 -> 247        0.66643
     246 -> 248        0.13240

 Excited State   5:      Singlet-A      3.5796 eV  346.36 nm  f=0.0010  <S**2>=0.000
     241 -> 247        0.59136
     241 -> 248        0.18313
     241 -> 249       -0.13389
     241 -> 250       -0.26839

 The electronic state is 1-A.
 Alpha  occ. eigenvalues --  -46.95030 -19.30644 -19.29801 -19.25312 -19.24549
 Alpha  occ. eigenvalues --  -19.23906 -19.23864 -14.46881 -14.46395 -14.43941
 Alpha  occ. eigenvalues --  -14.43799 -10.43657 -10.42904 -10.39070 -10.38821
 Alpha  occ. eigenvalues --  -10.35663 -10.35583 -10.35213 -10.34912 -10.34544
 Alpha  occ. eigenvalues --  -10.34382 -10.34364 -10.33396 -10.33385 -10.33209
 Alpha  occ. eigenvalues --  -10.32822 -10.32702 -10.32251 -10.31785 -10.31656
 Alpha  occ. eigenvalues --  -10.31650 -10.31602 -10.31581 -10.31482 -10.31216
 Alpha  occ. eigenvalues --  -10.31076 -10.31046 -10.31014 -10.30966 -10.30557
 Alpha  occ. eigenvalues --  -10.30422 -10.30321 -10.29924 -10.29897 -10.29821
 Alpha  occ. eigenvalues --  -10.29666 -10.29564 -10.29377 -10.29289 -10.29269
 Alpha  occ. eigenvalues --  -10.29228 -10.29170 -10.29051 -10.28893 -10.28806
 Alpha  occ. eigenvalues --  -10.28706 -10.28675 -10.28638 -10.28516 -10.28324
 Alpha  occ. eigenvalues --  -10.28262 -10.28137 -10.28046 -10.27840 -10.27783
 Alpha  occ. eigenvalues --  -10.27259  -3.21011  -1.94595  -1.94151  -1.93970
 Alpha  occ. eigenvalues --   -1.18568  -1.18469  -1.14118  -1.12317  -1.11237
 Alpha  occ. eigenvalues --   -1.10154  -1.06998  -1.05916  -1.05345  -1.03918
 Alpha  occ. eigenvalues --   -0.95659  -0.92987  -0.92042  -0.91673  -0.90796
 Alpha  occ. eigenvalues --   -0.90598  -0.90409  -0.90232  -0.89478  -0.89004
 Alpha  occ. eigenvalues --   -0.87774  -0.87314  -0.86455  -0.86075  -0.85720
 Alpha  occ. eigenvalues --   -0.84524  -0.84335  -0.83374  -0.82971  -0.82745
 Alpha  occ. eigenvalues --   -0.81676  -0.80385  -0.79910  -0.79157  -0.78256
 Alpha  occ. eigenvalues --   -0.77394  -0.77021  -0.76872  -0.76291  -0.75676
 Alpha  occ. eigenvalues --   -0.75435  -0.74917  -0.73802  -0.72790  -0.72698
 Alpha  occ. eigenvalues --   -0.71147  -0.70162  -0.69418  -0.68730  -0.67630
 Alpha  occ. eigenvalues --   -0.67087  -0.67025  -0.66817  -0.66572  -0.66105
 Alpha  occ. eigenvalues --   -0.65951  -0.64910  -0.64518  -0.63999  -0.62353
 Alpha  occ. eigenvalues --   -0.61745  -0.61454  -0.60828  -0.60616  -0.60176
 Alpha  occ. eigenvalues --   -0.59357  -0.58708  -0.58410  -0.58075  -0.57901
 Alpha  occ. eigenvalues --   -0.57206  -0.56919  -0.56771  -0.56376  -0.55923
 Alpha  occ. eigenvalues --   -0.55494  -0.55373  -0.55172  -0.55000  -0.54895
 Alpha  occ. eigenvalues --   -0.54510  -0.54452  -0.54366  -0.54170  -0.53895
 Alpha  occ. eigenvalues --   -0.53849  -0.53578  -0.53396  -0.53274  -0.52643
 Alpha  occ. eigenvalues --   -0.52443  -0.52361  -0.52019  -0.51877  -0.51839
 Alpha  occ. eigenvalues --   -0.51549  -0.51384  -0.50977  -0.50824  -0.50733
 Alpha  occ. eigenvalues --   -0.50633  -0.50425  -0.50144  -0.49756  -0.49644
 Alpha  occ. eigenvalues --   -0.49484  -0.49238  -0.48989  -0.48894  -0.48626
 Alpha  occ. eigenvalues --   -0.48558  -0.48456  -0.48320  -0.48110  -0.47970
 Alpha  occ. eigenvalues --   -0.47726  -0.47493  -0.47348  -0.47119  -0.46899
 Alpha  occ. eigenvalues --   -0.46687  -0.46585  -0.46226  -0.46009  -0.45920
 Alpha  occ. eigenvalues --   -0.45879  -0.45790  -0.45584  -0.45317  -0.45076
 Alpha  occ. eigenvalues --   -0.44969  -0.44833  -0.44618  -0.44446  -0.44016
 Alpha  occ. eigenvalues --   -0.43834  -0.43791  -0.43680  -0.43393  -0.43221
 Alpha  occ. eigenvalues --   -0.43117  -0.42491  -0.42208  -0.42084  -0.41789
 Alpha  occ. eigenvalues --   -0.41611  -0.41213  -0.41041  -0.40878  -0.40549
 Alpha  occ. eigenvalues --   -0.40293  -0.39931  -0.39681  -0.39585  -0.39385
 Alpha  occ. eigenvalues --   -0.39225  -0.38847  -0.38564  -0.38513  -0.37965
 Alpha  occ. eigenvalues --   -0.37851  -0.36838  -0.36819  -0.36234  -0.36194
 Alpha  occ. eigenvalues --   -0.36070  -0.35618  -0.35511  -0.33934  -0.33054
 Alpha  occ. eigenvalues --   -0.32657  -0.32193  -0.31905  -0.31624  -0.26531
 Alpha  occ. eigenvalues --   -0.23344
 Alpha virt. eigenvalues --   -0.07704   0.00328   0.02604   0.05001   0.05434
 Alpha virt. eigenvalues --    0.07125   0.07439   0.08013   0.09164   0.09880
 Alpha virt. eigenvalues --    0.10313   0.11274   0.11704   0.11822   0.12114

 Mulliken charges:
               1
     1  Mg   0.962077
     2  C   -0.013607
     3  C   -0.100470
     4  C   -0.095037
     5  C   -0.095585
     6  N   -0.383649
     7  C    0.012956
     8  C   -0.062850
     9  C   -0.118594
    10  C    0.105895
    11  C    0.039006
    12  C    0.038199
    13  C   -0.035644
    14  C    0.230748
    15  O   -0.234628
    16  O   -0.381830
    17  N   -0.482269
    18  C    0.174060
    19  C   -0.171798
    20  C   -0.097569
    21  C    0.227238
    22  C    0.088289
    23  C    0.007644
    24  O   -0.199722
    25  C    0.001887
    26  N   -0.354938
    27  C    0.020482
    28  C   -0.044242
    29  C   -0.084333
    30  C    0.072860
    31  C    0.024722
    32  C   -0.056271
    33  C   -0.036848
    34  N   -0.420637
    35  C    0.132438
    36  C   -0.149070
    37  C   -0.006701
    38  C    0.131678
    39  C    0.055779
    40  C    0.094709
    41  O   -0.198090
    42  C   -0.056303
    43  C    0.230395
    44  O   -0.238609
    45  O   -0.363831
    46  C    0.153395
    47  C    0.276316
    48  C   -0.135150
    49  C   -0.236627
    50  C    0.029808
    51  C    0.042906
    52  C   -0.068058
    53  C    0.025329
    54  C   -0.187049
    55  C   -0.024289
    56  C   -0.003863
    57  C    0.019300
    58  C   -0.004579
    59  C   -0.165576
    60  C    0.006711
    61  C    0.021585
    62  C    0.017301
    63  C   -0.004722
    64  C   -0.274996
    65  C   -0.013303
    66  C    0.026765
    67  H   -0.003105
    68  H   -0.037559
    69  H   -0.017273
    70  H    0.030398
    71  H    0.025159
    72  H    0.032990
    73  H    0.052048
    74  H    0.046504
    75  H    0.039389
    76  H    0.034715
    77  H    0.048192
    78  H    0.059345
    79  H    0.060569
    80  H    0.030194
    81  H    0.054869
    82  H    0.065063
    83  H    0.053550
    84  H    0.065683
    85  H    0.033725
    86  H    0.038440
    87  H    0.029097
    88  H    0.050957
    89  H    0.030729
    90  H    0.036824
    91  H    0.035107
    92  H    0.027972
    93  H    0.059219
    94  H    0.039149
    95  H    0.051363
    96  H    0.052413
    97  H    0.052756
    98  H    0.073443
    99  H    0.013332
   100  H    0.056504
   101  H    0.069719
   102  H    0.058038
   103  H    0.049142
   104  H    0.020874
   105  H    0.054091
   106  H    0.015812
   107  H    0.052338
   108  H    0.037954
   109  H    0.024591
   110  H    0.019906
   111  H    0.019145
   112  H    0.019961
   113  H    0.018479
   114  H    0.015774
   115  H    0.025816
   116  H    0.029051
   117  H    0.027558
   118  H    0.006129
   119  H    0.022923
   120  H    0.031977
   121  H    0.018986
   122  H    0.009183
   123  H   -0.009382
   124  H    0.000654
   125  H    0.024134
   126  H    0.023738
   127  H    0.034482
   128  H    0.002885
   129  H    0.013429
   130  H    0.033166
   131  H    0.022181
   132  H    0.020266
   133  H    0.018733
   134  H    0.021547
   135  H    0.026433
   136  H    0.016588
   137  H    0.032767
   138  H    0.023537
   139  H    0.016117
   140  H    0.040377
 Sum of Mulliken charges =  -0.00000

 Dipole moment (field-independent basis, Debye):
    X=              1.3548    Y=             -4.1364    Z=              1.1837  Tot=              4.5107
 Quadrupole moment (field-independent basis, Debye-Ang):
   XX=           -392.3533   YY=           -405.8761   ZZ=           -394.9818
   XY=             57.0469   XZ=             -5.0164   YZ=            -31.1671

 Normal termination of Gaussian 16 at Thu Apr 28 07:26:20 2022.
