 Gaussian 16, Revision A.03,
 Gaussian 16:  ES64L-G16RevA.03 25-Dec-2016

 --------------------
 #p ZINDO=(nstates=5)
 --------------------

 ------------------------------
 step_1501_chromophore_17 ZINDO
 ------------------------------
 Symbolic Z-matrix:
 Charge =  0 Multiplicity = 1

                         Standard orientation:
 ---------------------------------------------------------------------
 Center     Atomic      Atomic             Coordinates (Angstroms)
 Number     Number       Type             X           Y           Z
 ---------------------------------------------------------------------
      1         12           0       -4.560204   -1.488782   -0.484301
      2          6           0       -4.706556    1.967336   -0.145708
      3          6           0       -1.910508   -1.015256   -2.665081
      4          6           0       -3.820305   -4.658403   -0.101781
      5          6           0       -7.035716   -1.760224    1.951667
      6          7           0       -3.327274    0.208846   -1.116790
      7          6           0       -3.638104    1.610305   -0.919008
      8          6           0       -2.651996    2.494528   -1.747781
      9          6           0       -2.217462    1.462471   -2.802470
     10          6           0       -2.468111    0.082360   -2.140183
     11          6           0       -2.981027    1.647999   -4.168145
     12          6           0       -1.516402    3.223192   -0.852010
     13          6           0       -1.361401    4.755492   -1.032229
     14          6           0       -0.205623    5.483746   -0.327564
     15          8           0       -0.350784    6.617917    0.041290
     16          8           0        0.970940    4.727520   -0.273609
     17          7           0       -3.117199   -2.702272   -1.365850
     18          6           0       -2.072268   -2.355897   -2.217011
     19          6           0       -1.447319   -3.518275   -2.617324
     20          6           0       -1.933520   -4.605800   -1.824710
     21          6           0       -2.963179   -4.000528   -0.983113
     22          6           0       -0.311206   -3.455451   -3.635189
     23          6           0       -1.342369   -6.016081   -1.879713
     24          8           0       -0.529382   -6.233205   -2.720693
     25          6           0       -1.776566   -7.110996   -0.853780
     26          7           0       -5.356763   -2.992968    0.796916
     27          6           0       -4.844556   -4.258124    0.738526
     28          6           0       -5.721692   -5.222782    1.677168
     29          6           0       -6.832691   -4.249350    2.154521
     30          6           0       -6.356543   -2.903563    1.675488
     31          6           0       -6.144640   -6.601947    1.099250
     32          6           0       -7.272000   -4.454189    3.648631
     33          6           0       -6.503127   -3.570204    4.657152
     34          7           0       -5.835007   -0.225458    0.601081
     35          6           0       -6.780907   -0.475518    1.547223
     36          6           0       -7.416045    0.826626    1.899373
     37          6           0       -6.585450    1.813807    1.319771
     38          6           0       -5.620955    1.103298    0.613391
     39          6           0       -8.455912    1.041304    2.811301
     40          6           0       -6.442909    3.185163    1.042640
     41          8           0       -7.084225    4.163638    1.377451
     42          6           0       -5.150595    3.323905    0.154172
     43          6           0       -5.448272    4.137508   -1.042483
     44          8           0       -6.012486    3.720383   -2.028853
     45          8           0       -5.088588    5.472313   -0.908240
     46          6           0       -5.220240    6.296902   -2.073444
     47          6           0        2.070140    5.415245    0.384651
     48          6           0        3.209615    4.523739    0.719890
     49          6           0        4.152189    4.815803    1.567093
     50          6           0        4.243443    6.101885    2.310720
     51          6           0        5.399959    3.968054    1.800413
     52          6           0        5.990724    3.282775    0.544941
     53          6           0        5.620549    1.744858    0.332331
     54          6           0        6.719992    0.761954    0.763053
     55          6           0        6.117065   -0.283167    1.814872
     56          6           0        7.549112   -0.001956   -0.341611
     57          6           0        9.044232   -0.160541    0.058112
     58          6           0        9.411525   -1.567518   -0.131522
     59          6           0       10.491543   -1.896813   -1.167002
     60          6           0        9.745582   -2.239244   -2.465221
     61          6           0       11.472365   -3.051789   -0.763859
     62          6           0       12.861753   -2.512337   -0.404762
     63          6           0       12.987863   -2.420927    1.115867
     64          6           0       13.414166   -0.927918    1.486077
     65          6           0       14.942352   -0.818861    1.231935
     66          6           0       13.135474   -0.638029    2.954288
     67          1           0       -1.146546   -0.837126   -3.424158
     68          1           0       -3.704299   -5.739619    0.001862
     69          1           0       -7.803172   -1.849534    2.724297
     70          1           0       -3.143695    3.385833   -2.137392
     71          1           0       -1.151507    1.569271   -3.003594
     72          1           0       -2.274298    1.350682   -4.942820
     73          1           0       -3.310147    2.675339   -4.323829
     74          1           0       -3.794321    0.924597   -4.215546
     75          1           0       -0.537292    2.772580   -1.015997
     76          1           0       -1.712993    2.932043    0.179841
     77          1           0       -2.285726    5.222214   -0.690815
     78          1           0       -1.399745    5.116273   -2.060200
     79          1           0        0.608875   -3.620039   -3.075562
     80          1           0       -0.303107   -2.542988   -4.230741
     81          1           0       -0.457123   -4.278596   -4.334865
     82          1           0       -1.688615   -6.556740    0.081454
     83          1           0       -1.173389   -8.012482   -0.962462
     84          1           0       -2.779591   -7.393629   -1.172663
     85          1           0       -5.041246   -5.380010    2.513867
     86          1           0       -7.754644   -4.533508    1.648203
     87          1           0       -5.274456   -7.249616    0.992092
     88          1           0       -6.644094   -6.595097    0.130185
     89          1           0       -6.676424   -7.212026    1.828830
     90          1           0       -7.243623   -5.510487    3.918266
     91          1           0       -8.315183   -4.155104    3.543516
     92          1           0       -7.167116   -2.746511    4.920285
     93          1           0       -5.581516   -3.113966    4.297261
     94          1           0       -6.420748   -4.141036    5.582327
     95          1           0       -8.418950    2.105548    3.043381
     96          1           0       -8.242535    0.398454    3.665519
     97          1           0       -9.469554    0.945766    2.421587
     98          1           0       -4.346983    3.794923    0.721999
     99          1           0       -4.356330    5.961103   -2.647112
    100          1           0       -4.955351    7.333875   -1.865676
    101          1           0       -6.107783    6.213352   -2.700030
    102          1           0        1.740085    5.887517    1.309809
    103          1           0        2.498558    6.158174   -0.289137
    104          1           0        3.229976    3.489613    0.378622
    105          1           0        4.497662    5.785997    3.322077
    106          1           0        3.341679    6.708919    2.391602
    107          1           0        4.831632    6.801465    1.716651
    108          1           0        5.172669    3.249616    2.587577
    109          1           0        6.218743    4.553163    2.219586
    110          1           0        7.065144    3.421477    0.426674
    111          1           0        5.636582    3.842548   -0.320115
    112          1           0        5.418475    1.537259   -0.718681
    113          1           0        4.709254    1.685040    0.927282
    114          1           0        7.371430    1.320689    1.436117
    115          1           0        5.027688   -0.267584    1.772582
    116          1           0        6.412404    0.049354    2.810188
    117          1           0        6.435716   -1.306061    1.618123
    118          1           0        7.508566    0.584843   -1.259781
    119          1           0        7.030729   -0.904615   -0.662608
    120          1           0        9.210189    0.208429    1.069328
    121          1           0        9.607714    0.427657   -0.666136
    122          1           0        8.536358   -2.216501   -0.180486
    123          1           0        9.790661   -1.842849    0.852398
    124          1           0       11.108506   -0.999467   -1.210855
    125          1           0       10.380462   -2.174811   -3.348871
    126          1           0        8.948254   -1.540358   -2.716850
    127          1           0        9.390906   -3.261271   -2.330631
    128          1           0       11.526091   -3.773032   -1.578827
    129          1           0       10.967602   -3.652347   -0.006925
    130          1           0       13.069448   -1.543534   -0.860027
    131          1           0       13.590116   -3.265620   -0.703899
    132          1           0       13.763301   -3.062464    1.536081
    133          1           0       12.097563   -2.600845    1.717296
    134          1           0       12.965776   -0.168910    0.844048
    135          1           0       15.424937   -1.796756    1.245684
    136          1           0       15.525801   -0.277877    1.977168
    137          1           0       15.042847   -0.215213    0.329871
    138          1           0       13.917156    0.043185    3.292614
    139          1           0       13.351420   -1.599529    3.418747
    140          1           0       12.102651   -0.330653    3.116856
 ---------------------------------------------------------------------

 SCF Done:  E(RZINDO/S) =  -474.676190999     A.U. after   19 cycles

 Excitation energies and oscillator strengths:

 Excited State   1:      Singlet-A      1.2459 eV  995.11 nm  f=0.6432  <S**2>=0.000
     175 ->178         0.17382
     176 ->177         0.66647
 This state for optimization and/or second-order correction.
 Total Energy, E(CIS/TDA) =  -474.630403617
 Copying the excited state density for this state as the 1-particle RhoCI density.

 Excited State   2:      Singlet-A      1.9613 eV  632.15 nm  f=0.0628  <S**2>=0.000
     175 ->177         0.56479
     176 ->178        -0.39439

 Excited State   3:      Singlet-A      2.9732 eV  417.01 nm  f=0.1483  <S**2>=0.000
     168 ->177         0.10158
     168 ->180         0.14238
     168 ->185         0.10032
     171 ->177         0.14101
     172 ->177         0.53040
     175 ->177        -0.12871
     176 ->178        -0.26592

 Excited State   4:      Singlet-A      3.0215 eV  410.35 nm  f=0.0435  <S**2>=0.000
     169 ->177         0.26503
     169 ->179        -0.43767
     169 ->180         0.16059
     169 ->185        -0.15410
     169 ->187         0.12113
     170 ->179        -0.10032
     171 ->177        -0.10386
     176 ->178        -0.10145
     176 ->179         0.23921

 Excited State   5:      Singlet-A      3.0510 eV  406.38 nm  f=0.6139  <S**2>=0.000
     168 ->177         0.14747
     168 ->178         0.10106
     168 ->180         0.15998
     168 ->185         0.10091
     169 ->179        -0.17667
     171 ->177         0.10653
     174 ->177         0.23143
     175 ->177         0.28014
     176 ->178         0.39528
     176 ->179        -0.15476

 The electronic state is 1-A.
 Alpha  occ. eigenvalues --   -1.85678  -1.82192  -1.80537  -1.73179  -1.72428
 Alpha  occ. eigenvalues --   -1.70928  -1.66841  -1.61100  -1.60862  -1.60459
 Alpha  occ. eigenvalues --   -1.57589  -1.52119  -1.49922  -1.48721  -1.48417
 Alpha  occ. eigenvalues --   -1.44359  -1.44130  -1.41808  -1.40637  -1.38547
 Alpha  occ. eigenvalues --   -1.36990  -1.34657  -1.32934  -1.31721  -1.28525
 Alpha  occ. eigenvalues --   -1.28261  -1.27625  -1.23805  -1.21502  -1.19011
 Alpha  occ. eigenvalues --   -1.16489  -1.14936  -1.14846  -1.13675  -1.13634
 Alpha  occ. eigenvalues --   -1.11520  -1.09777  -1.09673  -1.05546  -1.04678
 Alpha  occ. eigenvalues --   -1.01502  -1.01365  -0.99395  -0.98960  -0.97878
 Alpha  occ. eigenvalues --   -0.97334  -0.95128  -0.94699  -0.93497  -0.92943
 Alpha  occ. eigenvalues --   -0.92578  -0.90524  -0.88777  -0.87905  -0.86724
 Alpha  occ. eigenvalues --   -0.85435  -0.84844  -0.83496  -0.81541  -0.80446
 Alpha  occ. eigenvalues --   -0.79165  -0.78339  -0.77095  -0.76634  -0.76366
 Alpha  occ. eigenvalues --   -0.76241  -0.75047  -0.74735  -0.74289  -0.72656
 Alpha  occ. eigenvalues --   -0.72389  -0.72042  -0.71681  -0.71034  -0.70029
 Alpha  occ. eigenvalues --   -0.69848  -0.69259  -0.68653  -0.68327  -0.67833
 Alpha  occ. eigenvalues --   -0.67530  -0.67385  -0.66267  -0.65778  -0.65740
 Alpha  occ. eigenvalues --   -0.65277  -0.64746  -0.64711  -0.64494  -0.64159
 Alpha  occ. eigenvalues --   -0.63990  -0.63512  -0.63151  -0.62960  -0.62200
 Alpha  occ. eigenvalues --   -0.62171  -0.61872  -0.60976  -0.60375  -0.60072
 Alpha  occ. eigenvalues --   -0.59576  -0.59565  -0.59158  -0.58807  -0.58329
 Alpha  occ. eigenvalues --   -0.57999  -0.57552  -0.57124  -0.57007  -0.56502
 Alpha  occ. eigenvalues --   -0.55823  -0.55528  -0.55347  -0.55284  -0.55101
 Alpha  occ. eigenvalues --   -0.54557  -0.54356  -0.53975  -0.53241  -0.52950
 Alpha  occ. eigenvalues --   -0.52535  -0.52256  -0.52167  -0.51893  -0.51248
 Alpha  occ. eigenvalues --   -0.51193  -0.50365  -0.50314  -0.50157  -0.49884
 Alpha  occ. eigenvalues --   -0.49462  -0.49070  -0.48906  -0.48720  -0.48422
 Alpha  occ. eigenvalues --   -0.48176  -0.48028  -0.47932  -0.47665  -0.47416
 Alpha  occ. eigenvalues --   -0.47301  -0.47018  -0.46883  -0.46622  -0.46586
 Alpha  occ. eigenvalues --   -0.46460  -0.46170  -0.45914  -0.45778  -0.45650
 Alpha  occ. eigenvalues --   -0.45309  -0.45005  -0.44749  -0.44434  -0.43982
 Alpha  occ. eigenvalues --   -0.43907  -0.43059  -0.42955  -0.42810  -0.41729
 Alpha  occ. eigenvalues --   -0.41717  -0.41255  -0.40542  -0.39359  -0.38884
 Alpha  occ. eigenvalues --   -0.38312  -0.37816  -0.35360  -0.35035  -0.34923
 Alpha  occ. eigenvalues --   -0.33356  -0.32677  -0.32359  -0.32189  -0.27228
 Alpha  occ. eigenvalues --   -0.22125
 Alpha virt. eigenvalues --   -0.09039  -0.01994  -0.00373   0.01648   0.01753
 Alpha virt. eigenvalues --    0.02097   0.02875   0.03080   0.05092   0.05746
 Alpha virt. eigenvalues --    0.06246   0.07228   0.07369   0.07934   0.08321

 Mulliken charges:
               1
     1  Mg   0.429741
     2  C   -0.032385
     3  C   -0.081217
     4  C   -0.064928
     5  C   -0.043967
     6  N   -0.316279
     7  C    0.098700
     8  C    0.000215
     9  C    0.005740
    10  C    0.169785
    11  C   -0.048547
    12  C   -0.030076
    13  C    0.000639
    14  C    0.466673
    15  O   -0.498540
    16  O   -0.274675
    17  N   -0.338031
    18  C    0.123050
    19  C    0.036516
    20  C   -0.051121
    21  C    0.131220
    22  C   -0.042171
    23  C    0.321325
    24  O   -0.504928
    25  C   -0.034642
    26  N   -0.255349
    27  C    0.112512
    28  C    0.000540
    29  C    0.000214
    30  C    0.121488
    31  C   -0.050601
    32  C   -0.033681
    33  C   -0.057059
    34  N   -0.312973
    35  C    0.078663
    36  C    0.048115
    37  C   -0.061567
    38  C    0.118424
    39  C   -0.033522
    40  C    0.343998
    41  O   -0.523329
    42  C    0.060527
    43  C    0.493235
    44  O   -0.525675
    45  O   -0.269940
    46  C    0.076840
    47  C    0.108952
    48  C   -0.082038
    49  C   -0.007995
    50  C   -0.053716
    51  C   -0.017393
    52  C   -0.042437
    53  C   -0.034684
    54  C   -0.021700
    55  C   -0.067564
    56  C   -0.033613
    57  C   -0.025566
    58  C   -0.029427
    59  C   -0.012967
    60  C   -0.053376
    61  C   -0.035904
    62  C   -0.027305
    63  C   -0.036347
    64  C   -0.024489
    65  C   -0.065396
    66  C   -0.062625
    67  H    0.025219
    68  H    0.018045
    69  H    0.016004
    70  H    0.032763
    71  H    0.020036
    72  H    0.015193
    73  H    0.032706
    74  H    0.030478
    75  H    0.022411
    76  H    0.025407
    77  H    0.034893
    78  H    0.049357
    79  H    0.039927
    80  H    0.024044
    81  H    0.035290
    82  H    0.044400
    83  H    0.041540
    84  H    0.041543
    85  H    0.027077
    86  H    0.025254
    87  H    0.011062
    88  H    0.032120
    89  H    0.020255
    90  H    0.024367
    91  H    0.018471
    92  H    0.014500
    93  H    0.034283
    94  H    0.018070
    95  H    0.029962
    96  H    0.033022
    97  H    0.040540
    98  H    0.049652
    99  H    0.020037
   100  H    0.034848
   101  H    0.059339
   102  H    0.055468
   103  H    0.049223
   104  H    0.031497
   105  H    0.033318
   106  H    0.012335
   107  H    0.037866
   108  H    0.026567
   109  H    0.015667
   110  H    0.015782
   111  H    0.010954
   112  H    0.019652
   113  H    0.024281
   114  H    0.017945
   115  H    0.016319
   116  H    0.017168
   117  H    0.020245
   118  H    0.005752
   119  H    0.028026
   120  H    0.028034
   121  H    0.018294
   122  H    0.020583
   123  H   -0.004096
   124  H    0.022427
   125  H    0.009410
   126  H    0.016233
   127  H    0.024649
   128  H    0.009325
   129  H    0.021173
   130  H    0.034279
   131  H    0.014910
   132  H    0.021852
   133  H    0.019949
   134  H    0.022996
   135  H    0.022938
   136  H    0.011489
   137  H    0.016409
   138  H    0.021571
   139  H    0.016645
   140  H    0.023382
 Sum of Mulliken charges =  -0.00000

 Dipole moment (field-independent basis, Debye):
    X=              2.1170    Y=             -5.5503    Z=              2.6324  Tot=              6.4975
 N-N= 4.356062859808D+03 E-N= 0.000000000000D+00  KE=-9.386612047314D+03
 Leave Link  601 at Thu Apr 28 07:39:42 2022, MaxMem=  6710886400 cpu:               1.1 elap:               0.1
 (Enter /sw/apps/gaussian-16.0/g16/l9999.exe)
 1\1\GINC-BP1-COMPUTE154\SP\RZINDO CIS\STO-3G\C55H74Mg1N4O6\OF15641\28-
 Apr-2022\0\\#p ZINDO=(nstates=5)\\step_1501_chromophore_17 ZINDO\\0,1\
 Mg,0,29.248,59.747,41.489\C,0,26.091,58.809,40.378\C,0,30.441,56.789,4
 0.137\C,0,32.269,61.002,41.686\C,0,27.903,62.792,42.516\N,0,28.433,58.
 154,40.224\C,0,27.03,57.911,39.955\C,0,26.858,56.533,39.239\C,0,28.166
 ,55.856,39.683\C,0,29.129,57.025,40.018\C,0,27.945,54.864,40.887\C,0,2
 6.538,56.654,37.656\C,0,25.302,55.878,37.132\C,0,25.03,55.827,35.62\O,

 Normal termination of Gaussian 16 at Thu Apr 28 07:39:43 2022.
