 Gaussian 16, Revision A.03,
 Gaussian 16:  ES64L-G16RevA.03 25-Dec-2016

 ------------------------------
 #p blyp/Def2SVP td=(nstates=5)
 ------------------------------

 --------------------------------------------------
 step_251_chromophore_25 TDDFT with blyp functional
 --------------------------------------------------
 Symbolic Z-matrix:
 Charge =  0 Multiplicity = 1

                         Standard orientation:
 ---------------------------------------------------------------------
 Center     Atomic      Atomic             Coordinates (Angstroms)
 Number     Number       Type             X           Y           Z
 ---------------------------------------------------------------------
      1         12           0        5.745649    0.463586    0.391074
      2          6           0        3.523430   -2.353672    0.069224
      3          6           0        3.165577    2.515322   -0.146892
      4          6           0        7.987013    2.890660   -0.171374
      5          6           0        8.377871   -1.853770    0.465395
      6          7           0        3.644190    0.103010   -0.039813
      7          6           0        2.902372   -1.086132    0.062847
      8          6           0        1.352474   -0.800340    0.036435
      9          6           0        1.299968    0.751632   -0.098432
     10          6           0        2.793505    1.168780   -0.037355
     11          6           0        0.605067    1.318045   -1.310574
     12          6           0        0.578179   -1.418486    1.320021
     13          6           0       -0.626988   -2.307957    0.990530
     14          6           0       -1.980140   -1.811396    1.622799
     15          8           0       -2.495123   -2.268315    2.679907
     16          8           0       -2.508764   -0.879403    0.823583
     17          7           0        5.588175    2.473324    0.041718
     18          6           0        4.454588    3.152618   -0.160089
     19          6           0        4.714686    4.568762   -0.424631
     20          6           0        6.147308    4.639597   -0.522196
     21          6           0        6.653686    3.294966   -0.227858
     22          6           0        3.653138    5.570851   -0.583260
     23          6           0        6.923968    5.917397   -0.970353
     24          8           0        8.142739    5.962641   -0.980022
     25          6           0        6.236266    7.176443   -1.392541
     26          7           0        7.808584    0.489534    0.190882
     27          6           0        8.531825    1.672568    0.083467
     28          6           0       10.070356    1.395458    0.131569
     29          6           0       10.140993   -0.076572    0.685165
     30          6           0        8.687994   -0.511755    0.496024
     31          6           0       10.909815    1.712763   -1.148680
     32          6           0       10.573289   -0.176501    2.173725
     33          6           0       11.494076   -1.296903    2.586724
     34          7           0        5.954333   -1.664401    0.239435
     35          6           0        7.079351   -2.437730    0.286972
     36          6           0        6.658879   -3.906040    0.332745
     37          6           0        5.285297   -3.912216    0.301666
     38          6           0        4.903348   -2.532729    0.173616
     39          6           0        7.649919   -5.034842    0.503299
     40          6           0        4.074413   -4.713461    0.285416
     41          8           0        4.059915   -5.960631    0.347541
     42          6           0        2.809216   -3.697133    0.027966
     43          6           0        2.113259   -3.874798   -1.305310
     44          8           0        2.757626   -3.838485   -2.372234
     45          8           0        0.776229   -4.249160   -1.165254
     46          6           0        0.231007   -4.822114   -2.390413
     47          6           0       -3.825943   -0.465961    1.168639
     48          6           0       -4.448816    0.095115   -0.080617
     49          6           0       -5.719661    0.430375   -0.336063
     50          6           0       -6.865551    0.155933    0.689218
     51          6           0       -6.162376    0.894075   -1.704357
     52          6           0       -6.850085   -0.132878   -2.647961
     53          6           0       -8.159660    0.425335   -3.443334
     54          6           0       -9.459415   -0.343946   -3.010410
     55          6           0      -10.182657   -0.874586   -4.262578
     56          6           0      -10.378749    0.511712   -2.094435
     57          6           0      -11.308884   -0.347684   -1.171248
     58          6           0      -12.860649   -0.197320   -1.334617
     59          6           0      -13.555394   -0.129296    0.016157
     60          6           0      -14.953626   -0.787564   -0.006812
     61          6           0      -13.477924    1.318065    0.520102
     62          6           0      -13.606712    1.463304    2.013229
     63          6           0      -12.352508    2.232045    2.508953
     64          6           0      -11.639131    1.472407    3.640526
     65          6           0      -11.136836    2.491689    4.618668
     66          6           0      -10.461498    0.632116    3.032419
     67          1           0        2.358635    3.248171   -0.208639
     68          1           0        8.645382    3.751777   -0.301042
     69          1           0        9.239185   -2.508887    0.614888
     70          1           0        1.032822   -1.332435   -0.859340
     71          1           0        0.623865    1.071857    0.695504
     72          1           0        0.247970    0.551467   -1.998412
     73          1           0        1.464656    1.757742   -1.815276
     74          1           0       -0.246324    1.952691   -1.062848
     75          1           0        0.292493   -0.526939    1.877564
     76          1           0        1.301748   -1.922302    1.960342
     77          1           0       -0.355166   -3.320979    1.287177
     78          1           0       -0.783219   -2.312221   -0.088966
     79          1           0        3.603797    6.177859   -1.486715
     80          1           0        3.925836    6.363095    0.113009
     81          1           0        2.668111    5.272500   -0.223691
     82          1           0        5.666170    7.492596   -0.518140
     83          1           0        5.514877    6.892889   -2.159406
     84          1           0        7.028406    7.846169   -1.724977
     85          1           0       10.426635    2.070381    0.909838
     86          1           0       10.727606   -0.740804    0.050952
     87          1           0       10.204428    2.214718   -1.810539
     88          1           0       11.395428    0.844394   -1.592977
     89          1           0       11.639573    2.504615   -0.975310
     90          1           0        9.579334   -0.301192    2.602954
     91          1           0       10.985314    0.741404    2.593489
     92          1           0       12.219069   -0.843681    3.262900
     93          1           0       12.056394   -1.718945    1.753165
     94          1           0       10.897352   -1.953370    3.220508
     95          1           0        8.642856   -4.586819    0.536801
     96          1           0        7.626889   -5.643891   -0.400101
     97          1           0        7.375298   -5.634410    1.370936
     98          1           0        2.120704   -3.790163    0.867850
     99          1           0        0.014481   -5.888721   -2.349906
    100          1           0        0.843938   -4.648444   -3.274980
    101          1           0       -0.709763   -4.303281   -2.572639
    102          1           0       -3.883238    0.356763    1.881946
    103          1           0       -4.487286   -1.293622    1.424900
    104          1           0       -3.741942    0.326738   -0.876447
    105          1           0       -7.804314   -0.187903    0.252815
    106          1           0       -7.130686    1.152315    1.041061
    107          1           0       -6.434561   -0.433665    1.498012
    108          1           0       -5.272994    1.284581   -2.199805
    109          1           0       -6.839541    1.744772   -1.629308
    110          1           0       -7.064913   -0.943276   -1.950915
    111          1           0       -6.179418   -0.468845   -3.439135
    112          1           0       -7.998482    0.347404   -4.517880
    113          1           0       -8.336972    1.500503   -3.435700
    114          1           0       -9.145067   -1.236993   -2.469322
    115          1           0      -11.037956   -0.243785   -4.505919
    116          1           0      -10.835244   -1.703867   -3.990705
    117          1           0       -9.550428   -1.073730   -5.127277
    118          1           0      -10.932307    1.214142   -2.717780
    119          1           0       -9.796985    1.078673   -1.367563
    120          1           0      -11.015234   -0.091861   -0.153623
    121          1           0      -11.120400   -1.399115   -1.384469
    122          1           0      -13.060180   -1.093719   -1.921117
    123          1           0      -13.017604    0.710179   -1.918420
    124          1           0      -12.982591   -0.709335    0.739607
    125          1           0      -15.777198   -0.109031    0.214875
    126          1           0      -14.955009   -1.625224    0.689901
    127          1           0      -15.269051   -1.193974   -0.968659
    128          1           0      -14.388025    1.793566    0.155520
    129          1           0      -12.599025    1.776341    0.066264
    130          1           0      -13.583141    0.513813    2.548089
    131          1           0      -14.449341    2.078313    2.328503
    132          1           0      -12.786916    3.192374    2.786288
    133          1           0      -11.618645    2.473789    1.739583
    134          1           0      -12.409189    0.870204    4.125100
    135          1           0      -10.381291    2.139010    5.320600
    136          1           0      -12.012274    2.821276    5.180371
    137          1           0      -10.734633    3.342030    4.069528
    138          1           0      -10.843571   -0.339827    3.343632
    139          1           0       -9.446302    0.844876    3.368852
    140          1           0      -10.542143    0.517295    1.951261
 ---------------------------------------------------------------------

 SCF Done:  E(RB-LYP) =  -3007.35771237     A.U. after   21 cycles

 Excitation energies and oscillator strengths:

 Excited State   1:      Singlet-A      1.8087 eV  685.47 nm  f=0.3364  <S**2>=0.000
     245 -> 249       -0.17291
     246 -> 247        0.69537
     246 <- 247       -0.15699
 This state for optimization and/or second-order correction.
 Total Energy, E(TD-HF/TD-DFT) =  -3007.29124261
 Copying the excited state density for this state as the 1-particle RhoCI density.

 Excited State   2:      Singlet-A      1.9817 eV  625.63 nm  f=0.0008  <S**2>=0.000
     244 -> 247        0.70334

 Excited State   3:      Singlet-A      2.0622 eV  601.24 nm  f=0.0688  <S**2>=0.000
     245 -> 247        0.64185
     246 -> 249        0.24476

 Excited State   4:      Singlet-A      2.1743 eV  570.23 nm  f=0.0008  <S**2>=0.000
     243 -> 247        0.70287

 Excited State   5:      Singlet-A      2.4977 eV  496.39 nm  f=0.0000  <S**2>=0.000
     241 -> 247       -0.14583
     242 -> 247        0.69190

 The electronic state is 1-A.
 Alpha  occ. eigenvalues --  -46.26948 -18.84179 -18.83573 -18.77506 -18.76837
 Alpha  occ. eigenvalues --  -18.76523 -18.75569 -14.03674 -14.02938 -14.01173
 Alpha  occ. eigenvalues --  -14.01076 -10.05041 -10.04795 -10.00823  -9.99970
 Alpha  occ. eigenvalues --   -9.98701  -9.97672  -9.96928  -9.96728  -9.96128
 Alpha  occ. eigenvalues --   -9.95931  -9.95921  -9.95683  -9.95530  -9.95252
 Alpha  occ. eigenvalues --   -9.94675  -9.94552  -9.94132  -9.93957  -9.93894
 Alpha  occ. eigenvalues --   -9.93876  -9.93711  -9.93647  -9.93493  -9.93478
 Alpha  occ. eigenvalues --   -9.93392  -9.93066  -9.93048  -9.92912  -9.92746
 Alpha  occ. eigenvalues --   -9.92519  -9.92451  -9.92296  -9.92284  -9.92279
 Alpha  occ. eigenvalues --   -9.92209  -9.92012  -9.91928  -9.91905  -9.91877
 Alpha  occ. eigenvalues --   -9.91835  -9.91784  -9.91750  -9.91656  -9.91560
 Alpha  occ. eigenvalues --   -9.91442  -9.91435  -9.91251  -9.91112  -9.90953
 Alpha  occ. eigenvalues --   -9.90879  -9.90816  -9.90757  -9.90744  -9.90467
 Alpha  occ. eigenvalues --   -9.90358  -2.91693  -1.72099  -1.71553  -1.71435
 Alpha  occ. eigenvalues --   -1.00211  -0.97704  -0.91902  -0.90511  -0.89798
 Alpha  occ. eigenvalues --   -0.89006  -0.86333  -0.85751  -0.85111  -0.84448
 Alpha  occ. eigenvalues --   -0.75384  -0.73804  -0.73643  -0.72597  -0.72460
 Alpha  occ. eigenvalues --   -0.72222  -0.71567  -0.71228  -0.70857  -0.70769
 Alpha  occ. eigenvalues --   -0.69793  -0.69432  -0.68179  -0.67526  -0.67312
 Alpha  occ. eigenvalues --   -0.66835  -0.65982  -0.65623  -0.65208  -0.64504
 Alpha  occ. eigenvalues --   -0.64139  -0.62835  -0.62195  -0.62108  -0.60982
 Alpha  occ. eigenvalues --   -0.60669  -0.60568  -0.59917  -0.59722  -0.59027
 Alpha  occ. eigenvalues --   -0.58482  -0.57450  -0.56242  -0.55527  -0.54368
 Alpha  occ. eigenvalues --   -0.53839  -0.53736  -0.52662  -0.52467  -0.51401
 Alpha  occ. eigenvalues --   -0.51320  -0.50984  -0.50905  -0.50891  -0.50406
 Alpha  occ. eigenvalues --   -0.50044  -0.49698  -0.48843  -0.48838  -0.46829
 Alpha  occ. eigenvalues --   -0.46391  -0.46159  -0.45310  -0.45114  -0.44907
 Alpha  occ. eigenvalues --   -0.44497  -0.44062  -0.43088  -0.42874  -0.42012
 Alpha  occ. eigenvalues --   -0.41933  -0.41813  -0.41580  -0.41553  -0.41477
 Alpha  occ. eigenvalues --   -0.41125  -0.40877  -0.40591  -0.40218  -0.40089
 Alpha  occ. eigenvalues --   -0.39894  -0.39850  -0.39792  -0.39320  -0.39272
 Alpha  occ. eigenvalues --   -0.39080  -0.38935  -0.38686  -0.38648  -0.38446
 Alpha  occ. eigenvalues --   -0.38255  -0.38154  -0.37942  -0.37745  -0.37508
 Alpha  occ. eigenvalues --   -0.37071  -0.36985  -0.36851  -0.36838  -0.36561
 Alpha  occ. eigenvalues --   -0.36404  -0.36249  -0.36182  -0.35912  -0.35849
 Alpha  occ. eigenvalues --   -0.35649  -0.35333  -0.34978  -0.34841  -0.34685
 Alpha  occ. eigenvalues --   -0.34540  -0.34427  -0.34377  -0.34258  -0.34115
 Alpha  occ. eigenvalues --   -0.34035  -0.33928  -0.33564  -0.33475  -0.33156
 Alpha  occ. eigenvalues --   -0.32914  -0.32736  -0.32668  -0.32516  -0.32359
 Alpha  occ. eigenvalues --   -0.32333  -0.32150  -0.32019  -0.31765  -0.31390
 Alpha  occ. eigenvalues --   -0.31322  -0.31142  -0.30933  -0.30875  -0.30618
 Alpha  occ. eigenvalues --   -0.30495  -0.30445  -0.30280  -0.30094  -0.29935
 Alpha  occ. eigenvalues --   -0.29789  -0.29712  -0.29541  -0.29531  -0.29088
 Alpha  occ. eigenvalues --   -0.28560  -0.28449  -0.28279  -0.28181  -0.27718
 Alpha  occ. eigenvalues --   -0.27440  -0.27390  -0.26999  -0.26604  -0.26536
 Alpha  occ. eigenvalues --   -0.26439  -0.26354  -0.26075  -0.25747  -0.25686
 Alpha  occ. eigenvalues --   -0.25477  -0.25034  -0.24338  -0.23716  -0.23678
 Alpha  occ. eigenvalues --   -0.23610  -0.22760  -0.22138  -0.21308  -0.21045
 Alpha  occ. eigenvalues --   -0.20633  -0.20622  -0.19295  -0.18669  -0.17405
 Alpha  occ. eigenvalues --   -0.15642
 Alpha virt. eigenvalues --   -0.11444  -0.06660  -0.06596  -0.04903  -0.04528
 Alpha virt. eigenvalues --   -0.03643  -0.03040  -0.01799  -0.01319   0.00358
 Alpha virt. eigenvalues --    0.01026   0.01097   0.02181   0.02586   0.02679

 Mulliken charges:
               1
     1  Mg   0.708216
     2  C   -0.056388
     3  C   -0.063033
     4  C   -0.063922
     5  C   -0.081260
     6  N   -0.230892
     7  C   -0.103120
     8  C    0.012691
     9  C   -0.014694
    10  C    0.083981
    11  C    0.137590
    12  C    0.096983
    13  C    0.159795
    14  C    0.074122
    15  O   -0.223936
    16  O   -0.229956
    17  N   -0.280887
    18  C    0.086212
    19  C   -0.120807
    20  C    0.032021
    21  C    0.076199
    22  C    0.182443
    23  C   -0.100093
    24  O   -0.163285
    25  C    0.155671
    26  N   -0.256677
    27  C    0.067501
    28  C    0.034250
    29  C    0.007826
    30  C    0.022131
    31  C    0.143688
    32  C    0.071755
    33  C    0.102789
    34  N   -0.219424
    35  C    0.125162
    36  C   -0.215825
    37  C    0.130531
    38  C    0.093393
    39  C    0.189132
    40  C   -0.033058
    41  O   -0.148398
    42  C    0.098891
    43  C    0.143271
    44  O   -0.192056
    45  O   -0.273608
    46  C    0.197577
    47  C    0.334990
    48  C   -0.158908
    49  C   -0.161665
    50  C    0.128345
    51  C    0.153038
    52  C    0.069821
    53  C    0.094033
    54  C   -0.075978
    55  C    0.111403
    56  C    0.102067
    57  C    0.019360
    58  C    0.127486
    59  C   -0.092687
    60  C    0.119493
    61  C    0.116941
    62  C    0.098055
    63  C    0.039109
    64  C   -0.096488
    65  C    0.113463
    66  C    0.125189
    67  H   -0.072962
    68  H   -0.052346
    69  H   -0.062362
    70  H   -0.009164
    71  H   -0.026885
    72  H   -0.020107
    73  H   -0.008476
    74  H   -0.002210
    75  H   -0.020744
    76  H   -0.009388
    77  H    0.002473
    78  H   -0.003241
    79  H   -0.002520
    80  H   -0.019872
    81  H   -0.009894
    82  H    0.003718
    83  H    0.006749
    84  H    0.007318
    85  H   -0.031676
    86  H   -0.029651
    87  H   -0.008275
    88  H    0.000676
    89  H   -0.011612
    90  H   -0.024313
    91  H   -0.017580
    92  H   -0.019647
    93  H   -0.001858
    94  H   -0.001546
    95  H   -0.023930
    96  H    0.007793
    97  H    0.019053
    98  H   -0.010965
    99  H    0.024835
   100  H    0.027086
   101  H    0.005351
   102  H    0.014389
   103  H    0.021282
   104  H   -0.039856
   105  H    0.006713
   106  H   -0.005950
   107  H   -0.008553
   108  H   -0.042797
   109  H   -0.036710
   110  H   -0.012453
   111  H   -0.018199
   112  H   -0.049993
   113  H   -0.036125
   114  H   -0.028874
   115  H   -0.036960
   116  H   -0.035556
   117  H    0.003605
   118  H   -0.025625
   119  H   -0.039262
   120  H   -0.022192
   121  H   -0.023845
   122  H   -0.038636
   123  H   -0.033716
   124  H   -0.041710
   125  H   -0.025639
   126  H   -0.015972
   127  H   -0.024101
   128  H   -0.043200
   129  H   -0.022790
   130  H   -0.022483
   131  H   -0.029122
   132  H   -0.043501
   133  H   -0.032831
   134  H   -0.029836
   135  H   -0.022715
   136  H   -0.023439
   137  H   -0.018777
   138  H   -0.021485
   139  H    0.003843
   140  H   -0.030327
 Sum of Mulliken charges =  -0.00000

 Dipole moment (field-independent basis, Debye):
    X=             -2.5852    Y=              3.7620    Z=              0.3242  Tot=              4.5761
 Quadrupole moment (field-independent basis, Debye-Ang):
   XX=           -376.3589   YY=           -429.9723   ZZ=           -411.9814
   XY=             -8.4362   XZ=             24.1176   YZ=              7.6057

 Normal termination of Gaussian 16 at Wed May  4 18:49:49 2022.
