 Gaussian 16, Revision A.03,
 Gaussian 16:  ES64L-G16RevA.03 25-Dec-2016

 -----------------------------------
 #p cam-b3lyp/Def2SVP td=(nstates=5)
 -----------------------------------

 -------------------------------------------------------
 step_251_chromophore_25 TDDFT with cam-b3lyp functional
 -------------------------------------------------------
 Symbolic Z-matrix:
 Charge =  0 Multiplicity = 1

                         Standard orientation:
 ---------------------------------------------------------------------
 Center     Atomic      Atomic             Coordinates (Angstroms)
 Number     Number       Type             X           Y           Z
 ---------------------------------------------------------------------
      1         12           0        5.745649    0.463586    0.391074
      2          6           0        3.523430   -2.353672    0.069224
      3          6           0        3.165577    2.515322   -0.146892
      4          6           0        7.987013    2.890660   -0.171374
      5          6           0        8.377871   -1.853770    0.465395
      6          7           0        3.644190    0.103010   -0.039813
      7          6           0        2.902372   -1.086132    0.062847
      8          6           0        1.352474   -0.800340    0.036435
      9          6           0        1.299968    0.751632   -0.098432
     10          6           0        2.793505    1.168780   -0.037355
     11          6           0        0.605067    1.318045   -1.310574
     12          6           0        0.578179   -1.418486    1.320021
     13          6           0       -0.626988   -2.307957    0.990530
     14          6           0       -1.980140   -1.811396    1.622799
     15          8           0       -2.495123   -2.268315    2.679907
     16          8           0       -2.508764   -0.879403    0.823583
     17          7           0        5.588175    2.473324    0.041718
     18          6           0        4.454588    3.152618   -0.160089
     19          6           0        4.714686    4.568762   -0.424631
     20          6           0        6.147308    4.639597   -0.522196
     21          6           0        6.653686    3.294966   -0.227858
     22          6           0        3.653138    5.570851   -0.583260
     23          6           0        6.923968    5.917397   -0.970353
     24          8           0        8.142739    5.962641   -0.980022
     25          6           0        6.236266    7.176443   -1.392541
     26          7           0        7.808584    0.489534    0.190882
     27          6           0        8.531825    1.672568    0.083467
     28          6           0       10.070356    1.395458    0.131569
     29          6           0       10.140993   -0.076572    0.685165
     30          6           0        8.687994   -0.511755    0.496024
     31          6           0       10.909815    1.712763   -1.148680
     32          6           0       10.573289   -0.176501    2.173725
     33          6           0       11.494076   -1.296903    2.586724
     34          7           0        5.954333   -1.664401    0.239435
     35          6           0        7.079351   -2.437730    0.286972
     36          6           0        6.658879   -3.906040    0.332745
     37          6           0        5.285297   -3.912216    0.301666
     38          6           0        4.903348   -2.532729    0.173616
     39          6           0        7.649919   -5.034842    0.503299
     40          6           0        4.074413   -4.713461    0.285416
     41          8           0        4.059915   -5.960631    0.347541
     42          6           0        2.809216   -3.697133    0.027966
     43          6           0        2.113259   -3.874798   -1.305310
     44          8           0        2.757626   -3.838485   -2.372234
     45          8           0        0.776229   -4.249160   -1.165254
     46          6           0        0.231007   -4.822114   -2.390413
     47          6           0       -3.825943   -0.465961    1.168639
     48          6           0       -4.448816    0.095115   -0.080617
     49          6           0       -5.719661    0.430375   -0.336063
     50          6           0       -6.865551    0.155933    0.689218
     51          6           0       -6.162376    0.894075   -1.704357
     52          6           0       -6.850085   -0.132878   -2.647961
     53          6           0       -8.159660    0.425335   -3.443334
     54          6           0       -9.459415   -0.343946   -3.010410
     55          6           0      -10.182657   -0.874586   -4.262578
     56          6           0      -10.378749    0.511712   -2.094435
     57          6           0      -11.308884   -0.347684   -1.171248
     58          6           0      -12.860649   -0.197320   -1.334617
     59          6           0      -13.555394   -0.129296    0.016157
     60          6           0      -14.953626   -0.787564   -0.006812
     61          6           0      -13.477924    1.318065    0.520102
     62          6           0      -13.606712    1.463304    2.013229
     63          6           0      -12.352508    2.232045    2.508953
     64          6           0      -11.639131    1.472407    3.640526
     65          6           0      -11.136836    2.491689    4.618668
     66          6           0      -10.461498    0.632116    3.032419
     67          1           0        2.358635    3.248171   -0.208639
     68          1           0        8.645382    3.751777   -0.301042
     69          1           0        9.239185   -2.508887    0.614888
     70          1           0        1.032822   -1.332435   -0.859340
     71          1           0        0.623865    1.071857    0.695504
     72          1           0        0.247970    0.551467   -1.998412
     73          1           0        1.464656    1.757742   -1.815276
     74          1           0       -0.246324    1.952691   -1.062848
     75          1           0        0.292493   -0.526939    1.877564
     76          1           0        1.301748   -1.922302    1.960342
     77          1           0       -0.355166   -3.320979    1.287177
     78          1           0       -0.783219   -2.312221   -0.088966
     79          1           0        3.603797    6.177859   -1.486715
     80          1           0        3.925836    6.363095    0.113009
     81          1           0        2.668111    5.272500   -0.223691
     82          1           0        5.666170    7.492596   -0.518140
     83          1           0        5.514877    6.892889   -2.159406
     84          1           0        7.028406    7.846169   -1.724977
     85          1           0       10.426635    2.070381    0.909838
     86          1           0       10.727606   -0.740804    0.050952
     87          1           0       10.204428    2.214718   -1.810539
     88          1           0       11.395428    0.844394   -1.592977
     89          1           0       11.639573    2.504615   -0.975310
     90          1           0        9.579334   -0.301192    2.602954
     91          1           0       10.985314    0.741404    2.593489
     92          1           0       12.219069   -0.843681    3.262900
     93          1           0       12.056394   -1.718945    1.753165
     94          1           0       10.897352   -1.953370    3.220508
     95          1           0        8.642856   -4.586819    0.536801
     96          1           0        7.626889   -5.643891   -0.400101
     97          1           0        7.375298   -5.634410    1.370936
     98          1           0        2.120704   -3.790163    0.867850
     99          1           0        0.014481   -5.888721   -2.349906
    100          1           0        0.843938   -4.648444   -3.274980
    101          1           0       -0.709763   -4.303281   -2.572639
    102          1           0       -3.883238    0.356763    1.881946
    103          1           0       -4.487286   -1.293622    1.424900
    104          1           0       -3.741942    0.326738   -0.876447
    105          1           0       -7.804314   -0.187903    0.252815
    106          1           0       -7.130686    1.152315    1.041061
    107          1           0       -6.434561   -0.433665    1.498012
    108          1           0       -5.272994    1.284581   -2.199805
    109          1           0       -6.839541    1.744772   -1.629308
    110          1           0       -7.064913   -0.943276   -1.950915
    111          1           0       -6.179418   -0.468845   -3.439135
    112          1           0       -7.998482    0.347404   -4.517880
    113          1           0       -8.336972    1.500503   -3.435700
    114          1           0       -9.145067   -1.236993   -2.469322
    115          1           0      -11.037956   -0.243785   -4.505919
    116          1           0      -10.835244   -1.703867   -3.990705
    117          1           0       -9.550428   -1.073730   -5.127277
    118          1           0      -10.932307    1.214142   -2.717780
    119          1           0       -9.796985    1.078673   -1.367563
    120          1           0      -11.015234   -0.091861   -0.153623
    121          1           0      -11.120400   -1.399115   -1.384469
    122          1           0      -13.060180   -1.093719   -1.921117
    123          1           0      -13.017604    0.710179   -1.918420
    124          1           0      -12.982591   -0.709335    0.739607
    125          1           0      -15.777198   -0.109031    0.214875
    126          1           0      -14.955009   -1.625224    0.689901
    127          1           0      -15.269051   -1.193974   -0.968659
    128          1           0      -14.388025    1.793566    0.155520
    129          1           0      -12.599025    1.776341    0.066264
    130          1           0      -13.583141    0.513813    2.548089
    131          1           0      -14.449341    2.078313    2.328503
    132          1           0      -12.786916    3.192374    2.786288
    133          1           0      -11.618645    2.473789    1.739583
    134          1           0      -12.409189    0.870204    4.125100
    135          1           0      -10.381291    2.139010    5.320600
    136          1           0      -12.012274    2.821276    5.180371
    137          1           0      -10.734633    3.342030    4.069528
    138          1           0      -10.843571   -0.339827    3.343632
    139          1           0       -9.446302    0.844876    3.368852
    140          1           0      -10.542143    0.517295    1.951261
 ---------------------------------------------------------------------

 SCF Done:  E(RCAM-B3LYP) =  -3007.14554673     A.U. after   17 cycles

 Excitation energies and oscillator strengths:

 Excited State   1:      Singlet-A      1.6990 eV  729.75 nm  f=0.4073  <S**2>=0.000
     245 -> 248        0.17319
     246 -> 247        0.68830
     245 <- 248        0.10769
 This state for optimization and/or second-order correction.
 Total Energy, E(TD-HF/TD-DFT) =  -3007.08310981
 Copying the excited state density for this state as the 1-particle RhoCI density.

 Excited State   2:      Singlet-A      2.2861 eV  542.33 nm  f=0.0970  <S**2>=0.000
     245 -> 247        0.62984
     246 -> 248       -0.31307

 Excited State   3:      Singlet-A      3.4975 eV  354.50 nm  f=0.0165  <S**2>=0.000
     239 -> 247        0.32856
     239 -> 249        0.27499
     240 -> 247        0.28289
     240 -> 249        0.24539
     242 -> 247        0.29648
     244 -> 247       -0.16817
     246 -> 248        0.10947

 Excited State   4:      Singlet-A      3.5389 eV  350.35 nm  f=0.4053  <S**2>=0.000
     244 -> 247        0.43916
     245 -> 247        0.22615
     246 -> 248        0.49059

 Excited State   5:      Singlet-A      3.5720 eV  347.10 nm  f=0.2131  <S**2>=0.000
     239 -> 247        0.15442
     239 -> 249        0.13419
     240 -> 247        0.20031
     240 -> 249        0.11015
     242 -> 247       -0.22179
     244 -> 247        0.46038
     245 -> 247       -0.15534
     246 -> 248       -0.31527

 The electronic state is 1-A.
 Alpha  occ. eigenvalues --  -46.88437 -19.27164 -19.26807 -19.20939 -19.19959
 Alpha  occ. eigenvalues --  -19.19834 -19.18593 -14.42645 -14.41701 -14.39735
 Alpha  occ. eigenvalues --  -14.39423 -10.40921 -10.40190 -10.36544 -10.34973
 Alpha  occ. eigenvalues --  -10.32721 -10.31826 -10.31671 -10.31035 -10.30693
 Alpha  occ. eigenvalues --  -10.30380 -10.30174 -10.30029 -10.29840 -10.29564
 Alpha  occ. eigenvalues --  -10.29187 -10.28901 -10.28793 -10.28297 -10.28122
 Alpha  occ. eigenvalues --  -10.27971 -10.27836 -10.27615 -10.27502 -10.27394
 Alpha  occ. eigenvalues --  -10.27277 -10.27224 -10.27128 -10.27010 -10.26553
 Alpha  occ. eigenvalues --  -10.26468 -10.26227 -10.26189 -10.26158 -10.25990
 Alpha  occ. eigenvalues --  -10.25939 -10.25784 -10.25763 -10.25682 -10.25574
 Alpha  occ. eigenvalues --  -10.25565 -10.25543 -10.25533 -10.25437 -10.25363
 Alpha  occ. eigenvalues --  -10.25304 -10.25269 -10.24999 -10.24728 -10.24648
 Alpha  occ. eigenvalues --  -10.24514 -10.24457 -10.24379 -10.24357 -10.24037
 Alpha  occ. eigenvalues --  -10.24021  -3.17089  -1.91970  -1.91528  -1.91416
 Alpha  occ. eigenvalues --   -1.18704  -1.16443  -1.10156  -1.09075  -1.08046
 Alpha  occ. eigenvalues --   -1.06944  -1.03977  -1.03350  -1.02711  -1.01949
 Alpha  occ. eigenvalues --   -0.92704  -0.90695  -0.90520  -0.89382  -0.89131
 Alpha  occ. eigenvalues --   -0.88957  -0.88116  -0.87843  -0.87526  -0.87286
 Alpha  occ. eigenvalues --   -0.86371  -0.85812  -0.84430  -0.83714  -0.83464
 Alpha  occ. eigenvalues --   -0.82933  -0.82112  -0.81619  -0.81091  -0.80364
 Alpha  occ. eigenvalues --   -0.79936  -0.78498  -0.77852  -0.77658  -0.76498
 Alpha  occ. eigenvalues --   -0.76082  -0.75949  -0.75259  -0.74924  -0.74272
 Alpha  occ. eigenvalues --   -0.73556  -0.72522  -0.71079  -0.70371  -0.69039
 Alpha  occ. eigenvalues --   -0.68404  -0.68325  -0.67008  -0.66839  -0.65502
 Alpha  occ. eigenvalues --   -0.65382  -0.65153  -0.65084  -0.64962  -0.64434
 Alpha  occ. eigenvalues --   -0.64100  -0.63735  -0.62775  -0.62664  -0.60353
 Alpha  occ. eigenvalues --   -0.59977  -0.59827  -0.59036  -0.58610  -0.58399
 Alpha  occ. eigenvalues --   -0.57933  -0.57375  -0.56362  -0.56210  -0.55291
 Alpha  occ. eigenvalues --   -0.55171  -0.55075  -0.54912  -0.54633  -0.54317
 Alpha  occ. eigenvalues --   -0.53815  -0.53642  -0.53315  -0.53218  -0.52676
 Alpha  occ. eigenvalues --   -0.52599  -0.52517  -0.52372  -0.51807  -0.51723
 Alpha  occ. eigenvalues --   -0.51638  -0.51469  -0.51273  -0.51136  -0.50893
 Alpha  occ. eigenvalues --   -0.50803  -0.50570  -0.50252  -0.50037  -0.49799
 Alpha  occ. eigenvalues --   -0.49537  -0.49375  -0.49202  -0.49018  -0.48974
 Alpha  occ. eigenvalues --   -0.48716  -0.48572  -0.48205  -0.48140  -0.48090
 Alpha  occ. eigenvalues --   -0.47907  -0.47496  -0.47027  -0.46825  -0.46580
 Alpha  occ. eigenvalues --   -0.46529  -0.46420  -0.46179  -0.45998  -0.45966
 Alpha  occ. eigenvalues --   -0.45859  -0.45765  -0.45413  -0.45255  -0.44875
 Alpha  occ. eigenvalues --   -0.44542  -0.44497  -0.44381  -0.44241  -0.44158
 Alpha  occ. eigenvalues --   -0.43952  -0.43909  -0.43741  -0.43370  -0.43220
 Alpha  occ. eigenvalues --   -0.43026  -0.42865  -0.42515  -0.42341  -0.42192
 Alpha  occ. eigenvalues --   -0.42063  -0.41762  -0.41711  -0.41513  -0.41109
 Alpha  occ. eigenvalues --   -0.41063  -0.40804  -0.40683  -0.40571  -0.40263
 Alpha  occ. eigenvalues --   -0.39679  -0.39544  -0.39240  -0.39198  -0.38632
 Alpha  occ. eigenvalues --   -0.38434  -0.38298  -0.37894  -0.37777  -0.37542
 Alpha  occ. eigenvalues --   -0.37506  -0.37240  -0.37032  -0.36949  -0.36460
 Alpha  occ. eigenvalues --   -0.36294  -0.35645  -0.35269  -0.34755  -0.34591
 Alpha  occ. eigenvalues --   -0.34178  -0.33538  -0.32939  -0.31600  -0.31449
 Alpha  occ. eigenvalues --   -0.30742  -0.30431  -0.30300  -0.29835  -0.24228
 Alpha  occ. eigenvalues --   -0.20840
 Alpha virt. eigenvalues --   -0.08479  -0.01399  -0.00087   0.01757   0.02276
 Alpha virt. eigenvalues --    0.02754   0.04066   0.05409   0.06232   0.07002
 Alpha virt. eigenvalues --    0.07389   0.08282   0.08609   0.08937   0.09054

 Mulliken charges:
               1
     1  Mg   0.839649
     2  C   -0.087469
     3  C   -0.072604
     4  C   -0.080344
     5  C   -0.091412
     6  N   -0.299368
     7  C   -0.055524
     8  C   -0.031956
     9  C   -0.058240
    10  C    0.087244
    11  C    0.073402
    12  C    0.043327
    13  C    0.092437
    14  C    0.152757
    15  O   -0.266348
    16  O   -0.292901
    17  N   -0.369234
    18  C    0.094601
    19  C   -0.129842
    20  C   -0.034078
    21  C    0.097151
    22  C    0.117672
    23  C   -0.018314
    24  O   -0.206309
    25  C    0.074185
    26  N   -0.329487
    27  C    0.078842
    28  C   -0.014212
    29  C   -0.051147
    30  C    0.041000
    31  C    0.083591
    32  C    0.023010
    33  C    0.033807
    34  N   -0.304438
    35  C    0.131427
    36  C   -0.210329
    37  C    0.056227
    38  C    0.126815
    39  C    0.140637
    40  C    0.068880
    41  O   -0.186315
    42  C    0.027289
    43  C    0.231621
    44  O   -0.227938
    45  O   -0.337824
    46  C    0.158494
    47  C    0.300192
    48  C   -0.173973
    49  C   -0.188016
    50  C    0.075590
    51  C    0.097524
    52  C    0.015706
    53  C    0.038567
    54  C   -0.131966
    55  C    0.053501
    56  C    0.053265
    57  C   -0.024944
    58  C    0.071441
    59  C   -0.144718
    60  C    0.058579
    61  C    0.061698
    62  C    0.044173
    63  C   -0.013711
    64  C   -0.155231
    65  C    0.053220
    66  C    0.071228
    67  H   -0.037708
    68  H   -0.010766
    69  H   -0.028307
    70  H    0.020752
    71  H    0.007696
    72  H    0.005844
    73  H    0.020140
    74  H    0.021749
    75  H    0.011175
    76  H    0.021274
    77  H    0.034792
    78  H    0.028576
    79  H    0.024611
    80  H    0.006778
    81  H    0.018790
    82  H    0.028877
    83  H    0.031801
    84  H    0.041678
    85  H    0.004260
    86  H    0.004947
    87  H    0.017514
    88  H    0.023738
    89  H    0.013310
    90  H    0.005531
    91  H    0.011081
    92  H    0.005837
    93  H    0.020910
    94  H    0.022055
    95  H    0.000865
    96  H    0.035405
    97  H    0.044872
    98  H    0.031740
    99  H    0.046665
   100  H    0.055568
   101  H    0.026920
   102  H    0.041325
   103  H    0.049138
   104  H   -0.006123
   105  H    0.025356
   106  H    0.017552
   107  H    0.013657
   108  H   -0.011578
   109  H   -0.007539
   110  H    0.013597
   111  H    0.010618
   112  H   -0.018244
   113  H   -0.007307
   114  H    0.001524
   115  H   -0.012431
   116  H   -0.010810
   117  H    0.027630
   118  H    0.001154
   119  H   -0.012619
   120  H   -0.002663
   121  H    0.003417
   122  H   -0.009126
   123  H   -0.005495
   124  H   -0.010996
   125  H   -0.001175
   126  H    0.008129
   127  H    0.001805
   128  H   -0.013065
   129  H    0.003734
   130  H    0.003058
   131  H    0.001153
   132  H   -0.012108
   133  H   -0.005153
   134  H    0.001273
   135  H    0.003010
   136  H    0.001311
   137  H    0.004534
   138  H    0.002737
   139  H    0.026952
   140  H   -0.015756
 Sum of Mulliken charges =  -0.00000

 Dipole moment (field-independent basis, Debye):
    X=             -2.9292    Y=              3.6587    Z=              0.1776  Tot=              4.6902
 Quadrupole moment (field-independent basis, Debye-Ang):
   XX=           -376.3232   YY=           -426.7297   ZZ=           -412.0235
   XY=            -10.1275   XZ=             25.5858   YZ=              7.6825

 Normal termination of Gaussian 16 at Wed May  4 17:29:11 2022.
