 Gaussian 16, Revision A.03,
 Gaussian 16:  ES64L-G16RevA.03 25-Dec-2016

 ---------------------------------
 #p PBE1PBE/Def2SVP td=(nstates=5)
 ---------------------------------

 -----------------------------------------------------
 step_251_chromophore_25 TDDFT with PBE1PBE functional
 -----------------------------------------------------
 Symbolic Z-matrix:
 Charge =  0 Multiplicity = 1

                         Standard orientation:
 ---------------------------------------------------------------------
 Center     Atomic      Atomic             Coordinates (Angstroms)
 Number     Number       Type             X           Y           Z
 ---------------------------------------------------------------------
      1         12           0        5.745649    0.463586    0.391074
      2          6           0        3.523430   -2.353672    0.069224
      3          6           0        3.165577    2.515322   -0.146892
      4          6           0        7.987013    2.890660   -0.171374
      5          6           0        8.377871   -1.853770    0.465395
      6          7           0        3.644190    0.103010   -0.039813
      7          6           0        2.902372   -1.086132    0.062847
      8          6           0        1.352474   -0.800340    0.036435
      9          6           0        1.299968    0.751632   -0.098432
     10          6           0        2.793505    1.168780   -0.037355
     11          6           0        0.605067    1.318045   -1.310574
     12          6           0        0.578179   -1.418486    1.320021
     13          6           0       -0.626988   -2.307957    0.990530
     14          6           0       -1.980140   -1.811396    1.622799
     15          8           0       -2.495123   -2.268315    2.679907
     16          8           0       -2.508764   -0.879403    0.823583
     17          7           0        5.588175    2.473324    0.041718
     18          6           0        4.454588    3.152618   -0.160089
     19          6           0        4.714686    4.568762   -0.424631
     20          6           0        6.147308    4.639597   -0.522196
     21          6           0        6.653686    3.294966   -0.227858
     22          6           0        3.653138    5.570851   -0.583260
     23          6           0        6.923968    5.917397   -0.970353
     24          8           0        8.142739    5.962641   -0.980022
     25          6           0        6.236266    7.176443   -1.392541
     26          7           0        7.808584    0.489534    0.190882
     27          6           0        8.531825    1.672568    0.083467
     28          6           0       10.070356    1.395458    0.131569
     29          6           0       10.140993   -0.076572    0.685165
     30          6           0        8.687994   -0.511755    0.496024
     31          6           0       10.909815    1.712763   -1.148680
     32          6           0       10.573289   -0.176501    2.173725
     33          6           0       11.494076   -1.296903    2.586724
     34          7           0        5.954333   -1.664401    0.239435
     35          6           0        7.079351   -2.437730    0.286972
     36          6           0        6.658879   -3.906040    0.332745
     37          6           0        5.285297   -3.912216    0.301666
     38          6           0        4.903348   -2.532729    0.173616
     39          6           0        7.649919   -5.034842    0.503299
     40          6           0        4.074413   -4.713461    0.285416
     41          8           0        4.059915   -5.960631    0.347541
     42          6           0        2.809216   -3.697133    0.027966
     43          6           0        2.113259   -3.874798   -1.305310
     44          8           0        2.757626   -3.838485   -2.372234
     45          8           0        0.776229   -4.249160   -1.165254
     46          6           0        0.231007   -4.822114   -2.390413
     47          6           0       -3.825943   -0.465961    1.168639
     48          6           0       -4.448816    0.095115   -0.080617
     49          6           0       -5.719661    0.430375   -0.336063
     50          6           0       -6.865551    0.155933    0.689218
     51          6           0       -6.162376    0.894075   -1.704357
     52          6           0       -6.850085   -0.132878   -2.647961
     53          6           0       -8.159660    0.425335   -3.443334
     54          6           0       -9.459415   -0.343946   -3.010410
     55          6           0      -10.182657   -0.874586   -4.262578
     56          6           0      -10.378749    0.511712   -2.094435
     57          6           0      -11.308884   -0.347684   -1.171248
     58          6           0      -12.860649   -0.197320   -1.334617
     59          6           0      -13.555394   -0.129296    0.016157
     60          6           0      -14.953626   -0.787564   -0.006812
     61          6           0      -13.477924    1.318065    0.520102
     62          6           0      -13.606712    1.463304    2.013229
     63          6           0      -12.352508    2.232045    2.508953
     64          6           0      -11.639131    1.472407    3.640526
     65          6           0      -11.136836    2.491689    4.618668
     66          6           0      -10.461498    0.632116    3.032419
     67          1           0        2.358635    3.248171   -0.208639
     68          1           0        8.645382    3.751777   -0.301042
     69          1           0        9.239185   -2.508887    0.614888
     70          1           0        1.032822   -1.332435   -0.859340
     71          1           0        0.623865    1.071857    0.695504
     72          1           0        0.247970    0.551467   -1.998412
     73          1           0        1.464656    1.757742   -1.815276
     74          1           0       -0.246324    1.952691   -1.062848
     75          1           0        0.292493   -0.526939    1.877564
     76          1           0        1.301748   -1.922302    1.960342
     77          1           0       -0.355166   -3.320979    1.287177
     78          1           0       -0.783219   -2.312221   -0.088966
     79          1           0        3.603797    6.177859   -1.486715
     80          1           0        3.925836    6.363095    0.113009
     81          1           0        2.668111    5.272500   -0.223691
     82          1           0        5.666170    7.492596   -0.518140
     83          1           0        5.514877    6.892889   -2.159406
     84          1           0        7.028406    7.846169   -1.724977
     85          1           0       10.426635    2.070381    0.909838
     86          1           0       10.727606   -0.740804    0.050952
     87          1           0       10.204428    2.214718   -1.810539
     88          1           0       11.395428    0.844394   -1.592977
     89          1           0       11.639573    2.504615   -0.975310
     90          1           0        9.579334   -0.301192    2.602954
     91          1           0       10.985314    0.741404    2.593489
     92          1           0       12.219069   -0.843681    3.262900
     93          1           0       12.056394   -1.718945    1.753165
     94          1           0       10.897352   -1.953370    3.220508
     95          1           0        8.642856   -4.586819    0.536801
     96          1           0        7.626889   -5.643891   -0.400101
     97          1           0        7.375298   -5.634410    1.370936
     98          1           0        2.120704   -3.790163    0.867850
     99          1           0        0.014481   -5.888721   -2.349906
    100          1           0        0.843938   -4.648444   -3.274980
    101          1           0       -0.709763   -4.303281   -2.572639
    102          1           0       -3.883238    0.356763    1.881946
    103          1           0       -4.487286   -1.293622    1.424900
    104          1           0       -3.741942    0.326738   -0.876447
    105          1           0       -7.804314   -0.187903    0.252815
    106          1           0       -7.130686    1.152315    1.041061
    107          1           0       -6.434561   -0.433665    1.498012
    108          1           0       -5.272994    1.284581   -2.199805
    109          1           0       -6.839541    1.744772   -1.629308
    110          1           0       -7.064913   -0.943276   -1.950915
    111          1           0       -6.179418   -0.468845   -3.439135
    112          1           0       -7.998482    0.347404   -4.517880
    113          1           0       -8.336972    1.500503   -3.435700
    114          1           0       -9.145067   -1.236993   -2.469322
    115          1           0      -11.037956   -0.243785   -4.505919
    116          1           0      -10.835244   -1.703867   -3.990705
    117          1           0       -9.550428   -1.073730   -5.127277
    118          1           0      -10.932307    1.214142   -2.717780
    119          1           0       -9.796985    1.078673   -1.367563
    120          1           0      -11.015234   -0.091861   -0.153623
    121          1           0      -11.120400   -1.399115   -1.384469
    122          1           0      -13.060180   -1.093719   -1.921117
    123          1           0      -13.017604    0.710179   -1.918420
    124          1           0      -12.982591   -0.709335    0.739607
    125          1           0      -15.777198   -0.109031    0.214875
    126          1           0      -14.955009   -1.625224    0.689901
    127          1           0      -15.269051   -1.193974   -0.968659
    128          1           0      -14.388025    1.793566    0.155520
    129          1           0      -12.599025    1.776341    0.066264
    130          1           0      -13.583141    0.513813    2.548089
    131          1           0      -14.449341    2.078313    2.328503
    132          1           0      -12.786916    3.192374    2.786288
    133          1           0      -11.618645    2.473789    1.739583
    134          1           0      -12.409189    0.870204    4.125100
    135          1           0      -10.381291    2.139010    5.320600
    136          1           0      -12.012274    2.821276    5.180371
    137          1           0      -10.734633    3.342030    4.069528
    138          1           0      -10.843571   -0.339827    3.343632
    139          1           0       -9.446302    0.844876    3.368852
    140          1           0      -10.542143    0.517295    1.951261
 ---------------------------------------------------------------------

 SCF Done:  E(RPBE1PBE) =  -3005.33479567     A.U. after   15 cycles

 Excitation energies and oscillator strengths:

 Excited State   1:      Singlet-A      1.8530 eV  669.08 nm  f=0.3976  <S**2>=0.000
     245 -> 248        0.16674
     246 -> 247        0.69620
     246 <- 247       -0.11392
 This state for optimization and/or second-order correction.
 Total Energy, E(TD-HF/TD-DFT) =  -3005.26669763
 Copying the excited state density for this state as the 1-particle RhoCI density.

 Excited State   2:      Singlet-A      2.2899 eV  541.45 nm  f=0.0965  <S**2>=0.000
     245 -> 247        0.64353
     246 -> 248       -0.28605

 Excited State   3:      Singlet-A      3.1362 eV  395.34 nm  f=0.0002  <S**2>=0.000
     240 -> 247        0.42065
     240 -> 249        0.19482
     241 -> 247        0.41497
     241 -> 249        0.10462
     242 -> 247        0.15753
     244 -> 247       -0.25227

 Excited State   4:      Singlet-A      3.1738 eV  390.64 nm  f=0.0001  <S**2>=0.000
     240 -> 247        0.13494
     241 -> 247        0.11028
     242 -> 247        0.24906
     244 -> 247        0.61253

 Excited State   5:      Singlet-A      3.2139 eV  385.77 nm  f=0.0009  <S**2>=0.000
     240 -> 247       -0.13062
     241 -> 247       -0.18691
     242 -> 247        0.61501
     244 -> 247       -0.20013

 The electronic state is 1-A.
 Alpha  occ. eigenvalues --  -46.91872 -19.27846 -19.27348 -19.21059 -19.20182
 Alpha  occ. eigenvalues --  -19.20077 -19.18925 -14.42150 -14.41291 -14.39327
 Alpha  occ. eigenvalues --  -14.39134 -10.37829 -10.37285 -10.33600 -10.32244
 Alpha  occ. eigenvalues --  -10.30128 -10.29372 -10.28982 -10.28879 -10.28310
 Alpha  occ. eigenvalues --  -10.28062 -10.28025 -10.27671 -10.27524 -10.27441
 Alpha  occ. eigenvalues --  -10.26781 -10.26596 -10.26445 -10.26140 -10.25854
 Alpha  occ. eigenvalues --  -10.25641 -10.25580 -10.25389 -10.25246 -10.25173
 Alpha  occ. eigenvalues --  -10.25092 -10.24910 -10.24703 -10.24671 -10.24201
 Alpha  occ. eigenvalues --  -10.23874 -10.23817 -10.23713 -10.23574 -10.23556
 Alpha  occ. eigenvalues --  -10.23485 -10.23349 -10.23335 -10.23234 -10.23213
 Alpha  occ. eigenvalues --  -10.23203 -10.23092 -10.23053 -10.23038 -10.22994
 Alpha  occ. eigenvalues --  -10.22879 -10.22858 -10.22581 -10.22219 -10.22151
 Alpha  occ. eigenvalues --  -10.22003 -10.21935 -10.21917 -10.21742 -10.21616
 Alpha  occ. eigenvalues --  -10.21407  -3.14097  -1.86919  -1.86456  -1.86348
 Alpha  occ. eigenvalues --   -1.13579  -1.11095  -1.05009  -1.03686  -1.02730
 Alpha  occ. eigenvalues --   -1.01804  -0.98636  -0.98046  -0.97310  -0.96596
 Alpha  occ. eigenvalues --   -0.86954  -0.84811  -0.84663  -0.83594  -0.83443
 Alpha  occ. eigenvalues --   -0.83083  -0.82464  -0.81994  -0.81791  -0.81655
 Alpha  occ. eigenvalues --   -0.80608  -0.80121  -0.78661  -0.77972  -0.77690
 Alpha  occ. eigenvalues --   -0.77177  -0.76352  -0.75867  -0.75318  -0.74686
 Alpha  occ. eigenvalues --   -0.74119  -0.72877  -0.72117  -0.71957  -0.70764
 Alpha  occ. eigenvalues --   -0.70227  -0.70046  -0.69403  -0.69340  -0.68457
 Alpha  occ. eigenvalues --   -0.67884  -0.66924  -0.65543  -0.64673  -0.63458
 Alpha  occ. eigenvalues --   -0.62787  -0.62581  -0.61407  -0.61231  -0.59895
 Alpha  occ. eigenvalues --   -0.59792  -0.59570  -0.59542  -0.59333  -0.58976
 Alpha  occ. eigenvalues --   -0.58218  -0.57884  -0.57211  -0.56978  -0.54973
 Alpha  occ. eigenvalues --   -0.54455  -0.54266  -0.53401  -0.53205  -0.52979
 Alpha  occ. eigenvalues --   -0.52278  -0.52003  -0.50955  -0.50687  -0.49898
 Alpha  occ. eigenvalues --   -0.49683  -0.49624  -0.49361  -0.49063  -0.48688
 Alpha  occ. eigenvalues --   -0.48420  -0.48248  -0.47811  -0.47781  -0.47277
 Alpha  occ. eigenvalues --   -0.47096  -0.46953  -0.46854  -0.46421  -0.46243
 Alpha  occ. eigenvalues --   -0.46211  -0.46064  -0.45908  -0.45708  -0.45391
 Alpha  occ. eigenvalues --   -0.45312  -0.45120  -0.44869  -0.44624  -0.44376
 Alpha  occ. eigenvalues --   -0.44138  -0.43947  -0.43860  -0.43594  -0.43540
 Alpha  occ. eigenvalues --   -0.43375  -0.43226  -0.42842  -0.42784  -0.42731
 Alpha  occ. eigenvalues --   -0.42519  -0.42127  -0.41713  -0.41569  -0.41278
 Alpha  occ. eigenvalues --   -0.41200  -0.41115  -0.40804  -0.40717  -0.40666
 Alpha  occ. eigenvalues --   -0.40612  -0.40472  -0.40128  -0.39951  -0.39609
 Alpha  occ. eigenvalues --   -0.39271  -0.39169  -0.39148  -0.39020  -0.38958
 Alpha  occ. eigenvalues --   -0.38714  -0.38670  -0.38536  -0.38165  -0.37935
 Alpha  occ. eigenvalues --   -0.37847  -0.37632  -0.37218  -0.37113  -0.36958
 Alpha  occ. eigenvalues --   -0.36880  -0.36634  -0.36407  -0.36390  -0.36034
 Alpha  occ. eigenvalues --   -0.35852  -0.35688  -0.35535  -0.35428  -0.35160
 Alpha  occ. eigenvalues --   -0.34630  -0.34304  -0.34133  -0.34053  -0.33420
 Alpha  occ. eigenvalues --   -0.33381  -0.33204  -0.32904  -0.32602  -0.32489
 Alpha  occ. eigenvalues --   -0.32384  -0.32086  -0.32001  -0.31857  -0.31354
 Alpha  occ. eigenvalues --   -0.31316  -0.30476  -0.29930  -0.29785  -0.29757
 Alpha  occ. eigenvalues --   -0.29093  -0.28602  -0.28386  -0.27153  -0.26404
 Alpha  occ. eigenvalues --   -0.25926  -0.25658  -0.25596  -0.25489  -0.21124
 Alpha  occ. eigenvalues --   -0.18518
 Alpha virt. eigenvalues --   -0.10989  -0.04931  -0.04334  -0.02314  -0.01760
 Alpha virt. eigenvalues --   -0.00838  -0.00481   0.01017   0.01712   0.03433
 Alpha virt. eigenvalues --    0.03750   0.04172   0.04834   0.05502   0.05637

 Mulliken charges:
               1
     1  Mg   0.988176
     2  C   -0.097896
     3  C   -0.067038
     4  C   -0.071329
     5  C   -0.082561
     6  N   -0.401557
     7  C    0.022470
     8  C   -0.096894
     9  C   -0.128194
    10  C    0.112940
    11  C    0.014908
    12  C   -0.005533
    13  C    0.014372
    14  C    0.215427
    15  O   -0.298096
    16  O   -0.324138
    17  N   -0.491218
    18  C    0.127133
    19  C   -0.160015
    20  C   -0.080939
    21  C    0.126046
    22  C    0.057419
    23  C    0.037986
    24  O   -0.241939
    25  C   -0.004671
    26  N   -0.430351
    27  C    0.104823
    28  C   -0.079645
    29  C   -0.130897
    30  C    0.068171
    31  C    0.023345
    32  C   -0.027947
    33  C   -0.041551
    34  N   -0.425710
    35  C    0.157105
    36  C   -0.234729
    37  C    0.011225
    38  C    0.165899
    39  C    0.084663
    40  C    0.168773
    41  O   -0.230189
    42  C   -0.080781
    43  C    0.314172
    44  O   -0.260196
    45  O   -0.369492
    46  C    0.105160
    47  C    0.258776
    48  C   -0.178957
    49  C   -0.238321
    50  C    0.010821
    51  C    0.038746
    52  C   -0.049501
    53  C   -0.010363
    54  C   -0.222654
    55  C   -0.002813
    56  C    0.001965
    57  C   -0.099928
    58  C    0.014476
    59  C   -0.234547
    60  C    0.003197
    61  C    0.004761
    62  C   -0.015909
    63  C   -0.063833
    64  C   -0.252641
    65  C   -0.009041
    66  C    0.000267
    67  H   -0.003608
    68  H    0.021742
    69  H    0.004661
    70  H    0.060711
    71  H    0.044445
    72  H    0.034603
    73  H    0.049741
    74  H    0.047941
    75  H    0.043166
    76  H    0.053558
    77  H    0.067210
    78  H    0.061689
    79  H    0.052253
    80  H    0.037210
    81  H    0.046239
    82  H    0.057061
    83  H    0.059858
    84  H    0.068983
    85  H    0.042333
    86  H    0.040937
    87  H    0.045951
    88  H    0.050737
    89  H    0.040804
    90  H    0.040489
    91  H    0.041800
    92  H    0.034561
    93  H    0.047340
    94  H    0.049795
    95  H    0.028939
    96  H    0.063194
    97  H    0.071096
    98  H    0.069885
    99  H    0.068155
   100  H    0.076047
   101  H    0.048209
   102  H    0.068362
   103  H    0.074776
   104  H    0.023596
   105  H    0.053879
   106  H    0.046678
   107  H    0.040752
   108  H    0.021062
   109  H    0.025961
   110  H    0.046330
   111  H    0.042966
   112  H    0.013757
   113  H    0.022794
   114  H    0.039589
   115  H    0.015423
   116  H    0.017414
   117  H    0.053751
   118  H    0.031780
   119  H    0.020817
   120  H    0.043410
   121  H    0.036302
   122  H    0.024084
   123  H    0.027464
   124  H    0.028469
   125  H    0.025547
   126  H    0.034909
   127  H    0.028534
   128  H    0.021489
   129  H    0.036546
   130  H    0.034282
   131  H    0.033794
   132  H    0.020792
   133  H    0.025895
   134  H    0.038041
   135  H    0.031140
   136  H    0.030598
   137  H    0.032750
   138  H    0.031093
   139  H    0.052835
   140  H    0.023392
 Sum of Mulliken charges =  -0.00000

 Dipole moment (field-independent basis, Debye):
    X=             -2.8637    Y=              4.0065    Z=              0.1987  Tot=              4.9287
 Quadrupole moment (field-independent basis, Debye-Ang):
   XX=           -369.1140   YY=           -423.9990   ZZ=           -409.5442
   XY=             -8.9244   XZ=             25.9681   YZ=              7.4396

 Normal termination of Gaussian 16 at Wed May  4 17:55:32 2022.
