 Gaussian 16, Revision A.03,
 Gaussian 16:  ES64L-G16RevA.03 25-Dec-2016

 --------------------------------
 #p wB97XD/Def2SVP td=(nstates=5)
 --------------------------------

 ----------------------------------------------------
 step_251_chromophore_25 TDDFT with wB97XD functional
 ----------------------------------------------------
 Symbolic Z-matrix:
 Charge =  0 Multiplicity = 1

                         Standard orientation:
 ---------------------------------------------------------------------
 Center     Atomic      Atomic             Coordinates (Angstroms)
 Number     Number       Type             X           Y           Z
 ---------------------------------------------------------------------
      1         12           0        5.745649    0.463586    0.391074
      2          6           0        3.523430   -2.353672    0.069224
      3          6           0        3.165577    2.515322   -0.146892
      4          6           0        7.987013    2.890660   -0.171374
      5          6           0        8.377871   -1.853770    0.465395
      6          7           0        3.644190    0.103010   -0.039813
      7          6           0        2.902372   -1.086132    0.062847
      8          6           0        1.352474   -0.800340    0.036435
      9          6           0        1.299968    0.751632   -0.098432
     10          6           0        2.793505    1.168780   -0.037355
     11          6           0        0.605067    1.318045   -1.310574
     12          6           0        0.578179   -1.418486    1.320021
     13          6           0       -0.626988   -2.307957    0.990530
     14          6           0       -1.980140   -1.811396    1.622799
     15          8           0       -2.495123   -2.268315    2.679907
     16          8           0       -2.508764   -0.879403    0.823583
     17          7           0        5.588175    2.473324    0.041718
     18          6           0        4.454588    3.152618   -0.160089
     19          6           0        4.714686    4.568762   -0.424631
     20          6           0        6.147308    4.639597   -0.522196
     21          6           0        6.653686    3.294966   -0.227858
     22          6           0        3.653138    5.570851   -0.583260
     23          6           0        6.923968    5.917397   -0.970353
     24          8           0        8.142739    5.962641   -0.980022
     25          6           0        6.236266    7.176443   -1.392541
     26          7           0        7.808584    0.489534    0.190882
     27          6           0        8.531825    1.672568    0.083467
     28          6           0       10.070356    1.395458    0.131569
     29          6           0       10.140993   -0.076572    0.685165
     30          6           0        8.687994   -0.511755    0.496024
     31          6           0       10.909815    1.712763   -1.148680
     32          6           0       10.573289   -0.176501    2.173725
     33          6           0       11.494076   -1.296903    2.586724
     34          7           0        5.954333   -1.664401    0.239435
     35          6           0        7.079351   -2.437730    0.286972
     36          6           0        6.658879   -3.906040    0.332745
     37          6           0        5.285297   -3.912216    0.301666
     38          6           0        4.903348   -2.532729    0.173616
     39          6           0        7.649919   -5.034842    0.503299
     40          6           0        4.074413   -4.713461    0.285416
     41          8           0        4.059915   -5.960631    0.347541
     42          6           0        2.809216   -3.697133    0.027966
     43          6           0        2.113259   -3.874798   -1.305310
     44          8           0        2.757626   -3.838485   -2.372234
     45          8           0        0.776229   -4.249160   -1.165254
     46          6           0        0.231007   -4.822114   -2.390413
     47          6           0       -3.825943   -0.465961    1.168639
     48          6           0       -4.448816    0.095115   -0.080617
     49          6           0       -5.719661    0.430375   -0.336063
     50          6           0       -6.865551    0.155933    0.689218
     51          6           0       -6.162376    0.894075   -1.704357
     52          6           0       -6.850085   -0.132878   -2.647961
     53          6           0       -8.159660    0.425335   -3.443334
     54          6           0       -9.459415   -0.343946   -3.010410
     55          6           0      -10.182657   -0.874586   -4.262578
     56          6           0      -10.378749    0.511712   -2.094435
     57          6           0      -11.308884   -0.347684   -1.171248
     58          6           0      -12.860649   -0.197320   -1.334617
     59          6           0      -13.555394   -0.129296    0.016157
     60          6           0      -14.953626   -0.787564   -0.006812
     61          6           0      -13.477924    1.318065    0.520102
     62          6           0      -13.606712    1.463304    2.013229
     63          6           0      -12.352508    2.232045    2.508953
     64          6           0      -11.639131    1.472407    3.640526
     65          6           0      -11.136836    2.491689    4.618668
     66          6           0      -10.461498    0.632116    3.032419
     67          1           0        2.358635    3.248171   -0.208639
     68          1           0        8.645382    3.751777   -0.301042
     69          1           0        9.239185   -2.508887    0.614888
     70          1           0        1.032822   -1.332435   -0.859340
     71          1           0        0.623865    1.071857    0.695504
     72          1           0        0.247970    0.551467   -1.998412
     73          1           0        1.464656    1.757742   -1.815276
     74          1           0       -0.246324    1.952691   -1.062848
     75          1           0        0.292493   -0.526939    1.877564
     76          1           0        1.301748   -1.922302    1.960342
     77          1           0       -0.355166   -3.320979    1.287177
     78          1           0       -0.783219   -2.312221   -0.088966
     79          1           0        3.603797    6.177859   -1.486715
     80          1           0        3.925836    6.363095    0.113009
     81          1           0        2.668111    5.272500   -0.223691
     82          1           0        5.666170    7.492596   -0.518140
     83          1           0        5.514877    6.892889   -2.159406
     84          1           0        7.028406    7.846169   -1.724977
     85          1           0       10.426635    2.070381    0.909838
     86          1           0       10.727606   -0.740804    0.050952
     87          1           0       10.204428    2.214718   -1.810539
     88          1           0       11.395428    0.844394   -1.592977
     89          1           0       11.639573    2.504615   -0.975310
     90          1           0        9.579334   -0.301192    2.602954
     91          1           0       10.985314    0.741404    2.593489
     92          1           0       12.219069   -0.843681    3.262900
     93          1           0       12.056394   -1.718945    1.753165
     94          1           0       10.897352   -1.953370    3.220508
     95          1           0        8.642856   -4.586819    0.536801
     96          1           0        7.626889   -5.643891   -0.400101
     97          1           0        7.375298   -5.634410    1.370936
     98          1           0        2.120704   -3.790163    0.867850
     99          1           0        0.014481   -5.888721   -2.349906
    100          1           0        0.843938   -4.648444   -3.274980
    101          1           0       -0.709763   -4.303281   -2.572639
    102          1           0       -3.883238    0.356763    1.881946
    103          1           0       -4.487286   -1.293622    1.424900
    104          1           0       -3.741942    0.326738   -0.876447
    105          1           0       -7.804314   -0.187903    0.252815
    106          1           0       -7.130686    1.152315    1.041061
    107          1           0       -6.434561   -0.433665    1.498012
    108          1           0       -5.272994    1.284581   -2.199805
    109          1           0       -6.839541    1.744772   -1.629308
    110          1           0       -7.064913   -0.943276   -1.950915
    111          1           0       -6.179418   -0.468845   -3.439135
    112          1           0       -7.998482    0.347404   -4.517880
    113          1           0       -8.336972    1.500503   -3.435700
    114          1           0       -9.145067   -1.236993   -2.469322
    115          1           0      -11.037956   -0.243785   -4.505919
    116          1           0      -10.835244   -1.703867   -3.990705
    117          1           0       -9.550428   -1.073730   -5.127277
    118          1           0      -10.932307    1.214142   -2.717780
    119          1           0       -9.796985    1.078673   -1.367563
    120          1           0      -11.015234   -0.091861   -0.153623
    121          1           0      -11.120400   -1.399115   -1.384469
    122          1           0      -13.060180   -1.093719   -1.921117
    123          1           0      -13.017604    0.710179   -1.918420
    124          1           0      -12.982591   -0.709335    0.739607
    125          1           0      -15.777198   -0.109031    0.214875
    126          1           0      -14.955009   -1.625224    0.689901
    127          1           0      -15.269051   -1.193974   -0.968659
    128          1           0      -14.388025    1.793566    0.155520
    129          1           0      -12.599025    1.776341    0.066264
    130          1           0      -13.583141    0.513813    2.548089
    131          1           0      -14.449341    2.078313    2.328503
    132          1           0      -12.786916    3.192374    2.786288
    133          1           0      -11.618645    2.473789    1.739583
    134          1           0      -12.409189    0.870204    4.125100
    135          1           0      -10.381291    2.139010    5.320600
    136          1           0      -12.012274    2.821276    5.180371
    137          1           0      -10.734633    3.342030    4.069528
    138          1           0      -10.843571   -0.339827    3.343632
    139          1           0       -9.446302    0.844876    3.368852
    140          1           0      -10.542143    0.517295    1.951261
 ---------------------------------------------------------------------

 SCF Done:  E(RwB97XD) =  -3007.84483027     A.U. after   19 cycles

 Excitation energies and oscillator strengths:

 Excited State   1:      Singlet-A      1.6422 eV  755.00 nm  f=0.4052  <S**2>=0.000
     245 -> 248        0.17876
     246 -> 247        0.68578
     245 <- 248        0.11659
 This state for optimization and/or second-order correction.
 Total Energy, E(TD-HF/TD-DFT) =  -3007.78448109
 Copying the excited state density for this state as the 1-particle RhoCI density.

 Excited State   2:      Singlet-A      2.2307 eV  555.81 nm  f=0.0943  <S**2>=0.000
     245 -> 247        0.62806
     246 -> 248       -0.31507

 Excited State   3:      Singlet-A      3.5125 eV  352.98 nm  f=0.0439  <S**2>=0.000
     239 -> 247        0.15529
     239 -> 249        0.13619
     240 -> 247        0.36548
     240 -> 249        0.34444
     241 -> 247       -0.21993
     242 -> 247        0.24832
     244 -> 247       -0.11988
     246 -> 248        0.17025

 Excited State   4:      Singlet-A      3.5572 eV  348.54 nm  f=0.5807  <S**2>=0.000
     240 -> 247       -0.12854
     240 -> 249       -0.10510
     244 -> 247        0.26026
     245 -> 247        0.26469
     246 -> 248        0.55990
     245 <- 247       -0.10608

 Excited State   5:      Singlet-A      3.5994 eV  344.45 nm  f=0.0305  <S**2>=0.000
     240 -> 247        0.24931
     240 -> 249        0.15185
     241 -> 247        0.13049
     242 -> 247       -0.20622
     244 -> 247        0.55468
     246 -> 248       -0.10704

 The electronic state is 1-A.
 Alpha  occ. eigenvalues --  -46.94800 -19.32433 -19.32047 -19.25908 -19.25101
 Alpha  occ. eigenvalues --  -19.24864 -19.23575 -14.47267 -14.46301 -14.44360
 Alpha  occ. eigenvalues --  -14.43992 -10.44808 -10.44080 -10.40652 -10.38905
 Alpha  occ. eigenvalues --  -10.36626 -10.35751 -10.35568 -10.35038 -10.34783
 Alpha  occ. eigenvalues --  -10.34405 -10.34171 -10.34118 -10.33828 -10.33545
 Alpha  occ. eigenvalues --  -10.33238 -10.33099 -10.32883 -10.32401 -10.32257
 Alpha  occ. eigenvalues --  -10.31975 -10.31862 -10.31576 -10.31540 -10.31449
 Alpha  occ. eigenvalues --  -10.31350 -10.31247 -10.31079 -10.31045 -10.30597
 Alpha  occ. eigenvalues --  -10.30313 -10.30188 -10.30067 -10.30038 -10.30002
 Alpha  occ. eigenvalues --  -10.29865 -10.29859 -10.29727 -10.29627 -10.29553
 Alpha  occ. eigenvalues --  -10.29478 -10.29397 -10.29388 -10.29345 -10.29258
 Alpha  occ. eigenvalues --  -10.29256 -10.29249 -10.28951 -10.28587 -10.28564
 Alpha  occ. eigenvalues --  -10.28365 -10.28360 -10.28307 -10.28182 -10.27947
 Alpha  occ. eigenvalues --  -10.27846  -3.20874  -1.94446  -1.93984  -1.93874
 Alpha  occ. eigenvalues --   -1.20963  -1.18633  -1.12332  -1.11377  -1.10262
 Alpha  occ. eigenvalues --   -1.09183  -1.05986  -1.05387  -1.04705  -1.03980
 Alpha  occ. eigenvalues --   -0.94709  -0.92487  -0.92332  -0.91233  -0.91008
 Alpha  occ. eigenvalues --   -0.90745  -0.90006  -0.89647  -0.89452  -0.89194
 Alpha  occ. eigenvalues --   -0.88325  -0.87735  -0.86307  -0.85625  -0.85319
 Alpha  occ. eigenvalues --   -0.84816  -0.84016  -0.83542  -0.82974  -0.82315
 Alpha  occ. eigenvalues --   -0.81792  -0.80451  -0.79774  -0.79589  -0.78435
 Alpha  occ. eigenvalues --   -0.77923  -0.77742  -0.77084  -0.76873  -0.76114
 Alpha  occ. eigenvalues --   -0.75490  -0.74529  -0.73051  -0.72309  -0.71055
 Alpha  occ. eigenvalues --   -0.70334  -0.70220  -0.68929  -0.68789  -0.67441
 Alpha  occ. eigenvalues --   -0.67316  -0.67089  -0.66998  -0.66948  -0.66442
 Alpha  occ. eigenvalues --   -0.65900  -0.65563  -0.64667  -0.64615  -0.62315
 Alpha  occ. eigenvalues --   -0.61931  -0.61783  -0.61004  -0.60594  -0.60407
 Alpha  occ. eigenvalues --   -0.59810  -0.59374  -0.58350  -0.58173  -0.57293
 Alpha  occ. eigenvalues --   -0.57108  -0.57057  -0.56862  -0.56510  -0.56163
 Alpha  occ. eigenvalues --   -0.55753  -0.55573  -0.55234  -0.55176  -0.54604
 Alpha  occ. eigenvalues --   -0.54488  -0.54414  -0.54267  -0.53735  -0.53608
 Alpha  occ. eigenvalues --   -0.53587  -0.53419  -0.53177  -0.53055  -0.52838
 Alpha  occ. eigenvalues --   -0.52707  -0.52464  -0.52173  -0.51945  -0.51739
 Alpha  occ. eigenvalues --   -0.51480  -0.51315  -0.51122  -0.50914  -0.50866
 Alpha  occ. eigenvalues --   -0.50675  -0.50507  -0.50124  -0.50013  -0.49994
 Alpha  occ. eigenvalues --   -0.49824  -0.49419  -0.48935  -0.48765  -0.48503
 Alpha  occ. eigenvalues --   -0.48447  -0.48362  -0.48037  -0.47929  -0.47875
 Alpha  occ. eigenvalues --   -0.47753  -0.47672  -0.47356  -0.47150  -0.46785
 Alpha  occ. eigenvalues --   -0.46451  -0.46402  -0.46348  -0.46172  -0.46103
 Alpha  occ. eigenvalues --   -0.45824  -0.45812  -0.45668  -0.45288  -0.45209
 Alpha  occ. eigenvalues --   -0.44956  -0.44829  -0.44382  -0.44247  -0.44079
 Alpha  occ. eigenvalues --   -0.44007  -0.43708  -0.43561  -0.43473  -0.43018
 Alpha  occ. eigenvalues --   -0.42941  -0.42705  -0.42563  -0.42474  -0.42183
 Alpha  occ. eigenvalues --   -0.41607  -0.41400  -0.41103  -0.41096  -0.40469
 Alpha  occ. eigenvalues --   -0.40361  -0.40203  -0.39831  -0.39637  -0.39547
 Alpha  occ. eigenvalues --   -0.39515  -0.39120  -0.39055  -0.38897  -0.38312
 Alpha  occ. eigenvalues --   -0.38245  -0.37490  -0.37203  -0.36612  -0.36587
 Alpha  occ. eigenvalues --   -0.36008  -0.35493  -0.35215  -0.33771  -0.33556
 Alpha  occ. eigenvalues --   -0.32654  -0.32620  -0.32346  -0.31994  -0.26156
 Alpha  occ. eigenvalues --   -0.22643
 Alpha virt. eigenvalues --   -0.06819   0.00511   0.01931   0.04235   0.04823
 Alpha virt. eigenvalues --    0.05089   0.06295   0.07760   0.08459   0.10118
 Alpha virt. eigenvalues --    0.10323   0.10852   0.11344   0.12232   0.12325

 Mulliken charges:
               1
     1  Mg   0.977004
     2  C   -0.100966
     3  C   -0.080161
     4  C   -0.088117
     5  C   -0.100922
     6  N   -0.369608
     7  C   -0.008755
     8  C   -0.071602
     9  C   -0.105052
    10  C    0.103994
    11  C    0.025996
    12  C    0.004808
    13  C    0.032178
    14  C    0.207222
    15  O   -0.295729
    16  O   -0.323207
    17  N   -0.454926
    18  C    0.114167
    19  C   -0.149452
    20  C   -0.076104
    21  C    0.118394
    22  C    0.069405
    23  C    0.031575
    24  O   -0.238183
    25  C    0.011858
    26  N   -0.401102
    27  C    0.093578
    28  C   -0.058275
    29  C   -0.103758
    30  C    0.063818
    31  C    0.035195
    32  C   -0.016746
    33  C   -0.026294
    34  N   -0.388671
    35  C    0.149069
    36  C   -0.228675
    37  C    0.016189
    38  C    0.154530
    39  C    0.098518
    40  C    0.147672
    41  O   -0.220229
    42  C   -0.040064
    43  C    0.293457
    44  O   -0.255863
    45  O   -0.367744
    46  C    0.120840
    47  C    0.272336
    48  C   -0.188669
    49  C   -0.221659
    50  C    0.028244
    51  C    0.055301
    52  C   -0.030490
    53  C   -0.000398
    54  C   -0.188503
    55  C    0.008481
    56  C    0.016129
    57  C   -0.070001
    58  C    0.031348
    59  C   -0.197646
    60  C    0.011213
    61  C    0.022012
    62  C   -0.000473
    63  C   -0.049530
    64  C   -0.218989
    65  C    0.003487
    66  C    0.019885
    67  H   -0.013916
    68  H    0.016322
    69  H   -0.003470
    70  H    0.042811
    71  H    0.033868
    72  H    0.029019
    73  H    0.041059
    74  H    0.044012
    75  H    0.035207
    76  H    0.045628
    77  H    0.062381
    78  H    0.053022
    79  H    0.046817
    80  H    0.028503
    81  H    0.042699
    82  H    0.049500
    83  H    0.051977
    84  H    0.067854
    85  H    0.031149
    86  H    0.029270
    87  H    0.038521
    88  H    0.045444
    89  H    0.035627
    90  H    0.029512
    91  H    0.035072
    92  H    0.029066
    93  H    0.041848
    94  H    0.044038
    95  H    0.023052
    96  H    0.059099
    97  H    0.067596
    98  H    0.060402
    99  H    0.064508
   100  H    0.072345
   101  H    0.044287
   102  H    0.064054
   103  H    0.068023
   104  H    0.019734
   105  H    0.045892
   106  H    0.039809
   107  H    0.034523
   108  H    0.013964
   109  H    0.015998
   110  H    0.033412
   111  H    0.037040
   112  H    0.006285
   113  H    0.015077
   114  H    0.024605
   115  H    0.007729
   116  H    0.010781
   117  H    0.049018
   118  H    0.022057
   119  H    0.010565
   120  H    0.019041
   121  H    0.026615
   122  H    0.015866
   123  H    0.016629
   124  H    0.011741
   125  H    0.019784
   126  H    0.030131
   127  H    0.023127
   128  H    0.012147
   129  H    0.022595
   130  H    0.021855
   131  H    0.028055
   132  H    0.012535
   133  H    0.014738
   134  H    0.026822
   135  H    0.026014
   136  H    0.023959
   137  H    0.025318
   138  H    0.024456
   139  H    0.049305
   140  H    0.005229
 Sum of Mulliken charges =  -0.00000

 Dipole moment (field-independent basis, Debye):
    X=             -3.0149    Y=              3.6470    Z=              0.1811  Tot=              4.7353
 Quadrupole moment (field-independent basis, Debye-Ang):
   XX=           -370.7363   YY=           -422.5803   ZZ=           -409.0831
   XY=            -10.8432   XZ=             26.2888   YZ=              7.5483

 Normal termination of Gaussian 16 at Wed May  4 18:33:29 2022.
