 Gaussian 16, Revision A.03,
 Gaussian 16:  ES64L-G16RevA.03 25-Dec-2016

 --------------------
 #p ZINDO=(nstates=5)
 --------------------

 -----------------------------
 step_251_chromophore_25 ZINDO
 -----------------------------
 Symbolic Z-matrix:
 Charge =  0 Multiplicity = 1

                         Standard orientation:
 ---------------------------------------------------------------------
 Center     Atomic      Atomic             Coordinates (Angstroms)
 Number     Number       Type             X           Y           Z
 ---------------------------------------------------------------------
      1         12           0        5.745649    0.463586    0.391074
      2          6           0        3.523430   -2.353672    0.069224
      3          6           0        3.165577    2.515322   -0.146892
      4          6           0        7.987013    2.890660   -0.171374
      5          6           0        8.377871   -1.853770    0.465395
      6          7           0        3.644190    0.103010   -0.039813
      7          6           0        2.902372   -1.086132    0.062847
      8          6           0        1.352474   -0.800340    0.036435
      9          6           0        1.299968    0.751632   -0.098432
     10          6           0        2.793505    1.168780   -0.037355
     11          6           0        0.605067    1.318045   -1.310574
     12          6           0        0.578179   -1.418486    1.320021
     13          6           0       -0.626988   -2.307957    0.990530
     14          6           0       -1.980140   -1.811396    1.622799
     15          8           0       -2.495123   -2.268315    2.679907
     16          8           0       -2.508764   -0.879403    0.823583
     17          7           0        5.588175    2.473324    0.041718
     18          6           0        4.454588    3.152618   -0.160089
     19          6           0        4.714686    4.568762   -0.424631
     20          6           0        6.147308    4.639597   -0.522196
     21          6           0        6.653686    3.294966   -0.227858
     22          6           0        3.653138    5.570851   -0.583260
     23          6           0        6.923968    5.917397   -0.970353
     24          8           0        8.142739    5.962641   -0.980022
     25          6           0        6.236266    7.176443   -1.392541
     26          7           0        7.808584    0.489534    0.190882
     27          6           0        8.531825    1.672568    0.083467
     28          6           0       10.070356    1.395458    0.131569
     29          6           0       10.140993   -0.076572    0.685165
     30          6           0        8.687994   -0.511755    0.496024
     31          6           0       10.909815    1.712763   -1.148680
     32          6           0       10.573289   -0.176501    2.173725
     33          6           0       11.494076   -1.296903    2.586724
     34          7           0        5.954333   -1.664401    0.239435
     35          6           0        7.079351   -2.437730    0.286972
     36          6           0        6.658879   -3.906040    0.332745
     37          6           0        5.285297   -3.912216    0.301666
     38          6           0        4.903348   -2.532729    0.173616
     39          6           0        7.649919   -5.034842    0.503299
     40          6           0        4.074413   -4.713461    0.285416
     41          8           0        4.059915   -5.960631    0.347541
     42          6           0        2.809216   -3.697133    0.027966
     43          6           0        2.113259   -3.874798   -1.305310
     44          8           0        2.757626   -3.838485   -2.372234
     45          8           0        0.776229   -4.249160   -1.165254
     46          6           0        0.231007   -4.822114   -2.390413
     47          6           0       -3.825943   -0.465961    1.168639
     48          6           0       -4.448816    0.095115   -0.080617
     49          6           0       -5.719661    0.430375   -0.336063
     50          6           0       -6.865551    0.155933    0.689218
     51          6           0       -6.162376    0.894075   -1.704357
     52          6           0       -6.850085   -0.132878   -2.647961
     53          6           0       -8.159660    0.425335   -3.443334
     54          6           0       -9.459415   -0.343946   -3.010410
     55          6           0      -10.182657   -0.874586   -4.262578
     56          6           0      -10.378749    0.511712   -2.094435
     57          6           0      -11.308884   -0.347684   -1.171248
     58          6           0      -12.860649   -0.197320   -1.334617
     59          6           0      -13.555394   -0.129296    0.016157
     60          6           0      -14.953626   -0.787564   -0.006812
     61          6           0      -13.477924    1.318065    0.520102
     62          6           0      -13.606712    1.463304    2.013229
     63          6           0      -12.352508    2.232045    2.508953
     64          6           0      -11.639131    1.472407    3.640526
     65          6           0      -11.136836    2.491689    4.618668
     66          6           0      -10.461498    0.632116    3.032419
     67          1           0        2.358635    3.248171   -0.208639
     68          1           0        8.645382    3.751777   -0.301042
     69          1           0        9.239185   -2.508887    0.614888
     70          1           0        1.032822   -1.332435   -0.859340
     71          1           0        0.623865    1.071857    0.695504
     72          1           0        0.247970    0.551467   -1.998412
     73          1           0        1.464656    1.757742   -1.815276
     74          1           0       -0.246324    1.952691   -1.062848
     75          1           0        0.292493   -0.526939    1.877564
     76          1           0        1.301748   -1.922302    1.960342
     77          1           0       -0.355166   -3.320979    1.287177
     78          1           0       -0.783219   -2.312221   -0.088966
     79          1           0        3.603797    6.177859   -1.486715
     80          1           0        3.925836    6.363095    0.113009
     81          1           0        2.668111    5.272500   -0.223691
     82          1           0        5.666170    7.492596   -0.518140
     83          1           0        5.514877    6.892889   -2.159406
     84          1           0        7.028406    7.846169   -1.724977
     85          1           0       10.426635    2.070381    0.909838
     86          1           0       10.727606   -0.740804    0.050952
     87          1           0       10.204428    2.214718   -1.810539
     88          1           0       11.395428    0.844394   -1.592977
     89          1           0       11.639573    2.504615   -0.975310
     90          1           0        9.579334   -0.301192    2.602954
     91          1           0       10.985314    0.741404    2.593489
     92          1           0       12.219069   -0.843681    3.262900
     93          1           0       12.056394   -1.718945    1.753165
     94          1           0       10.897352   -1.953370    3.220508
     95          1           0        8.642856   -4.586819    0.536801
     96          1           0        7.626889   -5.643891   -0.400101
     97          1           0        7.375298   -5.634410    1.370936
     98          1           0        2.120704   -3.790163    0.867850
     99          1           0        0.014481   -5.888721   -2.349906
    100          1           0        0.843938   -4.648444   -3.274980
    101          1           0       -0.709763   -4.303281   -2.572639
    102          1           0       -3.883238    0.356763    1.881946
    103          1           0       -4.487286   -1.293622    1.424900
    104          1           0       -3.741942    0.326738   -0.876447
    105          1           0       -7.804314   -0.187903    0.252815
    106          1           0       -7.130686    1.152315    1.041061
    107          1           0       -6.434561   -0.433665    1.498012
    108          1           0       -5.272994    1.284581   -2.199805
    109          1           0       -6.839541    1.744772   -1.629308
    110          1           0       -7.064913   -0.943276   -1.950915
    111          1           0       -6.179418   -0.468845   -3.439135
    112          1           0       -7.998482    0.347404   -4.517880
    113          1           0       -8.336972    1.500503   -3.435700
    114          1           0       -9.145067   -1.236993   -2.469322
    115          1           0      -11.037956   -0.243785   -4.505919
    116          1           0      -10.835244   -1.703867   -3.990705
    117          1           0       -9.550428   -1.073730   -5.127277
    118          1           0      -10.932307    1.214142   -2.717780
    119          1           0       -9.796985    1.078673   -1.367563
    120          1           0      -11.015234   -0.091861   -0.153623
    121          1           0      -11.120400   -1.399115   -1.384469
    122          1           0      -13.060180   -1.093719   -1.921117
    123          1           0      -13.017604    0.710179   -1.918420
    124          1           0      -12.982591   -0.709335    0.739607
    125          1           0      -15.777198   -0.109031    0.214875
    126          1           0      -14.955009   -1.625224    0.689901
    127          1           0      -15.269051   -1.193974   -0.968659
    128          1           0      -14.388025    1.793566    0.155520
    129          1           0      -12.599025    1.776341    0.066264
    130          1           0      -13.583141    0.513813    2.548089
    131          1           0      -14.449341    2.078313    2.328503
    132          1           0      -12.786916    3.192374    2.786288
    133          1           0      -11.618645    2.473789    1.739583
    134          1           0      -12.409189    0.870204    4.125100
    135          1           0      -10.381291    2.139010    5.320600
    136          1           0      -12.012274    2.821276    5.180371
    137          1           0      -10.734633    3.342030    4.069528
    138          1           0      -10.843571   -0.339827    3.343632
    139          1           0       -9.446302    0.844876    3.368852
    140          1           0      -10.542143    0.517295    1.951261
 ---------------------------------------------------------------------

 SCF Done:  E(RZINDO/S) =  -474.153925816     A.U. after   20 cycles

 Excitation energies and oscillator strengths:

 Excited State   1:      Singlet-A      1.2541 eV  988.65 nm  f=0.6175  <S**2>=0.000
     175 ->178         0.16997
     176 ->177         0.66543
 This state for optimization and/or second-order correction.
 Total Energy, E(CIS/TDA) =  -474.107839449
 Copying the excited state density for this state as the 1-particle RhoCI density.

 Excited State   2:      Singlet-A      1.9289 eV  642.77 nm  f=0.0185  <S**2>=0.000
     175 ->177         0.52137
     176 ->178        -0.42608
     176 ->179         0.15963

 Excited State   3:      Singlet-A      2.8653 eV  432.70 nm  f=0.2309  <S**2>=0.000
     175 ->177         0.22581
     176 ->178         0.44257
     176 ->179         0.42535
     176 ->180        -0.13613

 Excited State   4:      Singlet-A      2.9578 eV  419.18 nm  f=0.0339  <S**2>=0.000
     167 ->179         0.10821
     168 ->177         0.31778
     168 ->178        -0.26069
     168 ->179        -0.37306
     168 ->180         0.14102
     168 ->182         0.18366
     168 ->185        -0.13122
     168 ->195         0.10568
     176 ->178        -0.11234

 Excited State   5:      Singlet-A      3.0476 eV  406.82 nm  f=0.0009  <S**2>=0.000
     170 ->177         0.22834
     170 ->179         0.20976
     170 ->180        -0.17966
     170 ->182         0.43872
     170 ->183        -0.13178
     170 ->185         0.18604
     170 ->187         0.16760
     170 ->188         0.21597

 The electronic state is 1-A.
 Alpha  occ. eigenvalues --   -1.82691  -1.80741  -1.79078  -1.75454  -1.71136
 Alpha  occ. eigenvalues --   -1.69709  -1.67317  -1.60483  -1.59183  -1.57423
 Alpha  occ. eigenvalues --   -1.55668  -1.51376  -1.48654  -1.48175  -1.46933
 Alpha  occ. eigenvalues --   -1.44337  -1.43866  -1.40384  -1.39523  -1.38414
 Alpha  occ. eigenvalues --   -1.36724  -1.33935  -1.33166  -1.31908  -1.29355
 Alpha  occ. eigenvalues --   -1.27934  -1.24847  -1.21192  -1.20282  -1.18530
 Alpha  occ. eigenvalues --   -1.17124  -1.16792  -1.15295  -1.14828  -1.13858
 Alpha  occ. eigenvalues --   -1.13509  -1.10745  -1.09768  -1.05332  -1.03499
 Alpha  occ. eigenvalues --   -1.02286  -1.01323  -0.98506  -0.96640  -0.96288
 Alpha  occ. eigenvalues --   -0.95984  -0.94458  -0.93725  -0.93424  -0.92284
 Alpha  occ. eigenvalues --   -0.91294  -0.90922  -0.90435  -0.88977  -0.86567
 Alpha  occ. eigenvalues --   -0.85930  -0.85657  -0.83860  -0.82194  -0.80072
 Alpha  occ. eigenvalues --   -0.79735  -0.79601  -0.77458  -0.76936  -0.76470
 Alpha  occ. eigenvalues --   -0.76058  -0.75073  -0.74541  -0.73456  -0.73184
 Alpha  occ. eigenvalues --   -0.72186  -0.71789  -0.71310  -0.71275  -0.70816
 Alpha  occ. eigenvalues --   -0.69882  -0.69294  -0.69146  -0.68190  -0.67684
 Alpha  occ. eigenvalues --   -0.67498  -0.67391  -0.67001  -0.66824  -0.66397
 Alpha  occ. eigenvalues --   -0.65491  -0.65365  -0.64547  -0.64323  -0.63819
 Alpha  occ. eigenvalues --   -0.63615  -0.63088  -0.62909  -0.62529  -0.62446
 Alpha  occ. eigenvalues --   -0.61991  -0.61799  -0.61427  -0.60828  -0.59501
 Alpha  occ. eigenvalues --   -0.58967  -0.58770  -0.58549  -0.58334  -0.58249
 Alpha  occ. eigenvalues --   -0.58020  -0.57918  -0.56819  -0.56736  -0.56556
 Alpha  occ. eigenvalues --   -0.56243  -0.55868  -0.55253  -0.55040  -0.54756
 Alpha  occ. eigenvalues --   -0.54572  -0.54037  -0.53328  -0.53026  -0.52657
 Alpha  occ. eigenvalues --   -0.52472  -0.52452  -0.52133  -0.51722  -0.51366
 Alpha  occ. eigenvalues --   -0.51238  -0.51160  -0.50938  -0.50653  -0.50626
 Alpha  occ. eigenvalues --   -0.50212  -0.50077  -0.50066  -0.49603  -0.49393
 Alpha  occ. eigenvalues --   -0.48874  -0.48641  -0.48599  -0.47896  -0.47858
 Alpha  occ. eigenvalues --   -0.47412  -0.47084  -0.46716  -0.46606  -0.46426
 Alpha  occ. eigenvalues --   -0.46333  -0.45883  -0.45721  -0.45664  -0.45346
 Alpha  occ. eigenvalues --   -0.45127  -0.44645  -0.44545  -0.44151  -0.44087
 Alpha  occ. eigenvalues --   -0.43371  -0.42958  -0.42924  -0.42593  -0.42460
 Alpha  occ. eigenvalues --   -0.42374  -0.42243  -0.40852  -0.39513  -0.39246
 Alpha  occ. eigenvalues --   -0.38756  -0.37730  -0.36331  -0.34741  -0.34340
 Alpha  occ. eigenvalues --   -0.33688  -0.32797  -0.32649  -0.32022  -0.26823
 Alpha  occ. eigenvalues --   -0.21441
 Alpha virt. eigenvalues --   -0.08264  -0.02094  -0.00931   0.00595   0.00898
 Alpha virt. eigenvalues --    0.01579   0.01788   0.02836   0.04671   0.04698
 Alpha virt. eigenvalues --    0.06094   0.06499   0.07211   0.07793   0.07857

 Mulliken charges:
               1
     1  Mg   0.429775
     2  C   -0.041792
     3  C   -0.076935
     4  C   -0.048228
     5  C   -0.082907
     6  N   -0.279388
     7  C    0.114543
     8  C   -0.008464
     9  C    0.003643
    10  C    0.113541
    11  C   -0.058899
    12  C   -0.024753
    13  C    0.007616
    14  C    0.465523
    15  O   -0.533783
    16  O   -0.240967
    17  N   -0.304093
    18  C    0.089855
    19  C   -0.007034
    20  C   -0.064541
    21  C    0.122671
    22  C   -0.041809
    23  C    0.319728
    24  O   -0.530943
    25  C   -0.029091
    26  N   -0.281205
    27  C    0.109871
    28  C   -0.001738
    29  C    0.001641
    30  C    0.156248
    31  C   -0.053092
    32  C   -0.030536
    33  C   -0.057482
    34  N   -0.318769
    35  C    0.112971
    36  C    0.051604
    37  C   -0.034497
    38  C    0.122655
    39  C   -0.037913
    40  C    0.333691
    41  O   -0.508352
    42  C    0.058482
    43  C    0.484227
    44  O   -0.512525
    45  O   -0.263796
    46  C    0.074081
    47  C    0.109420
    48  C   -0.087067
    49  C   -0.022267
    50  C   -0.055594
    51  C   -0.019644
    52  C   -0.035450
    53  C   -0.046919
    54  C   -0.007984
    55  C   -0.066345
    56  C   -0.034536
    57  C   -0.052146
    58  C   -0.036593
    59  C   -0.005437
    60  C   -0.059136
    61  C   -0.029616
    62  C   -0.040876
    63  C   -0.044085
    64  C   -0.008055
    65  C   -0.052922
    66  C   -0.069031
    67  H    0.020005
    68  H    0.040911
    69  H    0.024297
    70  H    0.037054
    71  H    0.029924
    72  H    0.014795
    73  H    0.032290
    74  H    0.027100
    75  H    0.026992
    76  H    0.029593
    77  H    0.042997
    78  H    0.037947
    79  H    0.036504
    80  H    0.017206
    81  H    0.026977
    82  H    0.041033
    83  H    0.034986
    84  H    0.048846
    85  H    0.024714
    86  H    0.030658
    87  H    0.026230
    88  H    0.028702
    89  H    0.022274
    90  H    0.019626
    91  H    0.024843
    92  H    0.012667
    93  H    0.030747
    94  H    0.026330
    95  H    0.024497
    96  H    0.038772
    97  H    0.044343
    98  H    0.050564
    99  H    0.045451
   100  H    0.054233
   101  H    0.025121
   102  H    0.056902
   103  H    0.059932
   104  H    0.024264
   105  H    0.034058
   106  H    0.022786
   107  H    0.031157
   108  H    0.012189
   109  H    0.020379
   110  H    0.029263
   111  H    0.023241
   112  H    0.013932
   113  H    0.022838
   114  H    0.020352
   115  H    0.014741
   116  H    0.011958
   117  H    0.031170
   118  H    0.024088
   119  H    0.012785
   120  H    0.019114
   121  H    0.018275
   122  H    0.018272
   123  H    0.022696
   124  H    0.016466
   125  H    0.017356
   126  H    0.017039
   127  H    0.016042
   128  H    0.011277
   129  H    0.029502
   130  H    0.025124
   131  H    0.022347
   132  H    0.008301
   133  H    0.020319
   134  H    0.026515
   135  H    0.014090
   136  H    0.010908
   137  H    0.017400
   138  H    0.012398
   139  H    0.035639
   140  H    0.021114
 Sum of Mulliken charges =  -0.00000

 Dipole moment (field-independent basis, Debye):
    X=             -4.2242    Y=              3.7634    Z=              0.9701  Tot=              5.7401
 N-N= 4.294646461802D+03 E-N= 0.000000000000D+00  KE=-9.263037952341D+03
 Leave Link  601 at Wed May  4 18:49:59 2022, MaxMem=  6710886400 cpu:               2.7 elap:               0.1
 (Enter /sw/apps/gaussian-16.0/g16/l9999.exe)
 1\1\GINC-BP1-COMPUTE215\SP\RZINDO CIS\STO-3G\C55H74Mg1N4O6\OF15641\04-
 May-2022\0\\#p ZINDO=(nstates=5)\\step_251_chromophore_25 ZINDO\\0,1\M
 g,0,-2.512,34.32,26.71\C,0,-3.706,32.37,29.494\C,0,-1.096,36.452,28.85
 6\C,0,-2.235,36.472,24.156\C,0,-4.454,32.242,24.657\N,0,-2.472,34.411,
 28.883\C,0,-2.842,33.436,29.825\C,0,-2.279,33.778,31.257\C,0,-1.516,35
 .114,31.007\C,0,-1.649,35.323,29.475\C,0,-1.968,36.325,31.783\C,0,-1.3
 95,32.574,31.888\C,0,-1.813,32.123,33.293\C,0,-0.669,32.237,34.368\O,0

 Normal termination of Gaussian 16 at Wed May  4 18:49:59 2022.
