 Gaussian 16, Revision A.03,
 Gaussian 16:  ES64L-G16RevA.03 25-Dec-2016

 ------------------------------
 #p blyp/Def2SVP td=(nstates=5)
 ------------------------------

 --------------------------------------------------
 step_1251_chromophore_7 TDDFT with blyp functional
 --------------------------------------------------
 Symbolic Z-matrix:
 Charge =  0 Multiplicity = 1

                         Standard orientation:
 ---------------------------------------------------------------------
 Center     Atomic      Atomic             Coordinates (Angstroms)
 Number     Number       Type             X           Y           Z
 ---------------------------------------------------------------------
      1         12           0        5.927580    0.531452    0.027261
      2          6           0        3.657560   -2.170877    0.177099
      3          6           0        3.520206    2.399045   -1.506886
      4          6           0        8.204869    2.872767   -0.001877
      5          6           0        8.404138   -1.870240    1.117930
      6          7           0        3.848265    0.121095   -0.517272
      7          6           0        3.114036   -0.987272   -0.283710
      8          6           0        1.613144   -0.710080   -0.594023
      9          6           0        1.705202    0.638962   -1.277570
     10          6           0        3.141839    1.127540   -1.106481
     11          6           0        1.435276    0.600411   -2.762869
     12          6           0        0.743478   -0.935995    0.680595
     13          6           0       -0.665007   -1.632705    0.638632
     14          6           0       -1.518930   -1.479509   -0.619226
     15          8           0       -1.210705   -1.557168   -1.798307
     16          8           0       -2.808475   -1.341003   -0.135783
     17          7           0        5.867537    2.324806   -0.708416
     18          6           0        4.809612    2.988155   -1.271125
     19          6           0        5.152588    4.335791   -1.649701
     20          6           0        6.484836    4.541807   -1.152608
     21          6           0        6.950731    3.207675   -0.644087
     22          6           0        4.212527    5.232095   -2.358628
     23          6           0        7.347740    5.788226   -1.185894
     24          8           0        8.516898    5.836468   -0.812183
     25          6           0        6.801139    7.046104   -1.687631
     26          7           0        8.071944    0.463505    0.542342
     27          6           0        8.726108    1.707705    0.554659
     28          6           0       10.107293    1.552752    1.161877
     29          6           0       10.112157    0.047202    1.502091
     30          6           0        8.784878   -0.487299    1.091617
     31          6           0       11.212890    2.095556    0.121883
     32          6           0       10.538186   -0.328143    3.009657
     33          6           0       11.865178   -1.076794    3.151310
     34          7           0        6.062835   -1.593511    0.658798
     35          6           0        7.119876   -2.364799    1.057746
     36          6           0        6.572783   -3.687557    1.420067
     37          6           0        5.290171   -3.730461    1.047199
     38          6           0        4.968682   -2.410192    0.606801
     39          6           0        7.381458   -4.844940    2.019069
     40          6           0        4.079569   -4.531031    0.967270
     41          8           0        3.969739   -5.696840    1.302807
     42          6           0        2.916213   -3.558088    0.411474
     43          6           0        2.301019   -4.092276   -0.827684
     44          8           0        2.521023   -3.774888   -2.022824
     45          8           0        1.151878   -4.775780   -0.414156
     46          6           0        0.108088   -4.954452   -1.504489
     47          6           0       -3.887800   -1.470443   -1.137643
     48          6           0       -5.199190   -0.981959   -0.637948
     49          6           0       -6.378891   -0.937523   -1.293749
     50          6           0       -6.426255   -0.984991   -2.742056
     51          6           0       -7.660084   -0.559226   -0.530678
     52          6           0       -8.993894   -1.265826   -0.985406
     53          6           0       -9.893581   -0.212394   -1.649370
     54          6           0      -10.997793   -0.913491   -2.553185
     55          6           0      -10.633276   -0.952840   -4.104535
     56          6           0      -12.400183   -0.201885   -2.255433
     57          6           0      -13.336455   -1.002426   -1.264844
     58          6           0      -13.914088   -0.143200   -0.161961
     59          6           0      -12.868387    0.177645    1.005553
     60          6           0      -13.236216   -0.264439    2.415618
     61          6           0      -12.747742    1.719226    0.993972
     62          6           0      -11.453176    2.297394    1.608979
     63          6           0      -11.666932    3.515579    2.553399
     64          6           0      -11.443291    2.955586    4.012031
     65          6           0      -12.835253    2.674193    4.737119
     66          6           0      -10.618227    3.929438    4.820633
     67          1           0        2.752338    2.971227   -2.031983
     68          1           0        8.827117    3.748040    0.195715
     69          1           0        9.266005   -2.518554    1.287205
     70          1           0        1.338285   -1.506163   -1.285009
     71          1           0        1.118799    1.408690   -0.776254
     72          1           0        0.758219   -0.231876   -2.954198
     73          1           0        2.392380    0.605077   -3.286733
     74          1           0        0.842496    1.489482   -2.979694
     75          1           0        0.375356   -0.007897    1.116138
     76          1           0        1.220813   -1.430432    1.527003
     77          1           0       -1.231473   -1.379999    1.534377
     78          1           0       -0.498892   -2.706230    0.715079
     79          1           0        3.994794    5.997904   -1.614156
     80          1           0        3.316361    4.762603   -2.763775
     81          1           0        4.678225    5.697115   -3.227696
     82          1           0        6.424751    6.862618   -2.693742
     83          1           0        7.666016    7.706714   -1.756910
     84          1           0        6.066932    7.584629   -1.088835
     85          1           0       10.004298    2.108266    2.093699
     86          1           0       10.734746   -0.437717    0.750826
     87          1           0       12.046969    1.413831   -0.047324
     88          1           0       11.747678    2.964802    0.502691
     89          1           0       10.763922    2.244299   -0.860305
     90          1           0        9.746048   -0.987397    3.364979
     91          1           0       10.494437    0.623871    3.538519
     92          1           0       12.539111   -0.700193    3.920140
     93          1           0       12.393862   -0.985843    2.202368
     94          1           0       11.728898   -2.153999    3.247599
     95          1           0        8.402336   -4.570808    2.284022
     96          1           0        7.528726   -5.729034    1.398900
     97          1           0        6.920878   -5.082536    2.979072
     98          1           0        2.190282   -3.524729    1.224146
     99          1           0        0.339337   -5.829958   -2.111451
    100          1           0        0.064163   -4.102635   -2.183005
    101          1           0       -0.931377   -5.070968   -1.196693
    102          1           0       -3.933837   -2.549308   -1.282856
    103          1           0       -3.603369   -1.025595   -2.091801
    104          1           0       -5.232376   -0.860843    0.444121
    105          1           0       -7.382550   -0.679630   -3.165922
    106          1           0       -6.210732   -1.993598   -3.092500
    107          1           0       -5.628620   -0.325695   -3.085180
    108          1           0       -7.768659    0.524409   -0.561925
    109          1           0       -7.598819   -1.017183    0.456167
    110          1           0       -9.477054   -1.604075   -0.068659
    111          1           0       -9.024193   -2.150959   -1.621159
    112          1           0       -9.221363    0.426735   -2.221782
    113          1           0      -10.327832    0.436525   -0.889497
    114          1           0      -11.117664   -1.928403   -2.175610
    115          1           0      -10.493250   -1.989039   -4.411195
    116          1           0       -9.739341   -0.380768   -4.357198
    117          1           0      -11.493340   -0.506054   -4.604220
    118          1           0      -13.055336   -0.038152   -3.111331
    119          1           0      -12.195895    0.803204   -1.886053
    120          1           0      -12.954777   -1.893858   -0.766808
    121          1           0      -14.135393   -1.381425   -1.901352
    122          1           0      -14.882255   -0.501238    0.188741
    123          1           0      -14.290039    0.756078   -0.650636
    124          1           0      -11.921580   -0.277473    0.715253
    125          1           0      -14.211164    0.158804    2.655418
    126          1           0      -12.506817    0.156592    3.108148
    127          1           0      -13.357193   -1.346169    2.482729
    128          1           0      -13.623756    2.140279    1.486466
    129          1           0      -12.759976    2.124316   -0.017975
    130          1           0      -10.780606    2.596117    0.805178
    131          1           0      -10.771027    1.516920    1.947483
    132          1           0      -12.630195    4.012097    2.438039
    133          1           0      -10.946132    4.313309    2.375088
    134          1           0      -10.981376    1.968853    3.971713
    135          1           0      -12.799776    1.645728    5.097137
    136          1           0      -13.756097    2.542646    4.170007
    137          1           0      -13.058187    3.293761    5.605525
    138          1           0      -11.180323    4.608581    5.462155
    139          1           0       -9.917432    4.382318    4.119254
    140          1           0       -9.915296    3.449973    5.500668
 ---------------------------------------------------------------------

 SCF Done:  E(RB-LYP) =  -3007.35826284     A.U. after   21 cycles

 Excitation energies and oscillator strengths:

 Excited State   1:      Singlet-A      1.7851 eV  694.56 nm  f=0.2990  <S**2>=0.000
     245 -> 248        0.18360
     246 -> 247        0.68736
     246 <- 247       -0.14953
 This state for optimization and/or second-order correction.
 Total Energy, E(TD-HF/TD-DFT) =  -3007.29266271
 Copying the excited state density for this state as the 1-particle RhoCI density.

 Excited State   2:      Singlet-A      1.9557 eV  633.97 nm  f=0.0151  <S**2>=0.000
     244 -> 247        0.63236
     245 -> 247       -0.29478

 Excited State   3:      Singlet-A      2.0464 eV  605.86 nm  f=0.0541  <S**2>=0.000
     244 -> 247        0.30971
     245 -> 247        0.56816
     246 -> 248       -0.24663

 Excited State   4:      Singlet-A      2.2872 eV  542.09 nm  f=0.0004  <S**2>=0.000
     243 -> 247        0.70280

 Excited State   5:      Singlet-A      2.4900 eV  497.92 nm  f=0.0000  <S**2>=0.000
     242 -> 247        0.70654

 The electronic state is 1-A.
 Alpha  occ. eigenvalues --  -46.26619 -18.82562 -18.81989 -18.78474 -18.76942
 Alpha  occ. eigenvalues --  -18.76531 -18.74843 -14.02644 -14.02427 -14.01103
 Alpha  occ. eigenvalues --  -14.00224 -10.05160 -10.04170 -10.00389  -9.99067
 Alpha  occ. eigenvalues --   -9.98332  -9.97277  -9.96244  -9.96193  -9.96191
 Alpha  occ. eigenvalues --   -9.95785  -9.95488  -9.95378  -9.95197  -9.94793
 Alpha  occ. eigenvalues --   -9.94339  -9.94055  -9.93989  -9.93641  -9.93489
 Alpha  occ. eigenvalues --   -9.93386  -9.93378  -9.93338  -9.93275  -9.93024
 Alpha  occ. eigenvalues --   -9.92969  -9.92944  -9.92880  -9.92676  -9.92667
 Alpha  occ. eigenvalues --   -9.92526  -9.92516  -9.92418  -9.92348  -9.92310
 Alpha  occ. eigenvalues --   -9.92255  -9.92225  -9.92055  -9.92048  -9.91989
 Alpha  occ. eigenvalues --   -9.91909  -9.91677  -9.91666  -9.91582  -9.91564
 Alpha  occ. eigenvalues --   -9.91336  -9.91264  -9.91185  -9.91111  -9.91022
 Alpha  occ. eigenvalues --   -9.90929  -9.90882  -9.90743  -9.90742  -9.90694
 Alpha  occ. eigenvalues --   -9.90643  -2.91288  -1.71720  -1.71157  -1.71019
 Alpha  occ. eigenvalues --   -0.98173  -0.95668  -0.92060  -0.90975  -0.90912
 Alpha  occ. eigenvalues --   -0.87965  -0.86462  -0.85911  -0.85206  -0.84231
 Alpha  occ. eigenvalues --   -0.74746  -0.74288  -0.72996  -0.72396  -0.71674
 Alpha  occ. eigenvalues --   -0.71566  -0.71388  -0.71072  -0.70700  -0.70388
 Alpha  occ. eigenvalues --   -0.69614  -0.69221  -0.68250  -0.67350  -0.66945
 Alpha  occ. eigenvalues --   -0.66292  -0.65753  -0.65438  -0.64689  -0.64512
 Alpha  occ. eigenvalues --   -0.64319  -0.62378  -0.62083  -0.61595  -0.60965
 Alpha  occ. eigenvalues --   -0.60556  -0.60229  -0.59785  -0.59634  -0.58960
 Alpha  occ. eigenvalues --   -0.58131  -0.57557  -0.56654  -0.55606  -0.54538
 Alpha  occ. eigenvalues --   -0.54098  -0.53931  -0.52704  -0.52380  -0.51728
 Alpha  occ. eigenvalues --   -0.51195  -0.50817  -0.50381  -0.50166  -0.50139
 Alpha  occ. eigenvalues --   -0.50045  -0.49713  -0.49308  -0.47997  -0.46442
 Alpha  occ. eigenvalues --   -0.46018  -0.45739  -0.45358  -0.44637  -0.44096
 Alpha  occ. eigenvalues --   -0.43933  -0.43437  -0.43014  -0.42903  -0.42202
 Alpha  occ. eigenvalues --   -0.42025  -0.41727  -0.41434  -0.41288  -0.41120
 Alpha  occ. eigenvalues --   -0.40889  -0.40407  -0.40256  -0.39935  -0.39887
 Alpha  occ. eigenvalues --   -0.39748  -0.39708  -0.39654  -0.39414  -0.39359
 Alpha  occ. eigenvalues --   -0.39083  -0.38663  -0.38368  -0.38218  -0.38134
 Alpha  occ. eigenvalues --   -0.38028  -0.37965  -0.37703  -0.37390  -0.36994
 Alpha  occ. eigenvalues --   -0.36842  -0.36755  -0.36648  -0.36335  -0.36273
 Alpha  occ. eigenvalues --   -0.36177  -0.35992  -0.35922  -0.35865  -0.35825
 Alpha  occ. eigenvalues --   -0.35264  -0.35192  -0.34931  -0.34718  -0.34689
 Alpha  occ. eigenvalues --   -0.34537  -0.34490  -0.34385  -0.34026  -0.33651
 Alpha  occ. eigenvalues --   -0.33631  -0.33569  -0.33228  -0.32974  -0.32831
 Alpha  occ. eigenvalues --   -0.32667  -0.32534  -0.32419  -0.32387  -0.32156
 Alpha  occ. eigenvalues --   -0.32015  -0.31909  -0.31828  -0.31673  -0.31423
 Alpha  occ. eigenvalues --   -0.31349  -0.31080  -0.31039  -0.30942  -0.30695
 Alpha  occ. eigenvalues --   -0.30512  -0.30230  -0.29988  -0.29915  -0.29815
 Alpha  occ. eigenvalues --   -0.29635  -0.29473  -0.29371  -0.29272  -0.28994
 Alpha  occ. eigenvalues --   -0.28700  -0.28278  -0.27994  -0.27932  -0.27761
 Alpha  occ. eigenvalues --   -0.27574  -0.27474  -0.27386  -0.26805  -0.26515
 Alpha  occ. eigenvalues --   -0.26358  -0.26137  -0.25954  -0.25870  -0.24962
 Alpha  occ. eigenvalues --   -0.24711  -0.24587  -0.24211  -0.23582  -0.23244
 Alpha  occ. eigenvalues --   -0.23131  -0.22569  -0.21942  -0.21820  -0.20827
 Alpha  occ. eigenvalues --   -0.20315  -0.20147  -0.19258  -0.18172  -0.16980
 Alpha  occ. eigenvalues --   -0.15213
 Alpha virt. eigenvalues --   -0.10997  -0.06913  -0.05978  -0.04428  -0.03998
 Alpha virt. eigenvalues --   -0.03539  -0.02498  -0.01304  -0.00625   0.00591
 Alpha virt. eigenvalues --    0.01225   0.01705   0.02203   0.02746   0.02861

 Mulliken charges:
               1
     1  Mg   0.697555
     2  C    0.070380
     3  C   -0.085210
     4  C   -0.002171
     5  C   -0.094403
     6  N   -0.207256
     7  C   -0.147500
     8  C    0.113138
     9  C   -0.012689
    10  C    0.027001
    11  C    0.144121
    12  C    0.097653
    13  C    0.074076
    14  C    0.105339
    15  O   -0.184700
    16  O   -0.285704
    17  N   -0.362703
    18  C    0.158095
    19  C   -0.151070
    20  C    0.034072
    21  C    0.099893
    22  C    0.180425
    23  C   -0.082150
    24  O   -0.172308
    25  C    0.127355
    26  N   -0.190502
    27  C   -0.074597
    28  C    0.084803
    29  C    0.038056
    30  C   -0.051996
    31  C    0.127930
    32  C    0.115307
    33  C    0.067413
    34  N   -0.214744
    35  C    0.147753
    36  C   -0.196507
    37  C    0.152005
    38  C    0.027907
    39  C    0.160573
    40  C   -0.054750
    41  O   -0.110241
    42  C    0.007566
    43  C    0.182748
    44  O   -0.206184
    45  O   -0.302328
    46  C    0.205535
    47  C    0.308694
    48  C   -0.098341
    49  C   -0.172137
    50  C    0.161295
    51  C    0.143330
    52  C    0.034476
    53  C    0.057524
    54  C   -0.070267
    55  C    0.110294
    56  C    0.081463
    57  C    0.057039
    58  C    0.100164
    59  C   -0.057769
    60  C    0.127373
    61  C    0.074025
    62  C    0.053228
    63  C    0.130907
    64  C   -0.078029
    65  C    0.074065
    66  C    0.120936
    67  H   -0.070726
    68  H   -0.040956
    69  H   -0.056961
    70  H    0.001952
    71  H   -0.036181
    72  H    0.010167
    73  H    0.008447
    74  H   -0.022088
    75  H   -0.027000
    76  H   -0.016847
    77  H   -0.002031
    78  H    0.009046
    79  H    0.010073
    80  H   -0.008369
    81  H   -0.000382
    82  H   -0.005698
    83  H   -0.014086
    84  H    0.014337
    85  H   -0.019985
    86  H   -0.026367
    87  H   -0.019465
    88  H    0.000208
    89  H    0.011758
    90  H   -0.016649
    91  H   -0.023173
    92  H   -0.002311
    93  H   -0.017710
    94  H   -0.005918
    95  H   -0.037427
    96  H    0.015185
    97  H    0.004636
    98  H    0.017221
    99  H    0.013270
   100  H    0.028124
   101  H    0.010104
   102  H   -0.002571
   103  H    0.002377
   104  H   -0.039057
   105  H   -0.011033
   106  H   -0.001244
   107  H    0.005077
   108  H    0.006764
   109  H   -0.025389
   110  H   -0.030529
   111  H   -0.020400
   112  H   -0.036051
   113  H   -0.014242
   114  H   -0.025938
   115  H   -0.007515
   116  H   -0.006314
   117  H   -0.016898
   118  H   -0.035818
   119  H   -0.025545
   120  H   -0.023548
   121  H   -0.040045
   122  H   -0.055650
   123  H   -0.047343
   124  H   -0.030766
   125  H   -0.020973
   126  H   -0.010828
   127  H   -0.015620
   128  H   -0.033188
   129  H   -0.027550
   130  H   -0.044868
   131  H   -0.041553
   132  H   -0.026344
   133  H   -0.045664
   134  H   -0.019392
   135  H   -0.028655
   136  H   -0.022205
   137  H   -0.017510
   138  H   -0.005034
   139  H   -0.025449
   140  H   -0.032943
 Sum of Mulliken charges =  -0.00000

 Dipole moment (field-independent basis, Debye):
    X=             -4.2936    Y=              2.1873    Z=              1.2376  Tot=              4.9750
 Quadrupole moment (field-independent basis, Debye-Ang):
   XX=           -375.4713   YY=           -430.3871   ZZ=           -405.2425
   XY=             -1.3122   XZ=             23.3508   YZ=             -2.4474

 Normal termination of Gaussian 16 at Wed Apr 27 20:04:49 2022.
