 Gaussian 16, Revision A.03,
 Gaussian 16:  ES64L-G16RevA.03 25-Dec-2016

 -----------------------------------
 #p cam-b3lyp/Def2SVP td=(nstates=5)
 -----------------------------------

 -------------------------------------------------------
 step_1251_chromophore_7 TDDFT with cam-b3lyp functional
 -------------------------------------------------------
 Symbolic Z-matrix:
 Charge =  0 Multiplicity = 1

                         Standard orientation:
 ---------------------------------------------------------------------
 Center     Atomic      Atomic             Coordinates (Angstroms)
 Number     Number       Type             X           Y           Z
 ---------------------------------------------------------------------
      1         12           0        5.927580    0.531452    0.027261
      2          6           0        3.657560   -2.170877    0.177099
      3          6           0        3.520206    2.399045   -1.506886
      4          6           0        8.204869    2.872767   -0.001877
      5          6           0        8.404138   -1.870240    1.117930
      6          7           0        3.848265    0.121095   -0.517272
      7          6           0        3.114036   -0.987272   -0.283710
      8          6           0        1.613144   -0.710080   -0.594023
      9          6           0        1.705202    0.638962   -1.277570
     10          6           0        3.141839    1.127540   -1.106481
     11          6           0        1.435276    0.600411   -2.762869
     12          6           0        0.743478   -0.935995    0.680595
     13          6           0       -0.665007   -1.632705    0.638632
     14          6           0       -1.518930   -1.479509   -0.619226
     15          8           0       -1.210705   -1.557168   -1.798307
     16          8           0       -2.808475   -1.341003   -0.135783
     17          7           0        5.867537    2.324806   -0.708416
     18          6           0        4.809612    2.988155   -1.271125
     19          6           0        5.152588    4.335791   -1.649701
     20          6           0        6.484836    4.541807   -1.152608
     21          6           0        6.950731    3.207675   -0.644087
     22          6           0        4.212527    5.232095   -2.358628
     23          6           0        7.347740    5.788226   -1.185894
     24          8           0        8.516898    5.836468   -0.812183
     25          6           0        6.801139    7.046104   -1.687631
     26          7           0        8.071944    0.463505    0.542342
     27          6           0        8.726108    1.707705    0.554659
     28          6           0       10.107293    1.552752    1.161877
     29          6           0       10.112157    0.047202    1.502091
     30          6           0        8.784878   -0.487299    1.091617
     31          6           0       11.212890    2.095556    0.121883
     32          6           0       10.538186   -0.328143    3.009657
     33          6           0       11.865178   -1.076794    3.151310
     34          7           0        6.062835   -1.593511    0.658798
     35          6           0        7.119876   -2.364799    1.057746
     36          6           0        6.572783   -3.687557    1.420067
     37          6           0        5.290171   -3.730461    1.047199
     38          6           0        4.968682   -2.410192    0.606801
     39          6           0        7.381458   -4.844940    2.019069
     40          6           0        4.079569   -4.531031    0.967270
     41          8           0        3.969739   -5.696840    1.302807
     42          6           0        2.916213   -3.558088    0.411474
     43          6           0        2.301019   -4.092276   -0.827684
     44          8           0        2.521023   -3.774888   -2.022824
     45          8           0        1.151878   -4.775780   -0.414156
     46          6           0        0.108088   -4.954452   -1.504489
     47          6           0       -3.887800   -1.470443   -1.137643
     48          6           0       -5.199190   -0.981959   -0.637948
     49          6           0       -6.378891   -0.937523   -1.293749
     50          6           0       -6.426255   -0.984991   -2.742056
     51          6           0       -7.660084   -0.559226   -0.530678
     52          6           0       -8.993894   -1.265826   -0.985406
     53          6           0       -9.893581   -0.212394   -1.649370
     54          6           0      -10.997793   -0.913491   -2.553185
     55          6           0      -10.633276   -0.952840   -4.104535
     56          6           0      -12.400183   -0.201885   -2.255433
     57          6           0      -13.336455   -1.002426   -1.264844
     58          6           0      -13.914088   -0.143200   -0.161961
     59          6           0      -12.868387    0.177645    1.005553
     60          6           0      -13.236216   -0.264439    2.415618
     61          6           0      -12.747742    1.719226    0.993972
     62          6           0      -11.453176    2.297394    1.608979
     63          6           0      -11.666932    3.515579    2.553399
     64          6           0      -11.443291    2.955586    4.012031
     65          6           0      -12.835253    2.674193    4.737119
     66          6           0      -10.618227    3.929438    4.820633
     67          1           0        2.752338    2.971227   -2.031983
     68          1           0        8.827117    3.748040    0.195715
     69          1           0        9.266005   -2.518554    1.287205
     70          1           0        1.338285   -1.506163   -1.285009
     71          1           0        1.118799    1.408690   -0.776254
     72          1           0        0.758219   -0.231876   -2.954198
     73          1           0        2.392380    0.605077   -3.286733
     74          1           0        0.842496    1.489482   -2.979694
     75          1           0        0.375356   -0.007897    1.116138
     76          1           0        1.220813   -1.430432    1.527003
     77          1           0       -1.231473   -1.379999    1.534377
     78          1           0       -0.498892   -2.706230    0.715079
     79          1           0        3.994794    5.997904   -1.614156
     80          1           0        3.316361    4.762603   -2.763775
     81          1           0        4.678225    5.697115   -3.227696
     82          1           0        6.424751    6.862618   -2.693742
     83          1           0        7.666016    7.706714   -1.756910
     84          1           0        6.066932    7.584629   -1.088835
     85          1           0       10.004298    2.108266    2.093699
     86          1           0       10.734746   -0.437717    0.750826
     87          1           0       12.046969    1.413831   -0.047324
     88          1           0       11.747678    2.964802    0.502691
     89          1           0       10.763922    2.244299   -0.860305
     90          1           0        9.746048   -0.987397    3.364979
     91          1           0       10.494437    0.623871    3.538519
     92          1           0       12.539111   -0.700193    3.920140
     93          1           0       12.393862   -0.985843    2.202368
     94          1           0       11.728898   -2.153999    3.247599
     95          1           0        8.402336   -4.570808    2.284022
     96          1           0        7.528726   -5.729034    1.398900
     97          1           0        6.920878   -5.082536    2.979072
     98          1           0        2.190282   -3.524729    1.224146
     99          1           0        0.339337   -5.829958   -2.111451
    100          1           0        0.064163   -4.102635   -2.183005
    101          1           0       -0.931377   -5.070968   -1.196693
    102          1           0       -3.933837   -2.549308   -1.282856
    103          1           0       -3.603369   -1.025595   -2.091801
    104          1           0       -5.232376   -0.860843    0.444121
    105          1           0       -7.382550   -0.679630   -3.165922
    106          1           0       -6.210732   -1.993598   -3.092500
    107          1           0       -5.628620   -0.325695   -3.085180
    108          1           0       -7.768659    0.524409   -0.561925
    109          1           0       -7.598819   -1.017183    0.456167
    110          1           0       -9.477054   -1.604075   -0.068659
    111          1           0       -9.024193   -2.150959   -1.621159
    112          1           0       -9.221363    0.426735   -2.221782
    113          1           0      -10.327832    0.436525   -0.889497
    114          1           0      -11.117664   -1.928403   -2.175610
    115          1           0      -10.493250   -1.989039   -4.411195
    116          1           0       -9.739341   -0.380768   -4.357198
    117          1           0      -11.493340   -0.506054   -4.604220
    118          1           0      -13.055336   -0.038152   -3.111331
    119          1           0      -12.195895    0.803204   -1.886053
    120          1           0      -12.954777   -1.893858   -0.766808
    121          1           0      -14.135393   -1.381425   -1.901352
    122          1           0      -14.882255   -0.501238    0.188741
    123          1           0      -14.290039    0.756078   -0.650636
    124          1           0      -11.921580   -0.277473    0.715253
    125          1           0      -14.211164    0.158804    2.655418
    126          1           0      -12.506817    0.156592    3.108148
    127          1           0      -13.357193   -1.346169    2.482729
    128          1           0      -13.623756    2.140279    1.486466
    129          1           0      -12.759976    2.124316   -0.017975
    130          1           0      -10.780606    2.596117    0.805178
    131          1           0      -10.771027    1.516920    1.947483
    132          1           0      -12.630195    4.012097    2.438039
    133          1           0      -10.946132    4.313309    2.375088
    134          1           0      -10.981376    1.968853    3.971713
    135          1           0      -12.799776    1.645728    5.097137
    136          1           0      -13.756097    2.542646    4.170007
    137          1           0      -13.058187    3.293761    5.605525
    138          1           0      -11.180323    4.608581    5.462155
    139          1           0       -9.917432    4.382318    4.119254
    140          1           0       -9.915296    3.449973    5.500668
 ---------------------------------------------------------------------

 SCF Done:  E(RCAM-B3LYP) =  -3007.14864809     A.U. after   18 cycles

 Excitation energies and oscillator strengths:

 Excited State   1:      Singlet-A      1.7538 eV  706.93 nm  f=0.3910  <S**2>=0.000
     245 -> 248       -0.16817
     246 -> 247        0.68634
 This state for optimization and/or second-order correction.
 Total Energy, E(TD-HF/TD-DFT) =  -3007.08419567
 Copying the excited state density for this state as the 1-particle RhoCI density.

 Excited State   2:      Singlet-A      2.2905 eV  541.29 nm  f=0.0747  <S**2>=0.000
     245 -> 247        0.61502
     246 -> 248        0.33172

 Excited State   3:      Singlet-A      3.3670 eV  368.24 nm  f=0.5787  <S**2>=0.000
     241 -> 247       -0.21185
     245 -> 247       -0.29630
     246 -> 248        0.58816

 Excited State   4:      Singlet-A      3.5756 eV  346.75 nm  f=0.0041  <S**2>=0.000
     239 -> 247        0.43759
     239 -> 249       -0.28805
     239 -> 251        0.10679
     240 -> 247        0.36104
     240 -> 249       -0.21178

 Excited State   5:      Singlet-A      3.6230 eV  342.21 nm  f=0.0393  <S**2>=0.000
     240 -> 247        0.11359
     241 -> 247       -0.35691
     244 -> 247        0.53629
     246 -> 248       -0.13233

 The electronic state is 1-A.
 Alpha  occ. eigenvalues --  -46.88097 -19.25481 -19.25216 -19.21562 -19.20397
 Alpha  occ. eigenvalues --  -19.20384 -19.17559 -14.41314 -14.41298 -14.39237
 Alpha  occ. eigenvalues --  -14.38855 -10.40636 -10.40097 -10.36352 -10.33746
 Alpha  occ. eigenvalues --  -10.32423 -10.31569 -10.31162 -10.30965 -10.30290
 Alpha  occ. eigenvalues --  -10.29944 -10.29755 -10.29635 -10.29408 -10.29328
 Alpha  occ. eigenvalues --  -10.28808 -10.28685 -10.28099 -10.27823 -10.27705
 Alpha  occ. eigenvalues --  -10.27588 -10.27468 -10.27365 -10.27101 -10.27046
 Alpha  occ. eigenvalues --  -10.26917 -10.26899 -10.26745 -10.26449 -10.26354
 Alpha  occ. eigenvalues --  -10.26343 -10.26292 -10.26184 -10.26091 -10.26057
 Alpha  occ. eigenvalues --  -10.25988 -10.25946 -10.25900 -10.25882 -10.25729
 Alpha  occ. eigenvalues --  -10.25641 -10.25615 -10.25515 -10.25348 -10.25325
 Alpha  occ. eigenvalues --  -10.25308 -10.25005 -10.24949 -10.24798 -10.24725
 Alpha  occ. eigenvalues --  -10.24701 -10.24624 -10.24581 -10.24327 -10.24207
 Alpha  occ. eigenvalues --  -10.24175  -3.16673  -1.91579  -1.91109  -1.91001
 Alpha  occ. eigenvalues --   -1.16710  -1.14439  -1.11080  -1.08898  -1.08847
 Alpha  occ. eigenvalues --   -1.06118  -1.04379  -1.03621  -1.03012  -1.01191
 Alpha  occ. eigenvalues --   -0.92196  -0.91227  -0.89823  -0.89168  -0.88333
 Alpha  occ. eigenvalues --   -0.88191  -0.87905  -0.87772  -0.87266  -0.86691
 Alpha  occ. eigenvalues --   -0.86341  -0.85544  -0.84521  -0.83739  -0.82989
 Alpha  occ. eigenvalues --   -0.82340  -0.81697  -0.81308  -0.80660  -0.80343
 Alpha  occ. eigenvalues --   -0.80160  -0.78179  -0.77488  -0.76982  -0.76416
 Alpha  occ. eigenvalues --   -0.76139  -0.75586  -0.75010  -0.74910  -0.74199
 Alpha  occ. eigenvalues --   -0.73189  -0.72748  -0.71435  -0.70433  -0.69228
 Alpha  occ. eigenvalues --   -0.68887  -0.68555  -0.66962  -0.66681  -0.65889
 Alpha  occ. eigenvalues --   -0.65311  -0.64973  -0.64275  -0.64197  -0.64122
 Alpha  occ. eigenvalues --   -0.64076  -0.63625  -0.63263  -0.61970  -0.60031
 Alpha  occ. eigenvalues --   -0.59641  -0.59206  -0.58730  -0.58166  -0.57701
 Alpha  occ. eigenvalues --   -0.57418  -0.56901  -0.56179  -0.56107  -0.55533
 Alpha  occ. eigenvalues --   -0.55054  -0.54934  -0.54507  -0.54110  -0.53927
 Alpha  occ. eigenvalues --   -0.53819  -0.53534  -0.53075  -0.52829  -0.52460
 Alpha  occ. eigenvalues --   -0.52270  -0.52224  -0.52175  -0.51951  -0.51912
 Alpha  occ. eigenvalues --   -0.51739  -0.51376  -0.51220  -0.51080  -0.50647
 Alpha  occ. eigenvalues --   -0.50377  -0.50194  -0.49984  -0.49656  -0.49547
 Alpha  occ. eigenvalues --   -0.49265  -0.49040  -0.49008  -0.48904  -0.48468
 Alpha  occ. eigenvalues --   -0.48344  -0.48267  -0.47959  -0.47845  -0.47720
 Alpha  occ. eigenvalues --   -0.47340  -0.47033  -0.46967  -0.46719  -0.46629
 Alpha  occ. eigenvalues --   -0.46494  -0.46475  -0.46224  -0.45870  -0.45329
 Alpha  occ. eigenvalues --   -0.45294  -0.45243  -0.45135  -0.44807  -0.44719
 Alpha  occ. eigenvalues --   -0.44466  -0.44369  -0.44249  -0.44072  -0.43855
 Alpha  occ. eigenvalues --   -0.43714  -0.43470  -0.43329  -0.43154  -0.43049
 Alpha  occ. eigenvalues --   -0.42755  -0.42690  -0.42449  -0.42318  -0.42101
 Alpha  occ. eigenvalues --   -0.41929  -0.41761  -0.41503  -0.41175  -0.41077
 Alpha  occ. eigenvalues --   -0.40915  -0.40733  -0.40600  -0.40486  -0.40037
 Alpha  occ. eigenvalues --   -0.40007  -0.39196  -0.39038  -0.38785  -0.38637
 Alpha  occ. eigenvalues --   -0.38516  -0.38353  -0.38303  -0.37781  -0.37631
 Alpha  occ. eigenvalues --   -0.37577  -0.37246  -0.36562  -0.36548  -0.36444
 Alpha  occ. eigenvalues --   -0.35744  -0.35503  -0.35160  -0.34659  -0.34616
 Alpha  occ. eigenvalues --   -0.33650  -0.33630  -0.32727  -0.31705  -0.31489
 Alpha  occ. eigenvalues --   -0.30180  -0.30145  -0.29768  -0.29163  -0.23895
 Alpha  occ. eigenvalues --   -0.20385
 Alpha virt. eigenvalues --   -0.07909  -0.01533   0.00402   0.02544   0.03175
 Alpha virt. eigenvalues --    0.03713   0.04194   0.04877   0.06072   0.07358
 Alpha virt. eigenvalues --    0.07891   0.08284   0.08929   0.08975   0.09191

 Mulliken charges:
               1
     1  Mg   0.831456
     2  C    0.028170
     3  C   -0.090493
     4  C   -0.022122
     5  C   -0.104860
     6  N   -0.284520
     7  C   -0.084888
     8  C    0.054552
     9  C   -0.067671
    10  C    0.039138
    11  C    0.083597
    12  C    0.045911
    13  C    0.011142
    14  C    0.186757
    15  O   -0.227651
    16  O   -0.351502
    17  N   -0.451573
    18  C    0.160282
    19  C   -0.161515
    20  C   -0.038133
    21  C    0.119991
    22  C    0.121598
    23  C   -0.001428
    24  O   -0.217480
    25  C    0.043598
    26  N   -0.260466
    27  C   -0.055605
    28  C    0.026831
    29  C   -0.028333
    30  C   -0.014866
    31  C    0.067812
    32  C    0.056857
    33  C    0.005845
    34  N   -0.303068
    35  C    0.158602
    36  C   -0.194396
    37  C    0.080277
    38  C    0.071787
    39  C    0.113875
    40  C    0.046633
    41  O   -0.144325
    42  C   -0.064062
    43  C    0.270509
    44  O   -0.240719
    45  O   -0.366352
    46  C    0.167121
    47  C    0.278827
    48  C   -0.122780
    49  C   -0.184179
    50  C    0.091199
    51  C    0.083174
    52  C   -0.018166
    53  C    0.015645
    54  C   -0.126071
    55  C    0.055278
    56  C    0.031041
    57  C    0.003984
    58  C    0.045421
    59  C   -0.113594
    60  C    0.077792
    61  C    0.022751
    62  C   -0.004080
    63  C    0.073587
    64  C   -0.136615
    65  C    0.017346
    66  C    0.060015
    67  H   -0.036248
    68  H   -0.000493
    69  H   -0.020562
    70  H    0.035070
    71  H   -0.000133
    72  H    0.033741
    73  H    0.035246
    74  H    0.002409
    75  H    0.005176
    76  H    0.013236
    77  H    0.034696
    78  H    0.035617
    79  H    0.032354
    80  H    0.017153
    81  H    0.022394
    82  H    0.020056
    83  H    0.020708
    84  H    0.041924
    85  H    0.014553
    86  H    0.008617
    87  H    0.003503
    88  H    0.024576
    89  H    0.038503
    90  H    0.013072
    91  H    0.007158
    92  H    0.023079
    93  H    0.005436
    94  H    0.015750
    95  H   -0.008583
    96  H    0.043948
    97  H    0.033367
    98  H    0.058247
    99  H    0.038116
   100  H    0.052523
   101  H    0.032776
   102  H    0.023972
   103  H    0.031457
   104  H   -0.003660
   105  H    0.010412
   106  H    0.024486
   107  H    0.030415
   108  H    0.034808
   109  H    0.005566
   110  H   -0.002673
   111  H    0.007612
   112  H   -0.010098
   113  H    0.006125
   114  H    0.004663
   115  H    0.015519
   116  H    0.014420
   117  H    0.007507
   118  H   -0.006054
   119  H   -0.000532
   120  H    0.001625
   121  H   -0.009171
   122  H   -0.023518
   123  H   -0.017263
   124  H   -0.004867
   125  H    0.000704
   126  H    0.007616
   127  H    0.009483
   128  H   -0.006470
   129  H    0.001141
   130  H   -0.015449
   131  H   -0.013306
   132  H    0.002871
   133  H   -0.014179
   134  H    0.010472
   135  H   -0.006008
   136  H    0.000273
   137  H    0.007491
   138  H    0.018301
   139  H   -0.000812
   140  H   -0.006757
 Sum of Mulliken charges =  -0.00000

 Dipole moment (field-independent basis, Debye):
    X=             -4.4537    Y=              1.0896    Z=              1.7221  Tot=              4.8978
 Quadrupole moment (field-independent basis, Debye-Ang):
   XX=           -372.8004   YY=           -427.5080   ZZ=           -404.8516
   XY=             -8.0029   XZ=             26.7872   YZ=             -3.4022

 Normal termination of Gaussian 16 at Wed Apr 27 19:04:10 2022.
