 Gaussian 16, Revision A.03,
 Gaussian 16:  ES64L-G16RevA.03 25-Dec-2016

 ---------------------------------
 #p PBE1PBE/Def2SVP td=(nstates=5)
 ---------------------------------

 -----------------------------------------------------
 step_1251_chromophore_7 TDDFT with PBE1PBE functional
 -----------------------------------------------------
 Symbolic Z-matrix:
 Charge =  0 Multiplicity = 1

                         Standard orientation:
 ---------------------------------------------------------------------
 Center     Atomic      Atomic             Coordinates (Angstroms)
 Number     Number       Type             X           Y           Z
 ---------------------------------------------------------------------
      1         12           0        5.927580    0.531452    0.027261
      2          6           0        3.657560   -2.170877    0.177099
      3          6           0        3.520206    2.399045   -1.506886
      4          6           0        8.204869    2.872767   -0.001877
      5          6           0        8.404138   -1.870240    1.117930
      6          7           0        3.848265    0.121095   -0.517272
      7          6           0        3.114036   -0.987272   -0.283710
      8          6           0        1.613144   -0.710080   -0.594023
      9          6           0        1.705202    0.638962   -1.277570
     10          6           0        3.141839    1.127540   -1.106481
     11          6           0        1.435276    0.600411   -2.762869
     12          6           0        0.743478   -0.935995    0.680595
     13          6           0       -0.665007   -1.632705    0.638632
     14          6           0       -1.518930   -1.479509   -0.619226
     15          8           0       -1.210705   -1.557168   -1.798307
     16          8           0       -2.808475   -1.341003   -0.135783
     17          7           0        5.867537    2.324806   -0.708416
     18          6           0        4.809612    2.988155   -1.271125
     19          6           0        5.152588    4.335791   -1.649701
     20          6           0        6.484836    4.541807   -1.152608
     21          6           0        6.950731    3.207675   -0.644087
     22          6           0        4.212527    5.232095   -2.358628
     23          6           0        7.347740    5.788226   -1.185894
     24          8           0        8.516898    5.836468   -0.812183
     25          6           0        6.801139    7.046104   -1.687631
     26          7           0        8.071944    0.463505    0.542342
     27          6           0        8.726108    1.707705    0.554659
     28          6           0       10.107293    1.552752    1.161877
     29          6           0       10.112157    0.047202    1.502091
     30          6           0        8.784878   -0.487299    1.091617
     31          6           0       11.212890    2.095556    0.121883
     32          6           0       10.538186   -0.328143    3.009657
     33          6           0       11.865178   -1.076794    3.151310
     34          7           0        6.062835   -1.593511    0.658798
     35          6           0        7.119876   -2.364799    1.057746
     36          6           0        6.572783   -3.687557    1.420067
     37          6           0        5.290171   -3.730461    1.047199
     38          6           0        4.968682   -2.410192    0.606801
     39          6           0        7.381458   -4.844940    2.019069
     40          6           0        4.079569   -4.531031    0.967270
     41          8           0        3.969739   -5.696840    1.302807
     42          6           0        2.916213   -3.558088    0.411474
     43          6           0        2.301019   -4.092276   -0.827684
     44          8           0        2.521023   -3.774888   -2.022824
     45          8           0        1.151878   -4.775780   -0.414156
     46          6           0        0.108088   -4.954452   -1.504489
     47          6           0       -3.887800   -1.470443   -1.137643
     48          6           0       -5.199190   -0.981959   -0.637948
     49          6           0       -6.378891   -0.937523   -1.293749
     50          6           0       -6.426255   -0.984991   -2.742056
     51          6           0       -7.660084   -0.559226   -0.530678
     52          6           0       -8.993894   -1.265826   -0.985406
     53          6           0       -9.893581   -0.212394   -1.649370
     54          6           0      -10.997793   -0.913491   -2.553185
     55          6           0      -10.633276   -0.952840   -4.104535
     56          6           0      -12.400183   -0.201885   -2.255433
     57          6           0      -13.336455   -1.002426   -1.264844
     58          6           0      -13.914088   -0.143200   -0.161961
     59          6           0      -12.868387    0.177645    1.005553
     60          6           0      -13.236216   -0.264439    2.415618
     61          6           0      -12.747742    1.719226    0.993972
     62          6           0      -11.453176    2.297394    1.608979
     63          6           0      -11.666932    3.515579    2.553399
     64          6           0      -11.443291    2.955586    4.012031
     65          6           0      -12.835253    2.674193    4.737119
     66          6           0      -10.618227    3.929438    4.820633
     67          1           0        2.752338    2.971227   -2.031983
     68          1           0        8.827117    3.748040    0.195715
     69          1           0        9.266005   -2.518554    1.287205
     70          1           0        1.338285   -1.506163   -1.285009
     71          1           0        1.118799    1.408690   -0.776254
     72          1           0        0.758219   -0.231876   -2.954198
     73          1           0        2.392380    0.605077   -3.286733
     74          1           0        0.842496    1.489482   -2.979694
     75          1           0        0.375356   -0.007897    1.116138
     76          1           0        1.220813   -1.430432    1.527003
     77          1           0       -1.231473   -1.379999    1.534377
     78          1           0       -0.498892   -2.706230    0.715079
     79          1           0        3.994794    5.997904   -1.614156
     80          1           0        3.316361    4.762603   -2.763775
     81          1           0        4.678225    5.697115   -3.227696
     82          1           0        6.424751    6.862618   -2.693742
     83          1           0        7.666016    7.706714   -1.756910
     84          1           0        6.066932    7.584629   -1.088835
     85          1           0       10.004298    2.108266    2.093699
     86          1           0       10.734746   -0.437717    0.750826
     87          1           0       12.046969    1.413831   -0.047324
     88          1           0       11.747678    2.964802    0.502691
     89          1           0       10.763922    2.244299   -0.860305
     90          1           0        9.746048   -0.987397    3.364979
     91          1           0       10.494437    0.623871    3.538519
     92          1           0       12.539111   -0.700193    3.920140
     93          1           0       12.393862   -0.985843    2.202368
     94          1           0       11.728898   -2.153999    3.247599
     95          1           0        8.402336   -4.570808    2.284022
     96          1           0        7.528726   -5.729034    1.398900
     97          1           0        6.920878   -5.082536    2.979072
     98          1           0        2.190282   -3.524729    1.224146
     99          1           0        0.339337   -5.829958   -2.111451
    100          1           0        0.064163   -4.102635   -2.183005
    101          1           0       -0.931377   -5.070968   -1.196693
    102          1           0       -3.933837   -2.549308   -1.282856
    103          1           0       -3.603369   -1.025595   -2.091801
    104          1           0       -5.232376   -0.860843    0.444121
    105          1           0       -7.382550   -0.679630   -3.165922
    106          1           0       -6.210732   -1.993598   -3.092500
    107          1           0       -5.628620   -0.325695   -3.085180
    108          1           0       -7.768659    0.524409   -0.561925
    109          1           0       -7.598819   -1.017183    0.456167
    110          1           0       -9.477054   -1.604075   -0.068659
    111          1           0       -9.024193   -2.150959   -1.621159
    112          1           0       -9.221363    0.426735   -2.221782
    113          1           0      -10.327832    0.436525   -0.889497
    114          1           0      -11.117664   -1.928403   -2.175610
    115          1           0      -10.493250   -1.989039   -4.411195
    116          1           0       -9.739341   -0.380768   -4.357198
    117          1           0      -11.493340   -0.506054   -4.604220
    118          1           0      -13.055336   -0.038152   -3.111331
    119          1           0      -12.195895    0.803204   -1.886053
    120          1           0      -12.954777   -1.893858   -0.766808
    121          1           0      -14.135393   -1.381425   -1.901352
    122          1           0      -14.882255   -0.501238    0.188741
    123          1           0      -14.290039    0.756078   -0.650636
    124          1           0      -11.921580   -0.277473    0.715253
    125          1           0      -14.211164    0.158804    2.655418
    126          1           0      -12.506817    0.156592    3.108148
    127          1           0      -13.357193   -1.346169    2.482729
    128          1           0      -13.623756    2.140279    1.486466
    129          1           0      -12.759976    2.124316   -0.017975
    130          1           0      -10.780606    2.596117    0.805178
    131          1           0      -10.771027    1.516920    1.947483
    132          1           0      -12.630195    4.012097    2.438039
    133          1           0      -10.946132    4.313309    2.375088
    134          1           0      -10.981376    1.968853    3.971713
    135          1           0      -12.799776    1.645728    5.097137
    136          1           0      -13.756097    2.542646    4.170007
    137          1           0      -13.058187    3.293761    5.605525
    138          1           0      -11.180323    4.608581    5.462155
    139          1           0       -9.917432    4.382318    4.119254
    140          1           0       -9.915296    3.449973    5.500668
 ---------------------------------------------------------------------

 SCF Done:  E(RPBE1PBE) =  -3005.33586618     A.U. after   15 cycles

 Excitation energies and oscillator strengths:

 Excited State   1:      Singlet-A      1.8524 eV  669.33 nm  f=0.3765  <S**2>=0.000
     245 -> 248        0.16642
     246 -> 247        0.69289
     246 <- 247       -0.10673
 This state for optimization and/or second-order correction.
 Total Energy, E(TD-HF/TD-DFT) =  -3005.26779328
 Copying the excited state density for this state as the 1-particle RhoCI density.

 Excited State   2:      Singlet-A      2.2733 eV  545.39 nm  f=0.0789  <S**2>=0.000
     245 -> 247        0.63354
     246 -> 248       -0.29768

 Excited State   3:      Singlet-A      3.1582 eV  392.57 nm  f=0.2070  <S**2>=0.000
     240 -> 247        0.15188
     241 -> 247        0.13203
     242 -> 247       -0.16017
     244 -> 247       -0.35592
     245 -> 247        0.19382
     246 -> 248        0.48039

 Excited State   4:      Singlet-A      3.1691 eV  391.23 nm  f=0.0927  <S**2>=0.000
     240 -> 247        0.16373
     241 -> 247        0.16662
     244 -> 247        0.56595
     245 -> 247        0.11765
     246 -> 248        0.27441

 Excited State   5:      Singlet-A      3.2263 eV  384.29 nm  f=0.0396  <S**2>=0.000
     240 -> 247        0.62250
     240 -> 249       -0.19503
     246 -> 248       -0.19507

 The electronic state is 1-A.
 Alpha  occ. eigenvalues --  -46.91519 -19.26159 -19.25723 -19.21757 -19.20464
 Alpha  occ. eigenvalues --  -19.20228 -19.18113 -14.40926 -14.40773 -14.39151
 Alpha  occ. eigenvalues --  -14.38368 -10.37592 -10.36935 -10.33176 -10.31180
 Alpha  occ. eigenvalues --  -10.29786 -10.28693 -10.28607 -10.28393 -10.28198
 Alpha  occ. eigenvalues --  -10.27821 -10.27541 -10.27452 -10.27083 -10.26936
 Alpha  occ. eigenvalues --  -10.26585 -10.25919 -10.25756 -10.25545 -10.25386
 Alpha  occ. eigenvalues --  -10.25307 -10.25270 -10.25209 -10.25137 -10.24710
 Alpha  occ. eigenvalues --  -10.24589 -10.24497 -10.24459 -10.24334 -10.24137
 Alpha  occ. eigenvalues --  -10.24080 -10.24016 -10.23972 -10.23761 -10.23754
 Alpha  occ. eigenvalues --  -10.23680 -10.23509 -10.23415 -10.23292 -10.23214
 Alpha  occ. eigenvalues --  -10.23163 -10.22971 -10.22953 -10.22887 -10.22762
 Alpha  occ. eigenvalues --  -10.22731 -10.22554 -10.22533 -10.22279 -10.22258
 Alpha  occ. eigenvalues --  -10.22199 -10.22158 -10.22153 -10.21779 -10.21744
 Alpha  occ. eigenvalues --  -10.21591  -3.13677  -1.86525  -1.86032  -1.85929
 Alpha  occ. eigenvalues --   -1.11454  -1.09002  -1.05485  -1.03889  -1.03713
 Alpha  occ. eigenvalues --   -1.00758  -0.98864  -0.98208  -0.97544  -0.96230
 Alpha  occ. eigenvalues --   -0.86319  -0.85352  -0.83880  -0.83364  -0.82556
 Alpha  occ. eigenvalues --   -0.82406  -0.82268  -0.82030  -0.81382  -0.81181
 Alpha  occ. eigenvalues --   -0.80544  -0.79870  -0.78698  -0.77933  -0.77297
 Alpha  occ. eigenvalues --   -0.76551  -0.76040  -0.75546  -0.74869  -0.74566
 Alpha  occ. eigenvalues --   -0.74434  -0.72398  -0.71936  -0.71371  -0.70566
 Alpha  occ. eigenvalues --   -0.70296  -0.69661  -0.69364  -0.69071  -0.68362
 Alpha  occ. eigenvalues --   -0.67531  -0.67045  -0.65975  -0.64709  -0.63479
 Alpha  occ. eigenvalues --   -0.63289  -0.62771  -0.61535  -0.60978  -0.60296
 Alpha  occ. eigenvalues --   -0.59827  -0.59186  -0.58882  -0.58738  -0.58364
 Alpha  occ. eigenvalues --   -0.58251  -0.58024  -0.57445  -0.56410  -0.54411
 Alpha  occ. eigenvalues --   -0.54159  -0.53833  -0.53382  -0.52643  -0.52089
 Alpha  occ. eigenvalues --   -0.51952  -0.51393  -0.50726  -0.50515  -0.49890
 Alpha  occ. eigenvalues --   -0.49613  -0.49497  -0.49025  -0.48569  -0.48445
 Alpha  occ. eigenvalues --   -0.48294  -0.47951  -0.47677  -0.47349  -0.46901
 Alpha  occ. eigenvalues --   -0.46859  -0.46786  -0.46688  -0.46547  -0.46416
 Alpha  occ. eigenvalues --   -0.46205  -0.45720  -0.45650  -0.45491  -0.45176
 Alpha  occ. eigenvalues --   -0.44924  -0.44724  -0.44518  -0.44310  -0.44253
 Alpha  occ. eigenvalues --   -0.43876  -0.43715  -0.43609  -0.43473  -0.43092
 Alpha  occ. eigenvalues --   -0.42978  -0.42914  -0.42767  -0.42557  -0.42347
 Alpha  occ. eigenvalues --   -0.42101  -0.41695  -0.41629  -0.41335  -0.41287
 Alpha  occ. eigenvalues --   -0.41231  -0.41085  -0.41018  -0.40736  -0.40217
 Alpha  occ. eigenvalues --   -0.39961  -0.39854  -0.39727  -0.39467  -0.39334
 Alpha  occ. eigenvalues --   -0.39197  -0.38997  -0.38833  -0.38725  -0.38702
 Alpha  occ. eigenvalues --   -0.38478  -0.38355  -0.37999  -0.37949  -0.37783
 Alpha  occ. eigenvalues --   -0.37497  -0.37384  -0.37307  -0.37073  -0.37001
 Alpha  occ. eigenvalues --   -0.36711  -0.36612  -0.36276  -0.36067  -0.35916
 Alpha  occ. eigenvalues --   -0.35871  -0.35697  -0.35471  -0.35336  -0.34928
 Alpha  occ. eigenvalues --   -0.34835  -0.34018  -0.33913  -0.33573  -0.33472
 Alpha  occ. eigenvalues --   -0.33415  -0.33319  -0.33112  -0.32687  -0.32612
 Alpha  occ. eigenvalues --   -0.32392  -0.32044  -0.31571  -0.31465  -0.31242
 Alpha  occ. eigenvalues --   -0.30799  -0.30470  -0.30031  -0.29580  -0.29204
 Alpha  occ. eigenvalues --   -0.28815  -0.28583  -0.28307  -0.27010  -0.26229
 Alpha  occ. eigenvalues --   -0.25810  -0.25339  -0.25038  -0.24945  -0.20734
 Alpha  occ. eigenvalues --   -0.18060
 Alpha virt. eigenvalues --   -0.10506  -0.05172  -0.03727  -0.01752  -0.01276
 Alpha virt. eigenvalues --   -0.00333   0.00497   0.00958   0.02237   0.03487
 Alpha virt. eigenvalues --    0.03945   0.04570   0.05327   0.05667   0.05760

 Mulliken charges:
               1
     1  Mg   0.983461
     2  C    0.013788
     3  C   -0.072496
     4  C   -0.028686
     5  C   -0.095145
     6  N   -0.393709
     7  C   -0.011393
     8  C   -0.020178
     9  C   -0.150358
    10  C    0.072359
    11  C    0.024044
    12  C    0.003637
    13  C   -0.070286
    14  C    0.255220
    15  O   -0.264033
    16  O   -0.382726
    17  N   -0.574729
    18  C    0.189945
    19  C   -0.186642
    20  C   -0.088080
    21  C    0.163430
    22  C    0.059581
    23  C    0.050041
    24  O   -0.252565
    25  C   -0.028840
    26  N   -0.362640
    27  C   -0.017540
    28  C   -0.055625
    29  C   -0.106914
    30  C    0.035172
    31  C    0.008192
    32  C   -0.005555
    33  C   -0.066452
    34  N   -0.421197
    35  C    0.173484
    36  C   -0.224634
    37  C    0.032309
    38  C    0.119228
    39  C    0.066150
    40  C    0.146310
    41  O   -0.192894
    42  C   -0.165780
    43  C    0.353338
    44  O   -0.274583
    45  O   -0.395072
    46  C    0.110156
    47  C    0.241886
    48  C   -0.138130
    49  C   -0.218031
    50  C    0.020275
    51  C    0.013593
    52  C   -0.077814
    53  C   -0.042379
    54  C   -0.209704
    55  C   -0.004876
    56  C   -0.021901
    57  C   -0.064245
    58  C   -0.003935
    59  C   -0.208302
    60  C    0.016075
    61  C   -0.030674
    62  C   -0.066771
    63  C    0.019612
    64  C   -0.231625
    65  C   -0.037554
    66  C    0.000499
    67  H   -0.003363
    68  H    0.032264
    69  H    0.011539
    70  H    0.078599
    71  H    0.037170
    72  H    0.064543
    73  H    0.063622
    74  H    0.030789
    75  H    0.037582
    76  H    0.046232
    77  H    0.065184
    78  H    0.072390
    79  H    0.063013
    80  H    0.045614
    81  H    0.052020
    82  H    0.047799
    83  H    0.049848
    84  H    0.068232
    85  H    0.052314
    86  H    0.047154
    87  H    0.032089
    88  H    0.051809
    89  H    0.065734
    90  H    0.047997
    91  H    0.038410
    92  H    0.050160
    93  H    0.033053
    94  H    0.043136
    95  H    0.016571
    96  H    0.068037
    97  H    0.059257
    98  H    0.093850
    99  H    0.060571
   100  H    0.073993
   101  H    0.053569
   102  H    0.052050
   103  H    0.055703
   104  H    0.026290
   105  H    0.042254
   106  H    0.052414
   107  H    0.057719
   108  H    0.066118
   109  H    0.037633
   110  H    0.031495
   111  H    0.039085
   112  H    0.022835
   113  H    0.043831
   114  H    0.042495
   115  H    0.042550
   116  H    0.040754
   117  H    0.035147
   118  H    0.025451
   119  H    0.033606
   120  H    0.033383
   121  H    0.024794
   122  H    0.008722
   123  H    0.015550
   124  H    0.038183
   125  H    0.027930
   126  H    0.039351
   127  H    0.037883
   128  H    0.026138
   129  H    0.033700
   130  H    0.017681
   131  H    0.016797
   132  H    0.033860
   133  H    0.018103
   134  H    0.046806
   135  H    0.021171
   136  H    0.026972
   137  H    0.034403
   138  H    0.044540
   139  H    0.026799
   140  H    0.021931
 Sum of Mulliken charges =  -0.00000

 Dipole moment (field-independent basis, Debye):
    X=             -4.4087    Y=              2.0458    Z=              1.4465  Tot=              5.0709
 Quadrupole moment (field-independent basis, Debye-Ang):
   XX=           -366.8364   YY=           -424.4519   ZZ=           -401.9827
   XY=             -2.6996   XZ=             25.8231   YZ=             -3.9303

 Normal termination of Gaussian 16 at Wed Apr 27 19:25:42 2022.
