 Gaussian 16, Revision A.03,
 Gaussian 16:  ES64L-G16RevA.03 25-Dec-2016

 --------------------------------
 #p wB97XD/Def2SVP td=(nstates=5)
 --------------------------------

 ----------------------------------------------------
 step_1251_chromophore_7 TDDFT with wB97XD functional
 ----------------------------------------------------
 Symbolic Z-matrix:
 Charge =  0 Multiplicity = 1

                         Standard orientation:
 ---------------------------------------------------------------------
 Center     Atomic      Atomic             Coordinates (Angstroms)
 Number     Number       Type             X           Y           Z
 ---------------------------------------------------------------------
      1         12           0        5.927580    0.531452    0.027261
      2          6           0        3.657560   -2.170877    0.177099
      3          6           0        3.520206    2.399045   -1.506886
      4          6           0        8.204869    2.872767   -0.001877
      5          6           0        8.404138   -1.870240    1.117930
      6          7           0        3.848265    0.121095   -0.517272
      7          6           0        3.114036   -0.987272   -0.283710
      8          6           0        1.613144   -0.710080   -0.594023
      9          6           0        1.705202    0.638962   -1.277570
     10          6           0        3.141839    1.127540   -1.106481
     11          6           0        1.435276    0.600411   -2.762869
     12          6           0        0.743478   -0.935995    0.680595
     13          6           0       -0.665007   -1.632705    0.638632
     14          6           0       -1.518930   -1.479509   -0.619226
     15          8           0       -1.210705   -1.557168   -1.798307
     16          8           0       -2.808475   -1.341003   -0.135783
     17          7           0        5.867537    2.324806   -0.708416
     18          6           0        4.809612    2.988155   -1.271125
     19          6           0        5.152588    4.335791   -1.649701
     20          6           0        6.484836    4.541807   -1.152608
     21          6           0        6.950731    3.207675   -0.644087
     22          6           0        4.212527    5.232095   -2.358628
     23          6           0        7.347740    5.788226   -1.185894
     24          8           0        8.516898    5.836468   -0.812183
     25          6           0        6.801139    7.046104   -1.687631
     26          7           0        8.071944    0.463505    0.542342
     27          6           0        8.726108    1.707705    0.554659
     28          6           0       10.107293    1.552752    1.161877
     29          6           0       10.112157    0.047202    1.502091
     30          6           0        8.784878   -0.487299    1.091617
     31          6           0       11.212890    2.095556    0.121883
     32          6           0       10.538186   -0.328143    3.009657
     33          6           0       11.865178   -1.076794    3.151310
     34          7           0        6.062835   -1.593511    0.658798
     35          6           0        7.119876   -2.364799    1.057746
     36          6           0        6.572783   -3.687557    1.420067
     37          6           0        5.290171   -3.730461    1.047199
     38          6           0        4.968682   -2.410192    0.606801
     39          6           0        7.381458   -4.844940    2.019069
     40          6           0        4.079569   -4.531031    0.967270
     41          8           0        3.969739   -5.696840    1.302807
     42          6           0        2.916213   -3.558088    0.411474
     43          6           0        2.301019   -4.092276   -0.827684
     44          8           0        2.521023   -3.774888   -2.022824
     45          8           0        1.151878   -4.775780   -0.414156
     46          6           0        0.108088   -4.954452   -1.504489
     47          6           0       -3.887800   -1.470443   -1.137643
     48          6           0       -5.199190   -0.981959   -0.637948
     49          6           0       -6.378891   -0.937523   -1.293749
     50          6           0       -6.426255   -0.984991   -2.742056
     51          6           0       -7.660084   -0.559226   -0.530678
     52          6           0       -8.993894   -1.265826   -0.985406
     53          6           0       -9.893581   -0.212394   -1.649370
     54          6           0      -10.997793   -0.913491   -2.553185
     55          6           0      -10.633276   -0.952840   -4.104535
     56          6           0      -12.400183   -0.201885   -2.255433
     57          6           0      -13.336455   -1.002426   -1.264844
     58          6           0      -13.914088   -0.143200   -0.161961
     59          6           0      -12.868387    0.177645    1.005553
     60          6           0      -13.236216   -0.264439    2.415618
     61          6           0      -12.747742    1.719226    0.993972
     62          6           0      -11.453176    2.297394    1.608979
     63          6           0      -11.666932    3.515579    2.553399
     64          6           0      -11.443291    2.955586    4.012031
     65          6           0      -12.835253    2.674193    4.737119
     66          6           0      -10.618227    3.929438    4.820633
     67          1           0        2.752338    2.971227   -2.031983
     68          1           0        8.827117    3.748040    0.195715
     69          1           0        9.266005   -2.518554    1.287205
     70          1           0        1.338285   -1.506163   -1.285009
     71          1           0        1.118799    1.408690   -0.776254
     72          1           0        0.758219   -0.231876   -2.954198
     73          1           0        2.392380    0.605077   -3.286733
     74          1           0        0.842496    1.489482   -2.979694
     75          1           0        0.375356   -0.007897    1.116138
     76          1           0        1.220813   -1.430432    1.527003
     77          1           0       -1.231473   -1.379999    1.534377
     78          1           0       -0.498892   -2.706230    0.715079
     79          1           0        3.994794    5.997904   -1.614156
     80          1           0        3.316361    4.762603   -2.763775
     81          1           0        4.678225    5.697115   -3.227696
     82          1           0        6.424751    6.862618   -2.693742
     83          1           0        7.666016    7.706714   -1.756910
     84          1           0        6.066932    7.584629   -1.088835
     85          1           0       10.004298    2.108266    2.093699
     86          1           0       10.734746   -0.437717    0.750826
     87          1           0       12.046969    1.413831   -0.047324
     88          1           0       11.747678    2.964802    0.502691
     89          1           0       10.763922    2.244299   -0.860305
     90          1           0        9.746048   -0.987397    3.364979
     91          1           0       10.494437    0.623871    3.538519
     92          1           0       12.539111   -0.700193    3.920140
     93          1           0       12.393862   -0.985843    2.202368
     94          1           0       11.728898   -2.153999    3.247599
     95          1           0        8.402336   -4.570808    2.284022
     96          1           0        7.528726   -5.729034    1.398900
     97          1           0        6.920878   -5.082536    2.979072
     98          1           0        2.190282   -3.524729    1.224146
     99          1           0        0.339337   -5.829958   -2.111451
    100          1           0        0.064163   -4.102635   -2.183005
    101          1           0       -0.931377   -5.070968   -1.196693
    102          1           0       -3.933837   -2.549308   -1.282856
    103          1           0       -3.603369   -1.025595   -2.091801
    104          1           0       -5.232376   -0.860843    0.444121
    105          1           0       -7.382550   -0.679630   -3.165922
    106          1           0       -6.210732   -1.993598   -3.092500
    107          1           0       -5.628620   -0.325695   -3.085180
    108          1           0       -7.768659    0.524409   -0.561925
    109          1           0       -7.598819   -1.017183    0.456167
    110          1           0       -9.477054   -1.604075   -0.068659
    111          1           0       -9.024193   -2.150959   -1.621159
    112          1           0       -9.221363    0.426735   -2.221782
    113          1           0      -10.327832    0.436525   -0.889497
    114          1           0      -11.117664   -1.928403   -2.175610
    115          1           0      -10.493250   -1.989039   -4.411195
    116          1           0       -9.739341   -0.380768   -4.357198
    117          1           0      -11.493340   -0.506054   -4.604220
    118          1           0      -13.055336   -0.038152   -3.111331
    119          1           0      -12.195895    0.803204   -1.886053
    120          1           0      -12.954777   -1.893858   -0.766808
    121          1           0      -14.135393   -1.381425   -1.901352
    122          1           0      -14.882255   -0.501238    0.188741
    123          1           0      -14.290039    0.756078   -0.650636
    124          1           0      -11.921580   -0.277473    0.715253
    125          1           0      -14.211164    0.158804    2.655418
    126          1           0      -12.506817    0.156592    3.108148
    127          1           0      -13.357193   -1.346169    2.482729
    128          1           0      -13.623756    2.140279    1.486466
    129          1           0      -12.759976    2.124316   -0.017975
    130          1           0      -10.780606    2.596117    0.805178
    131          1           0      -10.771027    1.516920    1.947483
    132          1           0      -12.630195    4.012097    2.438039
    133          1           0      -10.946132    4.313309    2.375088
    134          1           0      -10.981376    1.968853    3.971713
    135          1           0      -12.799776    1.645728    5.097137
    136          1           0      -13.756097    2.542646    4.170007
    137          1           0      -13.058187    3.293761    5.605525
    138          1           0      -11.180323    4.608581    5.462155
    139          1           0       -9.917432    4.382318    4.119254
    140          1           0       -9.915296    3.449973    5.500668
 ---------------------------------------------------------------------

 SCF Done:  E(RwB97XD) =  -3007.85017639     A.U. after   19 cycles

 Excitation energies and oscillator strengths:

 Excited State   1:      Singlet-A      1.7256 eV  718.49 nm  f=0.3904  <S**2>=0.000
     245 -> 248       -0.17095
     246 -> 247        0.68412
     245 <- 248       -0.10646
 This state for optimization and/or second-order correction.
 Total Energy, E(TD-HF/TD-DFT) =  -3007.78676102
 Copying the excited state density for this state as the 1-particle RhoCI density.

 Excited State   2:      Singlet-A      2.2392 eV  553.70 nm  f=0.0741  <S**2>=0.000
     245 -> 247        0.61426
     246 -> 248        0.33085

 Excited State   3:      Singlet-A      3.3739 eV  367.48 nm  f=0.5579  <S**2>=0.000
     239 -> 247       -0.12140
     241 -> 247       -0.24858
     245 -> 247       -0.28128
     246 -> 248        0.57486
     245 <- 247        0.10069

 Excited State   4:      Singlet-A      3.5747 eV  346.84 nm  f=0.0046  <S**2>=0.000
     239 -> 247        0.23703
     239 -> 249       -0.17236
     240 -> 247        0.50944
     240 -> 249       -0.32558
     240 -> 251        0.10977

 Excited State   5:      Singlet-A      3.6560 eV  339.12 nm  f=0.0928  <S**2>=0.000
     239 -> 247       -0.16208
     241 -> 247       -0.39938
     244 -> 247        0.45849
     245 -> 247        0.14089
     246 -> 248       -0.18098

 The electronic state is 1-A.
 Alpha  occ. eigenvalues --  -46.94418 -19.30741 -19.30482 -19.26478 -19.25556
 Alpha  occ. eigenvalues --  -19.25395 -19.22484 -14.45913 -14.45883 -14.43791
 Alpha  occ. eigenvalues --  -14.43518 -10.44440 -10.43997 -10.40484 -10.37596
 Alpha  occ. eigenvalues --  -10.36318 -10.35373 -10.35289 -10.35024 -10.34453
 Alpha  occ. eigenvalues --  -10.33893 -10.33778 -10.33725 -10.33482 -10.33362
 Alpha  occ. eigenvalues --  -10.33098 -10.32584 -10.32032 -10.31861 -10.31755
 Alpha  occ. eigenvalues --  -10.31730 -10.31582 -10.31431 -10.31091 -10.31028
 Alpha  occ. eigenvalues --  -10.31023 -10.30872 -10.30773 -10.30404 -10.30344
 Alpha  occ. eigenvalues --  -10.30331 -10.30181 -10.30124 -10.30084 -10.30027
 Alpha  occ. eigenvalues --  -10.29981 -10.29980 -10.29765 -10.29701 -10.29681
 Alpha  occ. eigenvalues --  -10.29669 -10.29589 -10.29451 -10.29309 -10.29267
 Alpha  occ. eigenvalues --  -10.29163 -10.28922 -10.28878 -10.28633 -10.28630
 Alpha  occ. eigenvalues --  -10.28553 -10.28533 -10.28502 -10.28173 -10.28018
 Alpha  occ. eigenvalues --  -10.28018  -3.20435  -1.94033  -1.93538  -1.93430
 Alpha  occ. eigenvalues --   -1.18876  -1.16634  -1.13440  -1.11096  -1.10957
 Alpha  occ. eigenvalues --   -1.08355  -1.06445  -1.05648  -1.05078  -1.03138
 Alpha  occ. eigenvalues --   -0.94247  -0.93054  -0.91569  -0.91028  -0.90148
 Alpha  occ. eigenvalues --   -0.90064  -0.89801  -0.89731  -0.89055  -0.88621
 Alpha  occ. eigenvalues --   -0.88256  -0.87436  -0.86352  -0.85711  -0.84865
 Alpha  occ. eigenvalues --   -0.84204  -0.83570  -0.83166  -0.82615  -0.82180
 Alpha  occ. eigenvalues --   -0.82099  -0.80140  -0.79383  -0.78879  -0.78293
 Alpha  occ. eigenvalues --   -0.78072  -0.77363  -0.76936  -0.76750  -0.76035
 Alpha  occ. eigenvalues --   -0.75139  -0.74748  -0.73404  -0.72349  -0.71188
 Alpha  occ. eigenvalues --   -0.70908  -0.70420  -0.68880  -0.68578  -0.67849
 Alpha  occ. eigenvalues --   -0.67290  -0.66826  -0.66299  -0.66100  -0.66019
 Alpha  occ. eigenvalues --   -0.65910  -0.65576  -0.65092  -0.64029  -0.61981
 Alpha  occ. eigenvalues --   -0.61641  -0.61227  -0.60683  -0.60169  -0.59698
 Alpha  occ. eigenvalues --   -0.59398  -0.58840  -0.58129  -0.58036  -0.57482
 Alpha  occ. eigenvalues --   -0.56966  -0.56886  -0.56440  -0.56053  -0.55831
 Alpha  occ. eigenvalues --   -0.55782  -0.55460  -0.55032  -0.54737  -0.54294
 Alpha  occ. eigenvalues --   -0.54179  -0.54121  -0.54050  -0.53846  -0.53761
 Alpha  occ. eigenvalues --   -0.53616  -0.53436  -0.53244  -0.52983  -0.52519
 Alpha  occ. eigenvalues --   -0.52266  -0.52081  -0.51929  -0.51592  -0.51445
 Alpha  occ. eigenvalues --   -0.51176  -0.50961  -0.50913  -0.50772  -0.50379
 Alpha  occ. eigenvalues --   -0.50220  -0.50177  -0.49839  -0.49743  -0.49593
 Alpha  occ. eigenvalues --   -0.49257  -0.48959  -0.48877  -0.48684  -0.48546
 Alpha  occ. eigenvalues --   -0.48410  -0.48339  -0.48144  -0.47806  -0.47287
 Alpha  occ. eigenvalues --   -0.47172  -0.47136  -0.47100  -0.46742  -0.46636
 Alpha  occ. eigenvalues --   -0.46437  -0.46307  -0.46195  -0.45933  -0.45801
 Alpha  occ. eigenvalues --   -0.45650  -0.45462  -0.45173  -0.45078  -0.44945
 Alpha  occ. eigenvalues --   -0.44659  -0.44544  -0.44347  -0.44186  -0.44001
 Alpha  occ. eigenvalues --   -0.43869  -0.43685  -0.43452  -0.43026  -0.42969
 Alpha  occ. eigenvalues --   -0.42856  -0.42683  -0.42463  -0.42363  -0.41889
 Alpha  occ. eigenvalues --   -0.41884  -0.41054  -0.40960  -0.40631  -0.40479
 Alpha  occ. eigenvalues --   -0.40417  -0.40261  -0.40159  -0.39773  -0.39498
 Alpha  occ. eigenvalues --   -0.39474  -0.39097  -0.38714  -0.38493  -0.38409
 Alpha  occ. eigenvalues --   -0.37674  -0.37369  -0.37089  -0.36570  -0.36507
 Alpha  occ. eigenvalues --   -0.35660  -0.35487  -0.34967  -0.33884  -0.33665
 Alpha  occ. eigenvalues --   -0.32409  -0.31988  -0.31829  -0.31230  -0.25855
 Alpha  occ. eigenvalues --   -0.22214
 Alpha virt. eigenvalues --   -0.06249   0.00418   0.02404   0.04785   0.05277
 Alpha virt. eigenvalues --    0.06453   0.06767   0.07177   0.08823   0.09891
 Alpha virt. eigenvalues --    0.10627   0.11159   0.12245   0.12328   0.12454

 Mulliken charges:
               1
     1  Mg   0.972968
     2  C    0.006169
     3  C   -0.094655
     4  C   -0.036744
     5  C   -0.116297
     6  N   -0.359582
     7  C   -0.035923
     8  C    0.013160
     9  C   -0.124021
    10  C    0.062450
    11  C    0.036570
    12  C    0.008546
    13  C   -0.045791
    14  C    0.239978
    15  O   -0.258151
    16  O   -0.381582
    17  N   -0.540584
    18  C    0.176001
    19  C   -0.179621
    20  C   -0.083404
    21  C    0.144913
    22  C    0.072363
    23  C    0.046481
    24  O   -0.249933
    25  C   -0.018559
    26  N   -0.330998
    27  C   -0.032351
    28  C   -0.029021
    29  C   -0.082674
    30  C    0.023550
    31  C    0.020586
    32  C    0.009777
    33  C   -0.049351
    34  N   -0.386831
    35  C    0.172726
    36  C   -0.214444
    37  C    0.037425
    38  C    0.110740
    39  C    0.076357
    40  C    0.128146
    41  O   -0.180148
    42  C   -0.128304
    43  C    0.331088
    44  O   -0.267580
    45  O   -0.394537
    46  C    0.125739
    47  C    0.255343
    48  C   -0.145974
    49  C   -0.208198
    50  C    0.037859
    51  C    0.036513
    52  C   -0.062613
    53  C   -0.017842
    54  C   -0.180785
    55  C    0.008292
    56  C   -0.004192
    57  C   -0.045632
    58  C    0.009138
    59  C   -0.171198
    60  C    0.034223
    61  C   -0.013244
    62  C   -0.048324
    63  C    0.032367
    64  C   -0.199311
    65  C   -0.027787
    66  C    0.013424
    67  H   -0.012638
    68  H    0.026245
    69  H    0.007020
    70  H    0.054054
    71  H    0.027362
    72  H    0.056469
    73  H    0.057203
    74  H    0.025059
    75  H    0.030903
    76  H    0.037127
    77  H    0.061762
    78  H    0.059969
    79  H    0.054539
    80  H    0.040271
    81  H    0.043977
    82  H    0.040224
    83  H    0.046599
    84  H    0.064346
    85  H    0.041478
    86  H    0.033508
    87  H    0.024795
    88  H    0.046846
    89  H    0.059785
    90  H    0.037371
    91  H    0.032333
    92  H    0.046114
    93  H    0.025311
    94  H    0.036868
    95  H    0.012795
    96  H    0.066885
    97  H    0.056647
    98  H    0.086157
    99  H    0.057737
   100  H    0.069648
   101  H    0.051072
   102  H    0.046351
   103  H    0.050473
   104  H    0.023870
   105  H    0.030431
   106  H    0.047385
   107  H    0.051854
   108  H    0.058661
   109  H    0.030385
   110  H    0.022999
   111  H    0.029964
   112  H    0.010185
   113  H    0.023770
   114  H    0.027722
   115  H    0.037386
   116  H    0.034653
   117  H    0.028796
   118  H    0.018140
   119  H    0.018911
   120  H    0.023486
   121  H    0.017930
   122  H    0.002516
   123  H    0.004654
   124  H    0.016929
   125  H    0.020209
   126  H    0.025017
   127  H    0.033270
   128  H    0.013474
   129  H    0.023384
   130  H    0.010027
   131  H    0.006425
   132  H    0.026551
   133  H    0.010037
   134  H    0.033837
   135  H    0.014213
   136  H    0.019395
   137  H    0.029606
   138  H    0.038833
   139  H    0.019430
   140  H    0.016301
 Sum of Mulliken charges =  -0.00000

 Dipole moment (field-independent basis, Debye):
    X=             -4.4722    Y=              0.8758    Z=              1.8347  Tot=              4.9126
 Quadrupole moment (field-independent basis, Debye-Ang):
   XX=           -367.2962   YY=           -423.5851   ZZ=           -401.5467
   XY=             -9.2855   XZ=             27.9881   YZ=             -3.8459

 Normal termination of Gaussian 16 at Wed Apr 27 19:53:29 2022.
