 Gaussian 16, Revision A.03,
 Gaussian 16:  ES64L-G16RevA.03 25-Dec-2016

 --------------------
 #p ZINDO=(nstates=5)
 --------------------

 -----------------------------
 step_1251_chromophore_7 ZINDO
 -----------------------------
 Symbolic Z-matrix:
 Charge =  0 Multiplicity = 1

                         Standard orientation:
 ---------------------------------------------------------------------
 Center     Atomic      Atomic             Coordinates (Angstroms)
 Number     Number       Type             X           Y           Z
 ---------------------------------------------------------------------
      1         12           0        5.927580    0.531452    0.027261
      2          6           0        3.657560   -2.170877    0.177099
      3          6           0        3.520206    2.399045   -1.506886
      4          6           0        8.204869    2.872767   -0.001877
      5          6           0        8.404138   -1.870240    1.117930
      6          7           0        3.848265    0.121095   -0.517272
      7          6           0        3.114036   -0.987272   -0.283710
      8          6           0        1.613144   -0.710080   -0.594023
      9          6           0        1.705202    0.638962   -1.277570
     10          6           0        3.141839    1.127540   -1.106481
     11          6           0        1.435276    0.600411   -2.762869
     12          6           0        0.743478   -0.935995    0.680595
     13          6           0       -0.665007   -1.632705    0.638632
     14          6           0       -1.518930   -1.479509   -0.619226
     15          8           0       -1.210705   -1.557168   -1.798307
     16          8           0       -2.808475   -1.341003   -0.135783
     17          7           0        5.867537    2.324806   -0.708416
     18          6           0        4.809612    2.988155   -1.271125
     19          6           0        5.152588    4.335791   -1.649701
     20          6           0        6.484836    4.541807   -1.152608
     21          6           0        6.950731    3.207675   -0.644087
     22          6           0        4.212527    5.232095   -2.358628
     23          6           0        7.347740    5.788226   -1.185894
     24          8           0        8.516898    5.836468   -0.812183
     25          6           0        6.801139    7.046104   -1.687631
     26          7           0        8.071944    0.463505    0.542342
     27          6           0        8.726108    1.707705    0.554659
     28          6           0       10.107293    1.552752    1.161877
     29          6           0       10.112157    0.047202    1.502091
     30          6           0        8.784878   -0.487299    1.091617
     31          6           0       11.212890    2.095556    0.121883
     32          6           0       10.538186   -0.328143    3.009657
     33          6           0       11.865178   -1.076794    3.151310
     34          7           0        6.062835   -1.593511    0.658798
     35          6           0        7.119876   -2.364799    1.057746
     36          6           0        6.572783   -3.687557    1.420067
     37          6           0        5.290171   -3.730461    1.047199
     38          6           0        4.968682   -2.410192    0.606801
     39          6           0        7.381458   -4.844940    2.019069
     40          6           0        4.079569   -4.531031    0.967270
     41          8           0        3.969739   -5.696840    1.302807
     42          6           0        2.916213   -3.558088    0.411474
     43          6           0        2.301019   -4.092276   -0.827684
     44          8           0        2.521023   -3.774888   -2.022824
     45          8           0        1.151878   -4.775780   -0.414156
     46          6           0        0.108088   -4.954452   -1.504489
     47          6           0       -3.887800   -1.470443   -1.137643
     48          6           0       -5.199190   -0.981959   -0.637948
     49          6           0       -6.378891   -0.937523   -1.293749
     50          6           0       -6.426255   -0.984991   -2.742056
     51          6           0       -7.660084   -0.559226   -0.530678
     52          6           0       -8.993894   -1.265826   -0.985406
     53          6           0       -9.893581   -0.212394   -1.649370
     54          6           0      -10.997793   -0.913491   -2.553185
     55          6           0      -10.633276   -0.952840   -4.104535
     56          6           0      -12.400183   -0.201885   -2.255433
     57          6           0      -13.336455   -1.002426   -1.264844
     58          6           0      -13.914088   -0.143200   -0.161961
     59          6           0      -12.868387    0.177645    1.005553
     60          6           0      -13.236216   -0.264439    2.415618
     61          6           0      -12.747742    1.719226    0.993972
     62          6           0      -11.453176    2.297394    1.608979
     63          6           0      -11.666932    3.515579    2.553399
     64          6           0      -11.443291    2.955586    4.012031
     65          6           0      -12.835253    2.674193    4.737119
     66          6           0      -10.618227    3.929438    4.820633
     67          1           0        2.752338    2.971227   -2.031983
     68          1           0        8.827117    3.748040    0.195715
     69          1           0        9.266005   -2.518554    1.287205
     70          1           0        1.338285   -1.506163   -1.285009
     71          1           0        1.118799    1.408690   -0.776254
     72          1           0        0.758219   -0.231876   -2.954198
     73          1           0        2.392380    0.605077   -3.286733
     74          1           0        0.842496    1.489482   -2.979694
     75          1           0        0.375356   -0.007897    1.116138
     76          1           0        1.220813   -1.430432    1.527003
     77          1           0       -1.231473   -1.379999    1.534377
     78          1           0       -0.498892   -2.706230    0.715079
     79          1           0        3.994794    5.997904   -1.614156
     80          1           0        3.316361    4.762603   -2.763775
     81          1           0        4.678225    5.697115   -3.227696
     82          1           0        6.424751    6.862618   -2.693742
     83          1           0        7.666016    7.706714   -1.756910
     84          1           0        6.066932    7.584629   -1.088835
     85          1           0       10.004298    2.108266    2.093699
     86          1           0       10.734746   -0.437717    0.750826
     87          1           0       12.046969    1.413831   -0.047324
     88          1           0       11.747678    2.964802    0.502691
     89          1           0       10.763922    2.244299   -0.860305
     90          1           0        9.746048   -0.987397    3.364979
     91          1           0       10.494437    0.623871    3.538519
     92          1           0       12.539111   -0.700193    3.920140
     93          1           0       12.393862   -0.985843    2.202368
     94          1           0       11.728898   -2.153999    3.247599
     95          1           0        8.402336   -4.570808    2.284022
     96          1           0        7.528726   -5.729034    1.398900
     97          1           0        6.920878   -5.082536    2.979072
     98          1           0        2.190282   -3.524729    1.224146
     99          1           0        0.339337   -5.829958   -2.111451
    100          1           0        0.064163   -4.102635   -2.183005
    101          1           0       -0.931377   -5.070968   -1.196693
    102          1           0       -3.933837   -2.549308   -1.282856
    103          1           0       -3.603369   -1.025595   -2.091801
    104          1           0       -5.232376   -0.860843    0.444121
    105          1           0       -7.382550   -0.679630   -3.165922
    106          1           0       -6.210732   -1.993598   -3.092500
    107          1           0       -5.628620   -0.325695   -3.085180
    108          1           0       -7.768659    0.524409   -0.561925
    109          1           0       -7.598819   -1.017183    0.456167
    110          1           0       -9.477054   -1.604075   -0.068659
    111          1           0       -9.024193   -2.150959   -1.621159
    112          1           0       -9.221363    0.426735   -2.221782
    113          1           0      -10.327832    0.436525   -0.889497
    114          1           0      -11.117664   -1.928403   -2.175610
    115          1           0      -10.493250   -1.989039   -4.411195
    116          1           0       -9.739341   -0.380768   -4.357198
    117          1           0      -11.493340   -0.506054   -4.604220
    118          1           0      -13.055336   -0.038152   -3.111331
    119          1           0      -12.195895    0.803204   -1.886053
    120          1           0      -12.954777   -1.893858   -0.766808
    121          1           0      -14.135393   -1.381425   -1.901352
    122          1           0      -14.882255   -0.501238    0.188741
    123          1           0      -14.290039    0.756078   -0.650636
    124          1           0      -11.921580   -0.277473    0.715253
    125          1           0      -14.211164    0.158804    2.655418
    126          1           0      -12.506817    0.156592    3.108148
    127          1           0      -13.357193   -1.346169    2.482729
    128          1           0      -13.623756    2.140279    1.486466
    129          1           0      -12.759976    2.124316   -0.017975
    130          1           0      -10.780606    2.596117    0.805178
    131          1           0      -10.771027    1.516920    1.947483
    132          1           0      -12.630195    4.012097    2.438039
    133          1           0      -10.946132    4.313309    2.375088
    134          1           0      -10.981376    1.968853    3.971713
    135          1           0      -12.799776    1.645728    5.097137
    136          1           0      -13.756097    2.542646    4.170007
    137          1           0      -13.058187    3.293761    5.605525
    138          1           0      -11.180323    4.608581    5.462155
    139          1           0       -9.917432    4.382318    4.119254
    140          1           0       -9.915296    3.449973    5.500668
 ---------------------------------------------------------------------

 SCF Done:  E(RZINDO/S) =  -474.119330155     A.U. after   19 cycles

 Excitation energies and oscillator strengths:

 Excited State   1:      Singlet-A      1.3624 eV  910.03 nm  f=0.5224  <S**2>=0.000
     175 ->178        -0.14290
     176 ->177         0.67510
 This state for optimization and/or second-order correction.
 Total Energy, E(CIS/TDA) =  -474.069262313
 Copying the excited state density for this state as the 1-particle RhoCI density.

 Excited State   2:      Singlet-A      1.9706 eV  629.16 nm  f=0.0065  <S**2>=0.000
     175 ->177         0.48832
     176 ->178         0.45790
     176 ->179        -0.13697

 Excited State   3:      Singlet-A      2.9204 eV  424.54 nm  f=0.9012  <S**2>=0.000
     173 ->177         0.10334
     175 ->177         0.40408
     176 ->178        -0.38565
     176 ->179         0.22771
     176 ->182         0.20807

 Excited State   4:      Singlet-A      2.9596 eV  418.92 nm  f=0.2105  <S**2>=0.000
     175 ->177        -0.16157
     176 ->178         0.32234
     176 ->179         0.49754
     176 ->180        -0.16865
     176 ->182         0.19386

 Excited State   5:      Singlet-A      2.9879 eV  414.96 nm  f=0.0353  <S**2>=0.000
     167 ->177        -0.29703
     167 ->178         0.15886
     167 ->179         0.33002
     167 ->180        -0.15027
     167 ->182        -0.13335
     167 ->186        -0.13135
     168 ->177        -0.20124
     168 ->179         0.19312
     176 ->179         0.13096
     176 ->182         0.11162

 The electronic state is 1-A.
 Alpha  occ. eigenvalues --   -1.84599  -1.81723  -1.79285  -1.72691  -1.70806
 Alpha  occ. eigenvalues --   -1.69521  -1.65456  -1.60027  -1.58418  -1.58185
 Alpha  occ. eigenvalues --   -1.54916  -1.50488  -1.48671  -1.47543  -1.45615
 Alpha  occ. eigenvalues --   -1.42902  -1.42588  -1.40525  -1.39449  -1.39022
 Alpha  occ. eigenvalues --   -1.36395  -1.33615  -1.32971  -1.31530  -1.28176
 Alpha  occ. eigenvalues --   -1.27071  -1.25079  -1.21591  -1.20230  -1.18169
 Alpha  occ. eigenvalues --   -1.17807  -1.16469  -1.15915  -1.14497  -1.12641
 Alpha  occ. eigenvalues --   -1.12483  -1.10753  -1.08853  -1.05789  -1.03876
 Alpha  occ. eigenvalues --   -1.02863  -1.01463  -0.99403  -0.97826  -0.97248
 Alpha  occ. eigenvalues --   -0.96785  -0.95181  -0.94036  -0.92968  -0.92836
 Alpha  occ. eigenvalues --   -0.90869  -0.89018  -0.88744  -0.88041  -0.87378
 Alpha  occ. eigenvalues --   -0.85726  -0.84304  -0.83415  -0.82113  -0.80229
 Alpha  occ. eigenvalues --   -0.79207  -0.78368  -0.77139  -0.76515  -0.76323
 Alpha  occ. eigenvalues --   -0.74934  -0.74625  -0.73922  -0.73727  -0.73390
 Alpha  occ. eigenvalues --   -0.72755  -0.72563  -0.71773  -0.71181  -0.70724
 Alpha  occ. eigenvalues --   -0.69952  -0.69646  -0.68708  -0.68443  -0.67825
 Alpha  occ. eigenvalues --   -0.67354  -0.66889  -0.66425  -0.65927  -0.65497
 Alpha  occ. eigenvalues --   -0.65066  -0.64742  -0.64533  -0.64220  -0.63554
 Alpha  occ. eigenvalues --   -0.63492  -0.63154  -0.62590  -0.62276  -0.61567
 Alpha  occ. eigenvalues --   -0.61357  -0.60688  -0.60464  -0.60248  -0.60035
 Alpha  occ. eigenvalues --   -0.59676  -0.59035  -0.58554  -0.58261  -0.57841
 Alpha  occ. eigenvalues --   -0.57589  -0.57448  -0.57238  -0.56839  -0.56546
 Alpha  occ. eigenvalues --   -0.55695  -0.55657  -0.54994  -0.54658  -0.54420
 Alpha  occ. eigenvalues --   -0.54375  -0.53976  -0.53500  -0.53295  -0.53180
 Alpha  occ. eigenvalues --   -0.52996  -0.52809  -0.52201  -0.51740  -0.51501
 Alpha  occ. eigenvalues --   -0.51414  -0.50923  -0.50781  -0.50565  -0.50279
 Alpha  occ. eigenvalues --   -0.50141  -0.49962  -0.49704  -0.49318  -0.48949
 Alpha  occ. eigenvalues --   -0.48667  -0.48461  -0.48206  -0.47947  -0.47711
 Alpha  occ. eigenvalues --   -0.47593  -0.47501  -0.47155  -0.47006  -0.46891
 Alpha  occ. eigenvalues --   -0.46376  -0.46156  -0.45724  -0.45461  -0.45412
 Alpha  occ. eigenvalues --   -0.44992  -0.44627  -0.44338  -0.44092  -0.43261
 Alpha  occ. eigenvalues --   -0.43124  -0.43082  -0.42764  -0.42576  -0.42104
 Alpha  occ. eigenvalues --   -0.42077  -0.41015  -0.40823  -0.39642  -0.39391
 Alpha  occ. eigenvalues --   -0.38280  -0.37084  -0.36160  -0.35219  -0.34147
 Alpha  occ. eigenvalues --   -0.33206  -0.32007  -0.31958  -0.30983  -0.26722
 Alpha  occ. eigenvalues --   -0.21130
 Alpha virt. eigenvalues --   -0.07536  -0.01747  -0.00913   0.00441   0.01474
 Alpha virt. eigenvalues --    0.02144   0.03492   0.03705   0.04416   0.04982
 Alpha virt. eigenvalues --    0.05838   0.07067   0.07200   0.07491   0.07734

 Mulliken charges:
               1
     1  Mg   0.426118
     2  C   -0.080053
     3  C   -0.086959
     4  C   -0.046429
     5  C   -0.076945
     6  N   -0.287737
     7  C    0.180900
     8  C    0.018096
     9  C    0.010754
    10  C    0.095753
    11  C   -0.049442
    12  C   -0.029093
    13  C    0.003495
    14  C    0.470404
    15  O   -0.511983
    16  O   -0.281749
    17  N   -0.302727
    18  C    0.065585
    19  C   -0.024047
    20  C   -0.073942
    21  C    0.087122
    22  C   -0.039221
    23  C    0.330664
    24  O   -0.545827
    25  C   -0.032123
    26  N   -0.267918
    27  C    0.073902
    28  C    0.002493
    29  C    0.004821
    30  C    0.196217
    31  C   -0.052036
    32  C   -0.029179
    33  C   -0.054966
    34  N   -0.358720
    35  C    0.142345
    36  C    0.075112
    37  C   -0.025989
    38  C    0.144513
    39  C   -0.044402
    40  C    0.336272
    41  O   -0.493985
    42  C    0.052606
    43  C    0.484855
    44  O   -0.511496
    45  O   -0.273157
    46  C    0.067368
    47  C    0.107742
    48  C   -0.093711
    49  C   -0.004020
    50  C   -0.037522
    51  C   -0.026407
    52  C   -0.044207
    53  C   -0.040559
    54  C   -0.022914
    55  C   -0.059438
    56  C   -0.041304
    57  C   -0.035190
    58  C   -0.039721
    59  C   -0.008323
    60  C   -0.052107
    61  C   -0.032223
    62  C   -0.044588
    63  C   -0.031251
    64  C   -0.006653
    65  C   -0.074423
    66  C   -0.057417
    67  H    0.031664
    68  H    0.042047
    69  H    0.026467
    70  H    0.049202
    71  H    0.023899
    72  H    0.030480
    73  H    0.038306
    74  H    0.013760
    75  H    0.018156
    76  H    0.022060
    77  H    0.039652
    78  H    0.040068
    79  H    0.028390
    80  H    0.025907
    81  H    0.022311
    82  H    0.032035
    83  H    0.028603
    84  H    0.040237
    85  H    0.039435
    86  H    0.036281
    87  H    0.011153
    88  H    0.027794
    89  H    0.037510
    90  H    0.020248
    91  H    0.030734
    92  H    0.026974
    93  H    0.013977
    94  H    0.020922
    95  H    0.013619
    96  H    0.045314
    97  H    0.035185
    98  H    0.061584
    99  H    0.042137
   100  H    0.049681
   101  H    0.036261
   102  H    0.042232
   103  H    0.055911
   104  H    0.023621
   105  H    0.022263
   106  H    0.028834
   107  H    0.028410
   108  H    0.042661
   109  H    0.021862
   110  H    0.010112
   111  H    0.032298
   112  H    0.018253
   113  H    0.023016
   114  H    0.024166
   115  H    0.021724
   116  H    0.023784
   117  H    0.022548
   118  H    0.018333
   119  H    0.020589
   120  H    0.021072
   121  H    0.008199
   122  H    0.013318
   123  H    0.011483
   124  H    0.024030
   125  H    0.016614
   126  H    0.025620
   127  H    0.017583
   128  H    0.020307
   129  H    0.013905
   130  H    0.001642
   131  H    0.023142
   132  H    0.026926
   133  H    0.016775
   134  H    0.029786
   135  H    0.004236
   136  H    0.022252
   137  H    0.022728
   138  H    0.029439
   139  H    0.016483
   140  H    0.006762
 Sum of Mulliken charges =  -0.00000

 Dipole moment (field-independent basis, Debye):
    X=             -4.7996    Y=             -1.6489    Z=              4.7679  Tot=              6.9633
 N-N= 4.254661444887D+03 E-N= 0.000000000000D+00  KE=-9.183647286568D+03
 Leave Link  601 at Wed Apr 27 20:04:55 2022, MaxMem=  6710886400 cpu:               0.8 elap:               0.0
 (Enter /sw/apps/gaussian-16.0/g16/l9999.exe)
 1\1\GINC-BP1-COMPUTE142\SP\RZINDO CIS\STO-3G\C55H74Mg1N4O6\OF15641\27-
 Apr-2022\0\\#p ZINDO=(nstates=5)\\step_1251_chromophore_7 ZINDO\\0,1\M
 g,0,26.046,-1.045,29.864\C,0,28.018,-1.526,32.755\C,0,23.274,-0.888,31
 .846\C,0,24.442,-0.624,27.05\C,0,29.063,-1.838,28.031\N,0,25.759,-1.14
 6,32.031\C,0,26.688,-1.248,33.005\C,0,26.035,-0.994,34.396\C,0,24.565,
 -1.,34.029\C,0,24.487,-1.014,32.504\C,0,23.811,-2.216,34.512\C,0,26.70
 9,0.224,35.099\C,0,27.033,0.248,36.637\C,0,26.127,-0.534,37.587\O,0,25

 Normal termination of Gaussian 16 at Wed Apr 27 20:04:55 2022.
