 Gaussian 16, Revision A.03,
 Gaussian 16:  ES64L-G16RevA.03 25-Dec-2016

 ------------------------------
 #p blyp/Def2SVP td=(nstates=5)
 ------------------------------

 --------------------------------------------------
 step_301_chromophore_15 TDDFT with blyp functional
 --------------------------------------------------
 Symbolic Z-matrix:
 Charge =  0 Multiplicity = 1

                         Standard orientation:
 ---------------------------------------------------------------------
 Center     Atomic      Atomic             Coordinates (Angstroms)
 Number     Number       Type             X           Y           Z
 ---------------------------------------------------------------------
      1         12           0       -5.043961    0.956262   -0.026173
      2          6           0       -4.458516   -2.530995    0.447935
      3          6           0       -1.602647    1.376618    0.061776
      4          6           0       -5.553816    4.230619    0.107470
      5          6           0       -8.454316    0.468707    0.567981
      6          7           0       -3.283327   -0.425496    0.237127
      7          6           0       -3.316337   -1.812189    0.079171
      8          6           0       -1.876088   -2.344478   -0.149430
      9          6           0       -0.995586   -1.051738    0.080153
     10          6           0       -2.001340    0.055108    0.121299
     11          6           0       -0.037244   -1.120531    1.286606
     12          6           0       -1.732042   -2.864343   -1.650038
     13          6           0       -0.816396   -4.050405   -1.955100
     14          6           0        0.423352   -4.218434   -0.926380
     15          8           0        0.459479   -4.631270    0.224259
     16          8           0        1.553767   -3.706124   -1.559350
     17          7           0       -3.796223    2.567471   -0.127856
     18          6           0       -2.371328    2.557621   -0.028709
     19          6           0       -1.854855    3.958202   -0.145124
     20          6           0       -3.091997    4.737056   -0.174699
     21          6           0       -4.232192    3.853883   -0.060805
     22          6           0       -0.395150    4.281357   -0.432067
     23          6           0       -3.215102    6.264428   -0.289308
     24          8           0       -4.259623    6.905934   -0.276401
     25          6           0       -1.887575    7.038266   -0.425352
     26          7           0       -6.732048    2.175822    0.387769
     27          6           0       -6.696310    3.507183    0.395516
     28          6           0       -8.082776    4.090471    0.602287
     29          6           0       -9.061020    2.891225    0.505053
     30          6           0       -8.010960    1.740186    0.484665
     31          6           0       -8.116545    4.750720    2.015372
     32          6           0      -10.091886    2.949105   -0.663201
     33          6           0       -9.493963    2.669270   -2.105030
     34          7           0       -6.246003   -0.683984    0.425442
     35          6           0       -7.607366   -0.636719    0.612422
     36          6           0       -8.067457   -2.016615    0.754277
     37          6           0       -6.812903   -2.807200    0.815652
     38          6           0       -5.725315   -1.929138    0.595342
     39          6           0       -9.447251   -2.578608    0.903129
     40          6           0       -6.241294   -4.151078    0.992006
     41          8           0       -6.831466   -5.175972    1.232086
     42          6           0       -4.665821   -3.964831    0.912367
     43          6           0       -3.905498   -5.019699    0.174264
     44          8           0       -3.924246   -5.309836   -0.994910
     45          8           0       -3.119969   -5.667936    1.144341
     46          6           0       -2.131881   -6.630158    0.578792
     47          6           0        2.831034   -3.676364   -0.815255
     48          6           0        3.996706   -2.976062   -1.500883
     49          6           0        5.319363   -3.096861   -1.354549
     50          6           0        5.975580   -3.631031   -0.145422
     51          6           0        6.283729   -2.441313   -2.294707
     52          6           0        6.902363   -1.031187   -1.799693
     53          6           0        7.729525   -0.284405   -2.933463
     54          6           0        8.046682    1.280708   -2.558031
     55          6           0        6.863051    2.280671   -2.873767
     56          6           0        9.442385    1.791276   -3.109726
     57          6           0       10.556769    1.034719   -2.462566
     58          6           0       11.782610    1.893520   -1.851833
     59          6           0       11.868504    1.999526   -0.312567
     60          6           0       12.726058    3.156971    0.093884
     61          6           0       12.295388    0.685232    0.362690
     62          6           0       11.457013    0.308354    1.638622
     63          6           0       12.399018    0.569350    2.888640
     64          6           0       11.642270    0.397033    4.253142
     65          6           0       10.981607    1.741153    4.610173
     66          6           0       12.694495   -0.023611    5.348076
     67          1           0       -0.515346    1.469494    0.097059
     68          1           0       -5.764561    5.294461    0.242304
     69          1           0       -9.523706    0.264468    0.657848
     70          1           0       -1.722473   -2.989412    0.715468
     71          1           0       -0.373417   -0.920489   -0.804613
     72          1           0        0.877547   -0.645962    0.930608
     73          1           0        0.117854   -2.121626    1.690994
     74          1           0       -0.460817   -0.529704    2.098384
     75          1           0       -1.300996   -2.085069   -2.279331
     76          1           0       -2.736447   -3.176935   -1.933591
     77          1           0       -0.336573   -3.846907   -2.911752
     78          1           0       -1.285275   -5.028949   -2.061506
     79          1           0       -0.256568    5.039245   -1.202515
     80          1           0        0.105474    3.347183   -0.688728
     81          1           0        0.096226    4.639526    0.472792
     82          1           0       -1.281669    6.855008   -1.313276
     83          1           0       -1.277646    6.810769    0.449104
     84          1           0       -2.076977    8.109966   -0.476290
     85          1           0       -8.435555    4.848569   -0.097222
     86          1           0       -9.676481    2.883587    1.404830
     87          1           0       -7.243841    5.365955    2.236393
     88          1           0       -8.163001    4.005268    2.809462
     89          1           0       -8.922823    5.483382    1.990454
     90          1           0      -10.561438    3.933177   -0.676909
     91          1           0      -10.815006    2.184075   -0.382573
     92          1           0       -9.958485    3.390840   -2.777774
     93          1           0       -9.917364    1.734301   -2.473409
     94          1           0       -8.427458    2.863855   -2.000460
     95          1           0       -9.501428   -3.150954    1.828453
     96          1           0       -9.628818   -3.198537    0.024212
     97          1           0      -10.086656   -1.696485    0.933742
     98          1           0       -4.182255   -3.990619    1.889229
     99          1           0       -2.454603   -7.651266    0.785907
    100          1           0       -1.244945   -6.401425    1.169379
    101          1           0       -1.846005   -6.619307   -0.473179
    102          1           0        3.042786   -4.662234   -0.401680
    103          1           0        2.666530   -2.970528   -0.002018
    104          1           0        3.680961   -2.395933   -2.367835
    105          1           0        6.503333   -2.881213    0.444124
    106          1           0        6.639623   -4.466269   -0.365816
    107          1           0        5.229037   -4.100476    0.496387
    108          1           0        5.934834   -2.433554   -3.327430
    109          1           0        7.177435   -3.063235   -2.335675
    110          1           0        7.537183   -1.260482   -0.942737
    111          1           0        6.156017   -0.332394   -1.421992
    112          1           0        7.146727   -0.225325   -3.853397
    113          1           0        8.699494   -0.726395   -3.159371
    114          1           0        8.088480    1.284673   -1.468497
    115          1           0        6.474160    2.598003   -1.906211
    116          1           0        6.014415    1.951270   -3.472965
    117          1           0        7.237761    3.178056   -3.367949
    118          1           0        9.559102    2.857217   -2.917125
    119          1           0        9.291313    1.610479   -4.174853
    120          1           0       10.927268    0.427934   -3.287964
    121          1           0       10.271877    0.432467   -1.599121
    122          1           0       11.936826    2.819697   -2.405044
    123          1           0       12.713599    1.406695   -2.140863
    124          1           0       10.831173    2.263439   -0.103773
    125          1           0       12.147969    4.073166    0.214438
    126          1           0       13.348472    3.298974   -0.789753
    127          1           0       13.299784    2.979707    1.002544
    128          1           0       13.374074    0.793362    0.471526
    129          1           0       12.069356   -0.059888   -0.400830
    130          1           0       11.243055   -0.761075    1.623450
    131          1           0       10.551271    0.912515    1.702584
    132          1           0       12.808388    1.576470    2.804836
    133          1           0       13.173603   -0.195781    2.837359
    134          1           0       10.958644   -0.440157    4.109859
    135          1           0       10.621587    2.104264    3.647402
    136          1           0       11.584685    2.524252    5.070061
    137          1           0       10.062209    1.529127    5.154419
    138          1           0       13.696445    0.136585    4.949260
    139          1           0       12.478939   -1.055492    5.623924
    140          1           0       12.509975    0.549116    6.257382
 ---------------------------------------------------------------------

 SCF Done:  E(RB-LYP) =  -3007.38756462     A.U. after   21 cycles

 Excitation energies and oscillator strengths:

 Excited State   1:      Singlet-A      1.8290 eV  677.88 nm  f=0.3005  <S**2>=0.000
     244 -> 247       -0.10149
     245 -> 248        0.19694
     246 -> 247        0.68024
     246 <- 247       -0.14516
 This state for optimization and/or second-order correction.
 Total Energy, E(TD-HF/TD-DFT) =  -3007.32034988
 Copying the excited state density for this state as the 1-particle RhoCI density.

 Excited State   2:      Singlet-A      1.8901 eV  655.95 nm  f=0.0257  <S**2>=0.000
     244 -> 247        0.55614
     245 -> 247       -0.40012
     246 -> 247        0.11187

 Excited State   3:      Singlet-A      1.9807 eV  625.97 nm  f=0.0001  <S**2>=0.000
     243 -> 247        0.70582

 Excited State   4:      Singlet-A      2.0439 eV  606.60 nm  f=0.0597  <S**2>=0.000
     244 -> 247        0.41488
     245 -> 247        0.51485
     246 -> 248       -0.22383

 Excited State   5:      Singlet-A      2.2224 eV  557.87 nm  f=0.0079  <S**2>=0.000
     242 -> 247        0.69072

 The electronic state is 1-A.
 Alpha  occ. eigenvalues --  -46.26455 -18.82604 -18.81594 -18.78377 -18.77223
 Alpha  occ. eigenvalues --  -18.75988 -18.75503 -14.03134 -14.02927 -14.01285
 Alpha  occ. eigenvalues --  -14.00397 -10.05332 -10.03702 -10.00206  -9.99499
 Alpha  occ. eigenvalues --   -9.98853  -9.96643  -9.96537  -9.96397  -9.96164
 Alpha  occ. eigenvalues --   -9.95963  -9.95731  -9.95724  -9.95281  -9.95127
 Alpha  occ. eigenvalues --   -9.94250  -9.94149  -9.94131  -9.94090  -9.93898
 Alpha  occ. eigenvalues --   -9.93895  -9.93762  -9.93543  -9.93492  -9.93338
 Alpha  occ. eigenvalues --   -9.93217  -9.93161  -9.93130  -9.93114  -9.93006
 Alpha  occ. eigenvalues --   -9.92882  -9.92798  -9.92630  -9.92612  -9.92479
 Alpha  occ. eigenvalues --   -9.92383  -9.92285  -9.92272  -9.92217  -9.92159
 Alpha  occ. eigenvalues --   -9.92068  -9.92010  -9.92000  -9.91774  -9.91680
 Alpha  occ. eigenvalues --   -9.91606  -9.91508  -9.91366  -9.91355  -9.91352
 Alpha  occ. eigenvalues --   -9.91346  -9.91264  -9.91065  -9.90788  -9.90721
 Alpha  occ. eigenvalues --   -9.90699  -2.91174  -1.71594  -1.71072  -1.70873
 Alpha  occ. eigenvalues --   -0.97769  -0.96866  -0.91702  -0.91523  -0.90373
 Alpha  occ. eigenvalues --   -0.89720  -0.87047  -0.85349  -0.84600  -0.83977
 Alpha  occ. eigenvalues --   -0.75459  -0.74092  -0.73402  -0.72380  -0.72206
 Alpha  occ. eigenvalues --   -0.71783  -0.71679  -0.71291  -0.70841  -0.70058
 Alpha  occ. eigenvalues --   -0.69263  -0.68896  -0.67946  -0.67237  -0.66941
 Alpha  occ. eigenvalues --   -0.66306  -0.65615  -0.65336  -0.65065  -0.64253
 Alpha  occ. eigenvalues --   -0.64057  -0.62629  -0.62182  -0.61437  -0.60797
 Alpha  occ. eigenvalues --   -0.60234  -0.60164  -0.59879  -0.59806  -0.58912
 Alpha  occ. eigenvalues --   -0.58513  -0.57494  -0.56772  -0.55360  -0.55261
 Alpha  occ. eigenvalues --   -0.53772  -0.53374  -0.52764  -0.52481  -0.52031
 Alpha  occ. eigenvalues --   -0.51092  -0.50875  -0.50595  -0.50120  -0.49865
 Alpha  occ. eigenvalues --   -0.49469  -0.49088  -0.48672  -0.47557  -0.46981
 Alpha  occ. eigenvalues --   -0.46792  -0.45649  -0.45399  -0.45118  -0.43997
 Alpha  occ. eigenvalues --   -0.43532  -0.43078  -0.42865  -0.42776  -0.42412
 Alpha  occ. eigenvalues --   -0.41982  -0.41768  -0.41580  -0.41353  -0.41209
 Alpha  occ. eigenvalues --   -0.41074  -0.40707  -0.40620  -0.40526  -0.40277
 Alpha  occ. eigenvalues --   -0.39875  -0.39811  -0.39483  -0.39197  -0.39109
 Alpha  occ. eigenvalues --   -0.38991  -0.38869  -0.38482  -0.38412  -0.38248
 Alpha  occ. eigenvalues --   -0.38004  -0.37964  -0.37752  -0.37454  -0.37347
 Alpha  occ. eigenvalues --   -0.37258  -0.37068  -0.36844  -0.36501  -0.36287
 Alpha  occ. eigenvalues --   -0.36232  -0.36168  -0.36020  -0.35941  -0.35575
 Alpha  occ. eigenvalues --   -0.35518  -0.35280  -0.35066  -0.34977  -0.34872
 Alpha  occ. eigenvalues --   -0.34652  -0.34591  -0.34292  -0.34216  -0.34027
 Alpha  occ. eigenvalues --   -0.33814  -0.33661  -0.33430  -0.33299  -0.33132
 Alpha  occ. eigenvalues --   -0.33061  -0.32933  -0.32653  -0.32504  -0.32419
 Alpha  occ. eigenvalues --   -0.32110  -0.31979  -0.31732  -0.31640  -0.31516
 Alpha  occ. eigenvalues --   -0.31242  -0.31198  -0.31167  -0.30918  -0.30824
 Alpha  occ. eigenvalues --   -0.30565  -0.30516  -0.30392  -0.30385  -0.30057
 Alpha  occ. eigenvalues --   -0.29882  -0.29744  -0.29570  -0.29337  -0.29201
 Alpha  occ. eigenvalues --   -0.28949  -0.28588  -0.28389  -0.28096  -0.27768
 Alpha  occ. eigenvalues --   -0.27717  -0.27624  -0.27509  -0.26747  -0.26550
 Alpha  occ. eigenvalues --   -0.26418  -0.26214  -0.26050  -0.25979  -0.25550
 Alpha  occ. eigenvalues --   -0.25432  -0.24655  -0.24628  -0.24044  -0.24021
 Alpha  occ. eigenvalues --   -0.23015  -0.22795  -0.22480  -0.21693  -0.20544
 Alpha  occ. eigenvalues --   -0.20425  -0.19285  -0.18824  -0.18613  -0.17243
 Alpha  occ. eigenvalues --   -0.15996
 Alpha virt. eigenvalues --   -0.11639  -0.06698  -0.06111  -0.04428  -0.03727
 Alpha virt. eigenvalues --   -0.02869  -0.02624  -0.02360  -0.01653   0.00327
 Alpha virt. eigenvalues --    0.01187   0.01944   0.02075   0.02283   0.02719

 Mulliken charges:
               1
     1  Mg   0.691489
     2  C    0.032123
     3  C   -0.058279
     4  C   -0.062932
     5  C   -0.108811
     6  N   -0.223016
     7  C   -0.119584
     8  C    0.033265
     9  C   -0.032488
    10  C    0.025285
    11  C    0.123276
    12  C    0.120021
    13  C    0.120824
    14  C    0.092420
    15  O   -0.195636
    16  O   -0.290152
    17  N   -0.333834
    18  C    0.152106
    19  C   -0.132049
    20  C    0.009950
    21  C    0.156247
    22  C    0.174916
    23  C   -0.048924
    24  O   -0.154441
    25  C    0.097702
    26  N   -0.197129
    27  C    0.015010
    28  C    0.015868
    29  C    0.026261
    30  C    0.053350
    31  C    0.113359
    32  C    0.046544
    33  C    0.076874
    34  N   -0.278517
    35  C    0.164737
    36  C   -0.211504
    37  C    0.037311
    38  C    0.075154
    39  C    0.198578
    40  C   -0.022128
    41  O   -0.108777
    42  C    0.075437
    43  C    0.096333
    44  O   -0.158536
    45  O   -0.298240
    46  C    0.204242
    47  C    0.303161
    48  C   -0.083119
    49  C   -0.130852
    50  C    0.135953
    51  C    0.138436
    52  C    0.046864
    53  C    0.087912
    54  C   -0.123188
    55  C    0.099183
    56  C    0.124399
    57  C    0.070329
    58  C    0.065635
    59  C   -0.097678
    60  C    0.132187
    61  C    0.131026
    62  C    0.087941
    63  C    0.022389
    64  C   -0.088999
    65  C    0.127032
    66  C    0.117436
    67  H   -0.071421
    68  H   -0.042604
    69  H   -0.058302
    70  H   -0.007613
    71  H   -0.032553
    72  H   -0.002858
    73  H    0.016192
    74  H   -0.011064
    75  H   -0.006707
    76  H    0.014257
    77  H   -0.013418
    78  H    0.016309
    79  H    0.006102
    80  H   -0.008102
    81  H    0.001064
    82  H    0.009462
    83  H    0.004364
    84  H   -0.013623
    85  H   -0.027275
    86  H   -0.035724
    87  H   -0.008377
    88  H   -0.003528
    89  H   -0.009822
    90  H   -0.014210
    91  H   -0.019742
    92  H   -0.018586
    93  H   -0.000943
    94  H    0.021674
    95  H    0.020096
    96  H    0.018935
    97  H   -0.029370
    98  H    0.013371
    99  H    0.006616
   100  H    0.026073
   101  H    0.016894
   102  H    0.015224
   103  H   -0.000936
   104  H   -0.038419
   105  H    0.013380
   106  H   -0.012379
   107  H   -0.031333
   108  H   -0.027667
   109  H   -0.036735
   110  H   -0.020773
   111  H   -0.022647
   112  H   -0.026164
   113  H   -0.026494
   114  H   -0.036199
   115  H   -0.018234
   116  H   -0.015159
   117  H   -0.023257
   118  H   -0.029587
   119  H   -0.025365
   120  H   -0.024579
   121  H   -0.009073
   122  H   -0.043165
   123  H   -0.053460
   124  H   -0.045220
   125  H   -0.021190
   126  H   -0.025588
   127  H   -0.013094
   128  H   -0.029257
   129  H   -0.044677
   130  H   -0.029470
   131  H   -0.017235
   132  H   -0.020640
   133  H   -0.026428
   134  H   -0.039751
   135  H   -0.035874
   136  H   -0.001091
   137  H   -0.021069
   138  H   -0.007508
   139  H   -0.018803
   140  H   -0.025401
 Sum of Mulliken charges =  -0.00000

 Dipole moment (field-independent basis, Debye):
    X=              4.8225    Y=              2.7901    Z=             -1.2506  Tot=              5.7101
 Quadrupole moment (field-independent basis, Debye-Ang):
   XX=           -385.3906   YY=           -443.3350   ZZ=           -407.6386
   XY=            -29.9401   XZ=              1.6712   YZ=              4.8342

 Normal termination of Gaussian 16 at Wed May  4 18:33:11 2022.
