 Gaussian 16, Revision A.03,
 Gaussian 16:  ES64L-G16RevA.03 25-Dec-2016

 -----------------------------------
 #p cam-b3lyp/Def2SVP td=(nstates=5)
 -----------------------------------

 -------------------------------------------------------
 step_301_chromophore_15 TDDFT with cam-b3lyp functional
 -------------------------------------------------------
 Symbolic Z-matrix:
 Charge =  0 Multiplicity = 1

                         Standard orientation:
 ---------------------------------------------------------------------
 Center     Atomic      Atomic             Coordinates (Angstroms)
 Number     Number       Type             X           Y           Z
 ---------------------------------------------------------------------
      1         12           0       -5.043961    0.956262   -0.026173
      2          6           0       -4.458516   -2.530995    0.447935
      3          6           0       -1.602647    1.376618    0.061776
      4          6           0       -5.553816    4.230619    0.107470
      5          6           0       -8.454316    0.468707    0.567981
      6          7           0       -3.283327   -0.425496    0.237127
      7          6           0       -3.316337   -1.812189    0.079171
      8          6           0       -1.876088   -2.344478   -0.149430
      9          6           0       -0.995586   -1.051738    0.080153
     10          6           0       -2.001340    0.055108    0.121299
     11          6           0       -0.037244   -1.120531    1.286606
     12          6           0       -1.732042   -2.864343   -1.650038
     13          6           0       -0.816396   -4.050405   -1.955100
     14          6           0        0.423352   -4.218434   -0.926380
     15          8           0        0.459479   -4.631270    0.224259
     16          8           0        1.553767   -3.706124   -1.559350
     17          7           0       -3.796223    2.567471   -0.127856
     18          6           0       -2.371328    2.557621   -0.028709
     19          6           0       -1.854855    3.958202   -0.145124
     20          6           0       -3.091997    4.737056   -0.174699
     21          6           0       -4.232192    3.853883   -0.060805
     22          6           0       -0.395150    4.281357   -0.432067
     23          6           0       -3.215102    6.264428   -0.289308
     24          8           0       -4.259623    6.905934   -0.276401
     25          6           0       -1.887575    7.038266   -0.425352
     26          7           0       -6.732048    2.175822    0.387769
     27          6           0       -6.696310    3.507183    0.395516
     28          6           0       -8.082776    4.090471    0.602287
     29          6           0       -9.061020    2.891225    0.505053
     30          6           0       -8.010960    1.740186    0.484665
     31          6           0       -8.116545    4.750720    2.015372
     32          6           0      -10.091886    2.949105   -0.663201
     33          6           0       -9.493963    2.669270   -2.105030
     34          7           0       -6.246003   -0.683984    0.425442
     35          6           0       -7.607366   -0.636719    0.612422
     36          6           0       -8.067457   -2.016615    0.754277
     37          6           0       -6.812903   -2.807200    0.815652
     38          6           0       -5.725315   -1.929138    0.595342
     39          6           0       -9.447251   -2.578608    0.903129
     40          6           0       -6.241294   -4.151078    0.992006
     41          8           0       -6.831466   -5.175972    1.232086
     42          6           0       -4.665821   -3.964831    0.912367
     43          6           0       -3.905498   -5.019699    0.174264
     44          8           0       -3.924246   -5.309836   -0.994910
     45          8           0       -3.119969   -5.667936    1.144341
     46          6           0       -2.131881   -6.630158    0.578792
     47          6           0        2.831034   -3.676364   -0.815255
     48          6           0        3.996706   -2.976062   -1.500883
     49          6           0        5.319363   -3.096861   -1.354549
     50          6           0        5.975580   -3.631031   -0.145422
     51          6           0        6.283729   -2.441313   -2.294707
     52          6           0        6.902363   -1.031187   -1.799693
     53          6           0        7.729525   -0.284405   -2.933463
     54          6           0        8.046682    1.280708   -2.558031
     55          6           0        6.863051    2.280671   -2.873767
     56          6           0        9.442385    1.791276   -3.109726
     57          6           0       10.556769    1.034719   -2.462566
     58          6           0       11.782610    1.893520   -1.851833
     59          6           0       11.868504    1.999526   -0.312567
     60          6           0       12.726058    3.156971    0.093884
     61          6           0       12.295388    0.685232    0.362690
     62          6           0       11.457013    0.308354    1.638622
     63          6           0       12.399018    0.569350    2.888640
     64          6           0       11.642270    0.397033    4.253142
     65          6           0       10.981607    1.741153    4.610173
     66          6           0       12.694495   -0.023611    5.348076
     67          1           0       -0.515346    1.469494    0.097059
     68          1           0       -5.764561    5.294461    0.242304
     69          1           0       -9.523706    0.264468    0.657848
     70          1           0       -1.722473   -2.989412    0.715468
     71          1           0       -0.373417   -0.920489   -0.804613
     72          1           0        0.877547   -0.645962    0.930608
     73          1           0        0.117854   -2.121626    1.690994
     74          1           0       -0.460817   -0.529704    2.098384
     75          1           0       -1.300996   -2.085069   -2.279331
     76          1           0       -2.736447   -3.176935   -1.933591
     77          1           0       -0.336573   -3.846907   -2.911752
     78          1           0       -1.285275   -5.028949   -2.061506
     79          1           0       -0.256568    5.039245   -1.202515
     80          1           0        0.105474    3.347183   -0.688728
     81          1           0        0.096226    4.639526    0.472792
     82          1           0       -1.281669    6.855008   -1.313276
     83          1           0       -1.277646    6.810769    0.449104
     84          1           0       -2.076977    8.109966   -0.476290
     85          1           0       -8.435555    4.848569   -0.097222
     86          1           0       -9.676481    2.883587    1.404830
     87          1           0       -7.243841    5.365955    2.236393
     88          1           0       -8.163001    4.005268    2.809462
     89          1           0       -8.922823    5.483382    1.990454
     90          1           0      -10.561438    3.933177   -0.676909
     91          1           0      -10.815006    2.184075   -0.382573
     92          1           0       -9.958485    3.390840   -2.777774
     93          1           0       -9.917364    1.734301   -2.473409
     94          1           0       -8.427458    2.863855   -2.000460
     95          1           0       -9.501428   -3.150954    1.828453
     96          1           0       -9.628818   -3.198537    0.024212
     97          1           0      -10.086656   -1.696485    0.933742
     98          1           0       -4.182255   -3.990619    1.889229
     99          1           0       -2.454603   -7.651266    0.785907
    100          1           0       -1.244945   -6.401425    1.169379
    101          1           0       -1.846005   -6.619307   -0.473179
    102          1           0        3.042786   -4.662234   -0.401680
    103          1           0        2.666530   -2.970528   -0.002018
    104          1           0        3.680961   -2.395933   -2.367835
    105          1           0        6.503333   -2.881213    0.444124
    106          1           0        6.639623   -4.466269   -0.365816
    107          1           0        5.229037   -4.100476    0.496387
    108          1           0        5.934834   -2.433554   -3.327430
    109          1           0        7.177435   -3.063235   -2.335675
    110          1           0        7.537183   -1.260482   -0.942737
    111          1           0        6.156017   -0.332394   -1.421992
    112          1           0        7.146727   -0.225325   -3.853397
    113          1           0        8.699494   -0.726395   -3.159371
    114          1           0        8.088480    1.284673   -1.468497
    115          1           0        6.474160    2.598003   -1.906211
    116          1           0        6.014415    1.951270   -3.472965
    117          1           0        7.237761    3.178056   -3.367949
    118          1           0        9.559102    2.857217   -2.917125
    119          1           0        9.291313    1.610479   -4.174853
    120          1           0       10.927268    0.427934   -3.287964
    121          1           0       10.271877    0.432467   -1.599121
    122          1           0       11.936826    2.819697   -2.405044
    123          1           0       12.713599    1.406695   -2.140863
    124          1           0       10.831173    2.263439   -0.103773
    125          1           0       12.147969    4.073166    0.214438
    126          1           0       13.348472    3.298974   -0.789753
    127          1           0       13.299784    2.979707    1.002544
    128          1           0       13.374074    0.793362    0.471526
    129          1           0       12.069356   -0.059888   -0.400830
    130          1           0       11.243055   -0.761075    1.623450
    131          1           0       10.551271    0.912515    1.702584
    132          1           0       12.808388    1.576470    2.804836
    133          1           0       13.173603   -0.195781    2.837359
    134          1           0       10.958644   -0.440157    4.109859
    135          1           0       10.621587    2.104264    3.647402
    136          1           0       11.584685    2.524252    5.070061
    137          1           0       10.062209    1.529127    5.154419
    138          1           0       13.696445    0.136585    4.949260
    139          1           0       12.478939   -1.055492    5.623924
    140          1           0       12.509975    0.549116    6.257382
 ---------------------------------------------------------------------

 SCF Done:  E(RCAM-B3LYP) =  -3007.17094605     A.U. after   18 cycles

 Excitation energies and oscillator strengths:

 Excited State   1:      Singlet-A      1.7292 eV  716.99 nm  f=0.3786  <S**2>=0.000
     245 -> 248        0.18419
     246 -> 247        0.68503
     245 <- 248        0.10929
 This state for optimization and/or second-order correction.
 Total Energy, E(TD-HF/TD-DFT) =  -3007.10739800
 Copying the excited state density for this state as the 1-particle RhoCI density.

 Excited State   2:      Singlet-A      2.2297 eV  556.05 nm  f=0.1277  <S**2>=0.000
     245 -> 247        0.64483
     246 -> 248       -0.27474

 Excited State   3:      Singlet-A      3.0960 eV  400.47 nm  f=0.0093  <S**2>=0.000
     244 -> 247        0.68690

 Excited State   4:      Singlet-A      3.4020 eV  364.45 nm  f=0.0064  <S**2>=0.000
     241 -> 247       -0.31629
     242 -> 247        0.44493
     243 -> 247        0.36848
     246 -> 248        0.19004

 Excited State   5:      Singlet-A      3.5372 eV  350.51 nm  f=0.1041  <S**2>=0.000
     241 -> 247        0.45604
     241 -> 249        0.14491
     241 -> 251        0.12013
     242 -> 247        0.22653
     242 -> 249        0.11717
     243 -> 247        0.18281
     245 -> 247       -0.10862
     246 -> 248       -0.28364

 The electronic state is 1-A.
 Alpha  occ. eigenvalues --  -46.87957 -19.25409 -19.24455 -19.21366 -19.20386
 Alpha  occ. eigenvalues --  -19.19516 -19.18440 -14.42121 -14.41718 -14.39887
 Alpha  occ. eigenvalues --  -14.38579 -10.40752 -10.39211 -10.35770 -10.34623
 Alpha  occ. eigenvalues --  -10.32919 -10.31355 -10.31016 -10.30816 -10.30577
 Alpha  occ. eigenvalues --  -10.30402 -10.30355 -10.30274 -10.29864 -10.29162
 Alpha  occ. eigenvalues --  -10.28345 -10.28255 -10.28248 -10.28222 -10.28150
 Alpha  occ. eigenvalues --  -10.28119 -10.27980 -10.27661 -10.27623 -10.27510
 Alpha  occ. eigenvalues --  -10.27298 -10.27252 -10.27228 -10.27078 -10.26957
 Alpha  occ. eigenvalues --  -10.26733 -10.26669 -10.26560 -10.26395 -10.26328
 Alpha  occ. eigenvalues --  -10.26140 -10.26127 -10.26043 -10.26035 -10.25921
 Alpha  occ. eigenvalues --  -10.25749 -10.25746 -10.25637 -10.25555 -10.25423
 Alpha  occ. eigenvalues --  -10.25410 -10.25325 -10.25211 -10.25118 -10.25116
 Alpha  occ. eigenvalues --  -10.25060 -10.24968 -10.24669 -10.24512 -10.24406
 Alpha  occ. eigenvalues --  -10.24322  -3.16583  -1.91478  -1.91046  -1.90878
 Alpha  occ. eigenvalues --   -1.16181  -1.15433  -1.10219  -1.09911  -1.08163
 Alpha  occ. eigenvalues --   -1.07595  -1.04755  -1.03030  -1.02135  -1.01481
 Alpha  occ. eigenvalues --   -0.92473  -0.91014  -0.90267  -0.89112  -0.88939
 Alpha  occ. eigenvalues --   -0.88438  -0.88396  -0.87905  -0.87456  -0.86915
 Alpha  occ. eigenvalues --   -0.85738  -0.85112  -0.84177  -0.83316  -0.83086
 Alpha  occ. eigenvalues --   -0.82332  -0.81716  -0.81334  -0.80985  -0.80182
 Alpha  occ. eigenvalues --   -0.79957  -0.78633  -0.77756  -0.76838  -0.76188
 Alpha  occ. eigenvalues --   -0.75606  -0.75489  -0.75237  -0.75063  -0.74137
 Alpha  occ. eigenvalues --   -0.73567  -0.72388  -0.71697  -0.70154  -0.69888
 Alpha  occ. eigenvalues --   -0.68340  -0.67863  -0.67183  -0.67016  -0.66386
 Alpha  occ. eigenvalues --   -0.65217  -0.65038  -0.64594  -0.64059  -0.63573
 Alpha  occ. eigenvalues --   -0.63471  -0.63066  -0.62583  -0.61248  -0.60799
 Alpha  occ. eigenvalues --   -0.60290  -0.59073  -0.58789  -0.58626  -0.57344
 Alpha  occ. eigenvalues --   -0.57078  -0.56250  -0.56198  -0.55916  -0.55701
 Alpha  occ. eigenvalues --   -0.54990  -0.54976  -0.54502  -0.54323  -0.54099
 Alpha  occ. eigenvalues --   -0.54008  -0.53631  -0.53406  -0.53165  -0.53005
 Alpha  occ. eigenvalues --   -0.52685  -0.52426  -0.52210  -0.52194  -0.52011
 Alpha  occ. eigenvalues --   -0.51620  -0.51332  -0.50951  -0.50837  -0.50699
 Alpha  occ. eigenvalues --   -0.50391  -0.50292  -0.49934  -0.49908  -0.49596
 Alpha  occ. eigenvalues --   -0.49427  -0.49410  -0.49257  -0.49076  -0.48855
 Alpha  occ. eigenvalues --   -0.48598  -0.48522  -0.48239  -0.48174  -0.47996
 Alpha  occ. eigenvalues --   -0.47516  -0.47409  -0.47193  -0.46856  -0.46643
 Alpha  occ. eigenvalues --   -0.46640  -0.46442  -0.46265  -0.46043  -0.45959
 Alpha  occ. eigenvalues --   -0.45770  -0.45259  -0.45173  -0.45107  -0.45002
 Alpha  occ. eigenvalues --   -0.44789  -0.44601  -0.44256  -0.44125  -0.43987
 Alpha  occ. eigenvalues --   -0.43856  -0.43753  -0.43388  -0.43124  -0.43092
 Alpha  occ. eigenvalues --   -0.42945  -0.42850  -0.42508  -0.42369  -0.42298
 Alpha  occ. eigenvalues --   -0.42172  -0.42042  -0.41843  -0.41632  -0.41446
 Alpha  occ. eigenvalues --   -0.41132  -0.40890  -0.40730  -0.40460  -0.40377
 Alpha  occ. eigenvalues --   -0.40102  -0.39514  -0.39434  -0.39040  -0.38882
 Alpha  occ. eigenvalues --   -0.38725  -0.38526  -0.38285  -0.37730  -0.37462
 Alpha  occ. eigenvalues --   -0.37313  -0.37136  -0.37117  -0.36735  -0.36632
 Alpha  occ. eigenvalues --   -0.36157  -0.35958  -0.35185  -0.34687  -0.34562
 Alpha  occ. eigenvalues --   -0.34472  -0.33749  -0.33252  -0.31322  -0.31151
 Alpha  occ. eigenvalues --   -0.30351  -0.30015  -0.30007  -0.28167  -0.24035
 Alpha  occ. eigenvalues --   -0.21368
 Alpha virt. eigenvalues --   -0.08789  -0.01569   0.00381   0.02393   0.02808
 Alpha virt. eigenvalues --    0.04224   0.04835   0.04879   0.05572   0.06886
 Alpha virt. eigenvalues --    0.07851   0.08198   0.08420   0.08933   0.09137

 Mulliken charges:
               1
     1  Mg   0.823061
     2  C    0.007362
     3  C   -0.074514
     4  C   -0.079806
     5  C   -0.106782
     6  N   -0.285917
     7  C   -0.071468
     8  C   -0.033772
     9  C   -0.079538
    10  C    0.044130
    11  C    0.064684
    12  C    0.072496
    13  C    0.062000
    14  C    0.164751
    15  O   -0.236868
    16  O   -0.356229
    17  N   -0.422524
    18  C    0.160303
    19  C   -0.129979
    20  C   -0.057389
    21  C    0.182660
    22  C    0.115430
    23  C    0.032097
    24  O   -0.193981
    25  C    0.017742
    26  N   -0.270012
    27  C    0.032577
    28  C   -0.044404
    29  C   -0.021981
    30  C    0.057360
    31  C    0.057631
    32  C    0.000316
    33  C    0.014874
    34  N   -0.369056
    35  C    0.163383
    36  C   -0.207294
    37  C   -0.037991
    38  C    0.104298
    39  C    0.149078
    40  C    0.075068
    41  O   -0.149986
    42  C   -0.002553
    43  C    0.184290
    44  O   -0.195593
    45  O   -0.362060
    46  C    0.168271
    47  C    0.274754
    48  C   -0.102926
    49  C   -0.154764
    50  C    0.071424
    51  C    0.077441
    52  C    0.000889
    53  C    0.038628
    54  C   -0.171027
    55  C    0.039899
    56  C    0.071328
    57  C    0.012678
    58  C    0.012060
    59  C   -0.146059
    60  C    0.072184
    61  C    0.068199
    62  C    0.037199
    63  C   -0.027367
    64  C   -0.147087
    65  C    0.064748
    66  C    0.057156
    67  H   -0.035581
    68  H   -0.003687
    69  H   -0.023803
    70  H    0.027157
    71  H    0.002408
    72  H    0.018309
    73  H    0.041102
    74  H    0.016348
    75  H    0.021291
    76  H    0.046153
    77  H    0.023688
    78  H    0.044704
    79  H    0.032751
    80  H    0.020379
    81  H    0.030080
    82  H    0.036942
    83  H    0.031058
    84  H    0.022946
    85  H    0.008642
    86  H    0.001398
    87  H    0.016951
    88  H    0.021557
    89  H    0.015383
    90  H    0.012277
    91  H    0.006495
    92  H    0.005877
    93  H    0.023560
    94  H    0.039094
    95  H    0.044436
    96  H    0.043215
    97  H   -0.007993
    98  H    0.058293
    99  H    0.029962
   100  H    0.049665
   101  H    0.036253
   102  H    0.041760
   103  H    0.024748
   104  H   -0.003639
   105  H    0.036640
   106  H    0.014234
   107  H   -0.005456
   108  H    0.002638
   109  H   -0.006793
   110  H    0.003389
   111  H    0.002777
   112  H    0.000287
   113  H    0.000629
   114  H   -0.006793
   115  H    0.005021
   116  H    0.008668
   117  H    0.001889
   118  H   -0.000828
   119  H    0.003081
   120  H    0.005096
   121  H    0.013119
   122  H   -0.012290
   123  H   -0.023170
   124  H   -0.015689
   125  H    0.004641
   126  H   -0.001016
   127  H    0.009481
   128  H    0.000065
   129  H   -0.013498
   130  H   -0.000727
   131  H    0.007277
   132  H    0.002556
   133  H    0.002237
   134  H   -0.007189
   135  H   -0.013412
   136  H    0.023278
   137  H    0.004684
   138  H    0.016237
   139  H    0.005448
   140  H   -0.000213
 Sum of Mulliken charges =  -0.00000

 Dipole moment (field-independent basis, Debye):
    X=              5.6251    Y=              3.7789    Z=             -1.4659  Tot=              6.9333
 Quadrupole moment (field-independent basis, Debye-Ang):
   XX=           -389.8292   YY=           -438.9255   ZZ=           -407.9391
   XY=            -32.9276   XZ=              1.7943   YZ=              5.1208

 Normal termination of Gaussian 16 at Wed May  4 17:29:21 2022.
