 Gaussian 16, Revision A.03,
 Gaussian 16:  ES64L-G16RevA.03 25-Dec-2016

 ---------------------------------
 #p PBE1PBE/Def2SVP td=(nstates=5)
 ---------------------------------

 -----------------------------------------------------
 step_301_chromophore_15 TDDFT with PBE1PBE functional
 -----------------------------------------------------
 Symbolic Z-matrix:
 Charge =  0 Multiplicity = 1

                         Standard orientation:
 ---------------------------------------------------------------------
 Center     Atomic      Atomic             Coordinates (Angstroms)
 Number     Number       Type             X           Y           Z
 ---------------------------------------------------------------------
      1         12           0       -5.043961    0.956262   -0.026173
      2          6           0       -4.458516   -2.530995    0.447935
      3          6           0       -1.602647    1.376618    0.061776
      4          6           0       -5.553816    4.230619    0.107470
      5          6           0       -8.454316    0.468707    0.567981
      6          7           0       -3.283327   -0.425496    0.237127
      7          6           0       -3.316337   -1.812189    0.079171
      8          6           0       -1.876088   -2.344478   -0.149430
      9          6           0       -0.995586   -1.051738    0.080153
     10          6           0       -2.001340    0.055108    0.121299
     11          6           0       -0.037244   -1.120531    1.286606
     12          6           0       -1.732042   -2.864343   -1.650038
     13          6           0       -0.816396   -4.050405   -1.955100
     14          6           0        0.423352   -4.218434   -0.926380
     15          8           0        0.459479   -4.631270    0.224259
     16          8           0        1.553767   -3.706124   -1.559350
     17          7           0       -3.796223    2.567471   -0.127856
     18          6           0       -2.371328    2.557621   -0.028709
     19          6           0       -1.854855    3.958202   -0.145124
     20          6           0       -3.091997    4.737056   -0.174699
     21          6           0       -4.232192    3.853883   -0.060805
     22          6           0       -0.395150    4.281357   -0.432067
     23          6           0       -3.215102    6.264428   -0.289308
     24          8           0       -4.259623    6.905934   -0.276401
     25          6           0       -1.887575    7.038266   -0.425352
     26          7           0       -6.732048    2.175822    0.387769
     27          6           0       -6.696310    3.507183    0.395516
     28          6           0       -8.082776    4.090471    0.602287
     29          6           0       -9.061020    2.891225    0.505053
     30          6           0       -8.010960    1.740186    0.484665
     31          6           0       -8.116545    4.750720    2.015372
     32          6           0      -10.091886    2.949105   -0.663201
     33          6           0       -9.493963    2.669270   -2.105030
     34          7           0       -6.246003   -0.683984    0.425442
     35          6           0       -7.607366   -0.636719    0.612422
     36          6           0       -8.067457   -2.016615    0.754277
     37          6           0       -6.812903   -2.807200    0.815652
     38          6           0       -5.725315   -1.929138    0.595342
     39          6           0       -9.447251   -2.578608    0.903129
     40          6           0       -6.241294   -4.151078    0.992006
     41          8           0       -6.831466   -5.175972    1.232086
     42          6           0       -4.665821   -3.964831    0.912367
     43          6           0       -3.905498   -5.019699    0.174264
     44          8           0       -3.924246   -5.309836   -0.994910
     45          8           0       -3.119969   -5.667936    1.144341
     46          6           0       -2.131881   -6.630158    0.578792
     47          6           0        2.831034   -3.676364   -0.815255
     48          6           0        3.996706   -2.976062   -1.500883
     49          6           0        5.319363   -3.096861   -1.354549
     50          6           0        5.975580   -3.631031   -0.145422
     51          6           0        6.283729   -2.441313   -2.294707
     52          6           0        6.902363   -1.031187   -1.799693
     53          6           0        7.729525   -0.284405   -2.933463
     54          6           0        8.046682    1.280708   -2.558031
     55          6           0        6.863051    2.280671   -2.873767
     56          6           0        9.442385    1.791276   -3.109726
     57          6           0       10.556769    1.034719   -2.462566
     58          6           0       11.782610    1.893520   -1.851833
     59          6           0       11.868504    1.999526   -0.312567
     60          6           0       12.726058    3.156971    0.093884
     61          6           0       12.295388    0.685232    0.362690
     62          6           0       11.457013    0.308354    1.638622
     63          6           0       12.399018    0.569350    2.888640
     64          6           0       11.642270    0.397033    4.253142
     65          6           0       10.981607    1.741153    4.610173
     66          6           0       12.694495   -0.023611    5.348076
     67          1           0       -0.515346    1.469494    0.097059
     68          1           0       -5.764561    5.294461    0.242304
     69          1           0       -9.523706    0.264468    0.657848
     70          1           0       -1.722473   -2.989412    0.715468
     71          1           0       -0.373417   -0.920489   -0.804613
     72          1           0        0.877547   -0.645962    0.930608
     73          1           0        0.117854   -2.121626    1.690994
     74          1           0       -0.460817   -0.529704    2.098384
     75          1           0       -1.300996   -2.085069   -2.279331
     76          1           0       -2.736447   -3.176935   -1.933591
     77          1           0       -0.336573   -3.846907   -2.911752
     78          1           0       -1.285275   -5.028949   -2.061506
     79          1           0       -0.256568    5.039245   -1.202515
     80          1           0        0.105474    3.347183   -0.688728
     81          1           0        0.096226    4.639526    0.472792
     82          1           0       -1.281669    6.855008   -1.313276
     83          1           0       -1.277646    6.810769    0.449104
     84          1           0       -2.076977    8.109966   -0.476290
     85          1           0       -8.435555    4.848569   -0.097222
     86          1           0       -9.676481    2.883587    1.404830
     87          1           0       -7.243841    5.365955    2.236393
     88          1           0       -8.163001    4.005268    2.809462
     89          1           0       -8.922823    5.483382    1.990454
     90          1           0      -10.561438    3.933177   -0.676909
     91          1           0      -10.815006    2.184075   -0.382573
     92          1           0       -9.958485    3.390840   -2.777774
     93          1           0       -9.917364    1.734301   -2.473409
     94          1           0       -8.427458    2.863855   -2.000460
     95          1           0       -9.501428   -3.150954    1.828453
     96          1           0       -9.628818   -3.198537    0.024212
     97          1           0      -10.086656   -1.696485    0.933742
     98          1           0       -4.182255   -3.990619    1.889229
     99          1           0       -2.454603   -7.651266    0.785907
    100          1           0       -1.244945   -6.401425    1.169379
    101          1           0       -1.846005   -6.619307   -0.473179
    102          1           0        3.042786   -4.662234   -0.401680
    103          1           0        2.666530   -2.970528   -0.002018
    104          1           0        3.680961   -2.395933   -2.367835
    105          1           0        6.503333   -2.881213    0.444124
    106          1           0        6.639623   -4.466269   -0.365816
    107          1           0        5.229037   -4.100476    0.496387
    108          1           0        5.934834   -2.433554   -3.327430
    109          1           0        7.177435   -3.063235   -2.335675
    110          1           0        7.537183   -1.260482   -0.942737
    111          1           0        6.156017   -0.332394   -1.421992
    112          1           0        7.146727   -0.225325   -3.853397
    113          1           0        8.699494   -0.726395   -3.159371
    114          1           0        8.088480    1.284673   -1.468497
    115          1           0        6.474160    2.598003   -1.906211
    116          1           0        6.014415    1.951270   -3.472965
    117          1           0        7.237761    3.178056   -3.367949
    118          1           0        9.559102    2.857217   -2.917125
    119          1           0        9.291313    1.610479   -4.174853
    120          1           0       10.927268    0.427934   -3.287964
    121          1           0       10.271877    0.432467   -1.599121
    122          1           0       11.936826    2.819697   -2.405044
    123          1           0       12.713599    1.406695   -2.140863
    124          1           0       10.831173    2.263439   -0.103773
    125          1           0       12.147969    4.073166    0.214438
    126          1           0       13.348472    3.298974   -0.789753
    127          1           0       13.299784    2.979707    1.002544
    128          1           0       13.374074    0.793362    0.471526
    129          1           0       12.069356   -0.059888   -0.400830
    130          1           0       11.243055   -0.761075    1.623450
    131          1           0       10.551271    0.912515    1.702584
    132          1           0       12.808388    1.576470    2.804836
    133          1           0       13.173603   -0.195781    2.837359
    134          1           0       10.958644   -0.440157    4.109859
    135          1           0       10.621587    2.104264    3.647402
    136          1           0       11.584685    2.524252    5.070061
    137          1           0       10.062209    1.529127    5.154419
    138          1           0       13.696445    0.136585    4.949260
    139          1           0       12.478939   -1.055492    5.623924
    140          1           0       12.509975    0.549116    6.257382
 ---------------------------------------------------------------------

 SCF Done:  E(RPBE1PBE) =  -3005.35802133     A.U. after   15 cycles

 Excitation energies and oscillator strengths:

 Excited State   1:      Singlet-A      1.8780 eV  660.18 nm  f=0.3668  <S**2>=0.000
     245 -> 248        0.17991
     246 -> 247        0.69176
     246 <- 247       -0.10457
 This state for optimization and/or second-order correction.
 Total Energy, E(TD-HF/TD-DFT) =  -3005.28900488
 Copying the excited state density for this state as the 1-particle RhoCI density.

 Excited State   2:      Singlet-A      2.2312 eV  555.70 nm  f=0.1212  <S**2>=0.000
     245 -> 247        0.65533
     246 -> 248       -0.25132

 Excited State   3:      Singlet-A      2.7259 eV  454.83 nm  f=0.0075  <S**2>=0.000
     244 -> 247        0.69770

 Excited State   4:      Singlet-A      2.9629 eV  418.46 nm  f=0.0020  <S**2>=0.000
     243 -> 247        0.68042
     243 -> 249        0.11272

 Excited State   5:      Singlet-A      3.0546 eV  405.89 nm  f=0.0000  <S**2>=0.000
     240 -> 247        0.65028
     240 -> 249       -0.16696
     241 -> 247       -0.19013

 The electronic state is 1-A.
 Alpha  occ. eigenvalues --  -46.91364 -19.26138 -19.25202 -19.21631 -19.20608
 Alpha  occ. eigenvalues --  -19.19544 -19.18817 -14.41611 -14.41243 -14.39491
 Alpha  occ. eigenvalues --  -14.38387 -10.37852 -10.36239 -10.32729 -10.31908
 Alpha  occ. eigenvalues --  -10.30328 -10.28919 -10.28854 -10.28358 -10.28132
 Alpha  occ. eigenvalues --  -10.27843 -10.27740 -10.27715 -10.27654 -10.27121
 Alpha  occ. eigenvalues --  -10.26196 -10.26152 -10.26100 -10.25856 -10.25768
 Alpha  occ. eigenvalues --  -10.25652 -10.25465 -10.25374 -10.25333 -10.25268
 Alpha  occ. eigenvalues --  -10.25044 -10.24964 -10.24833 -10.24807 -10.24518
 Alpha  occ. eigenvalues --  -10.24480 -10.24258 -10.24189 -10.23951 -10.23911
 Alpha  occ. eigenvalues --  -10.23847 -10.23586 -10.23470 -10.23401 -10.23314
 Alpha  occ. eigenvalues --  -10.23264 -10.23252 -10.23232 -10.23021 -10.23009
 Alpha  occ. eigenvalues --  -10.22978 -10.22885 -10.22864 -10.22729 -10.22693
 Alpha  occ. eigenvalues --  -10.22641 -10.22526 -10.22358 -10.22041 -10.21792
 Alpha  occ. eigenvalues --  -10.21696  -3.13566  -1.86402  -1.85948  -1.85785
 Alpha  occ. eigenvalues --   -1.10991  -1.10209  -1.04826  -1.04767  -1.03048
 Alpha  occ. eigenvalues --   -1.02479  -0.99381  -0.97618  -0.96790  -0.96135
 Alpha  occ. eigenvalues --   -0.86918  -0.85151  -0.84344  -0.83420  -0.83162
 Alpha  occ. eigenvalues --   -0.82728  -0.82466  -0.82246  -0.81546  -0.81011
 Alpha  occ. eigenvalues --   -0.80015  -0.79483  -0.78367  -0.77671  -0.77320
 Alpha  occ. eigenvalues --   -0.76523  -0.75892  -0.75482  -0.75304  -0.74394
 Alpha  occ. eigenvalues --   -0.74139  -0.72772  -0.72068  -0.71179  -0.70345
 Alpha  occ. eigenvalues --   -0.69848  -0.69672  -0.69400  -0.69358  -0.68319
 Alpha  occ. eigenvalues --   -0.67873  -0.66924  -0.66110  -0.64457  -0.64247
 Alpha  occ. eigenvalues --   -0.62633  -0.62342  -0.61492  -0.61332  -0.60558
 Alpha  occ. eigenvalues --   -0.59786  -0.59500  -0.59131  -0.58580  -0.58102
 Alpha  occ. eigenvalues --   -0.57581  -0.57236  -0.56759  -0.55844  -0.55242
 Alpha  occ. eigenvalues --   -0.54668  -0.53707  -0.53429  -0.53143  -0.51978
 Alpha  occ. eigenvalues --   -0.51610  -0.50786  -0.50592  -0.50488  -0.50240
 Alpha  occ. eigenvalues --   -0.49487  -0.49467  -0.49063  -0.48678  -0.48616
 Alpha  occ. eigenvalues --   -0.48450  -0.48188  -0.47864  -0.47679  -0.47475
 Alpha  occ. eigenvalues --   -0.47314  -0.46991  -0.46725  -0.46613  -0.46371
 Alpha  occ. eigenvalues --   -0.46128  -0.45819  -0.45588  -0.45431  -0.45228
 Alpha  occ. eigenvalues --   -0.45039  -0.44794  -0.44456  -0.44412  -0.44216
 Alpha  occ. eigenvalues --   -0.44032  -0.43931  -0.43758  -0.43636  -0.43537
 Alpha  occ. eigenvalues --   -0.43219  -0.43123  -0.42868  -0.42745  -0.42703
 Alpha  occ. eigenvalues --   -0.42104  -0.41979  -0.41827  -0.41486  -0.41370
 Alpha  occ. eigenvalues --   -0.41175  -0.41170  -0.40936  -0.40750  -0.40698
 Alpha  occ. eigenvalues --   -0.40466  -0.40000  -0.39973  -0.39857  -0.39822
 Alpha  occ. eigenvalues --   -0.39594  -0.39268  -0.39009  -0.38787  -0.38663
 Alpha  occ. eigenvalues --   -0.38547  -0.38529  -0.38122  -0.37979  -0.37837
 Alpha  occ. eigenvalues --   -0.37752  -0.37609  -0.37217  -0.37192  -0.37022
 Alpha  occ. eigenvalues --   -0.36982  -0.36871  -0.36663  -0.36408  -0.36255
 Alpha  occ. eigenvalues --   -0.36075  -0.35625  -0.35581  -0.35385  -0.35122
 Alpha  occ. eigenvalues --   -0.35052  -0.34466  -0.34268  -0.33819  -0.33786
 Alpha  occ. eigenvalues --   -0.33705  -0.33290  -0.33174  -0.32701  -0.32337
 Alpha  occ. eigenvalues --   -0.32311  -0.32207  -0.31964  -0.31677  -0.31596
 Alpha  occ. eigenvalues --   -0.31127  -0.30885  -0.30099  -0.29698  -0.29480
 Alpha  occ. eigenvalues --   -0.29414  -0.28977  -0.28789  -0.26879  -0.25837
 Alpha  occ. eigenvalues --   -0.25670  -0.25327  -0.25245  -0.24026  -0.20971
 Alpha  occ. eigenvalues --   -0.18973
 Alpha virt. eigenvalues --   -0.11252  -0.05075  -0.03811  -0.01842  -0.00505
 Alpha virt. eigenvalues --   -0.00072   0.00179   0.00354   0.01139   0.03313
 Alpha virt. eigenvalues --    0.04124   0.04622   0.05022   0.05183   0.05558

 Mulliken charges:
               1
     1  Mg   0.969758
     2  C    0.004700
     3  C   -0.067655
     4  C   -0.062558
     5  C   -0.085242
     6  N   -0.382378
     7  C    0.003320
     8  C   -0.120152
     9  C   -0.148186
    10  C    0.078172
    11  C    0.007806
    12  C    0.027680
    13  C   -0.010410
    14  C    0.227037
    15  O   -0.270255
    16  O   -0.387099
    17  N   -0.534180
    18  C    0.175522
    19  C   -0.148804
    20  C   -0.104799
    21  C    0.208911
    22  C    0.050411
    23  C    0.082189
    24  O   -0.233764
    25  C   -0.054648
    26  N   -0.379456
    27  C    0.061353
    28  C   -0.125372
    29  C   -0.085245
    30  C    0.085780
    31  C    0.003033
    32  C   -0.058572
    33  C   -0.062426
    34  N   -0.498460
    35  C    0.185430
    36  C   -0.221538
    37  C   -0.081530
    38  C    0.149091
    39  C    0.087619
    40  C    0.167045
    41  O   -0.196220
    42  C   -0.108446
    43  C    0.276064
    44  O   -0.233606
    45  O   -0.393463
    46  C    0.111948
    47  C    0.236730
    48  C   -0.116055
    49  C   -0.199947
    50  C    0.008999
    51  C    0.012502
    52  C   -0.063392
    53  C   -0.013313
    54  C   -0.252475
    55  C   -0.018560
    56  C    0.014468
    57  C   -0.054534
    58  C   -0.039502
    59  C   -0.229162
    60  C    0.011199
    61  C    0.006872
    62  C   -0.023315
    63  C   -0.089436
    64  C   -0.236462
    65  C   -0.000254
    66  C   -0.003118
    67  H   -0.003585
    68  H    0.027982
    69  H    0.006774
    70  H    0.065523
    71  H    0.039380
    72  H    0.044675
    73  H    0.066877
    74  H    0.045145
    75  H    0.052299
    76  H    0.079134
    77  H    0.056868
    78  H    0.075946
    79  H    0.059491
    80  H    0.046916
    81  H    0.057465
    82  H    0.062201
    83  H    0.058246
    84  H    0.050085
    85  H    0.044220
    86  H    0.038860
    87  H    0.045990
    88  H    0.048466
    89  H    0.043658
    90  H    0.045156
    91  H    0.038772
    92  H    0.034926
    93  H    0.050921
    94  H    0.070315
    95  H    0.072579
    96  H    0.072042
    97  H    0.022717
    98  H    0.096207
    99  H    0.053054
   100  H    0.072050
   101  H    0.058638
   102  H    0.066509
   103  H    0.054390
   104  H    0.026681
   105  H    0.063135
   106  H    0.042171
   107  H    0.023325
   108  H    0.033252
   109  H    0.027991
   110  H    0.035500
   111  H    0.036313
   112  H    0.032826
   113  H    0.033369
   114  H    0.032526
   115  H    0.032233
   116  H    0.035043
   117  H    0.029268
   118  H    0.031369
   119  H    0.036715
   120  H    0.037451
   121  H    0.046126
   122  H    0.019460
   123  H    0.011216
   124  H    0.024869
   125  H    0.032944
   126  H    0.027204
   127  H    0.036912
   128  H    0.032002
   129  H    0.021180
   130  H    0.032103
   131  H    0.037484
   132  H    0.038793
   133  H    0.035950
   134  H    0.029638
   135  H    0.016708
   136  H    0.049646
   137  H    0.033917
   138  H    0.042827
   139  H    0.033368
   140  H    0.027943
 Sum of Mulliken charges =  -0.00000

 Dipole moment (field-independent basis, Debye):
    X=              5.2884    Y=              3.4440    Z=             -1.4203  Tot=              6.4689
 Quadrupole moment (field-independent basis, Debye-Ang):
   XX=           -380.8219   YY=           -437.1569   ZZ=           -405.4612
   XY=            -32.1360   XZ=              1.3666   YZ=              4.8474

 Normal termination of Gaussian 16 at Wed May  4 17:46:01 2022.
