 Gaussian 16, Revision A.03,
 Gaussian 16:  ES64L-G16RevA.03 25-Dec-2016

 --------------------------------
 #p wB97XD/Def2SVP td=(nstates=5)
 --------------------------------

 ----------------------------------------------------
 step_301_chromophore_15 TDDFT with wB97XD functional
 ----------------------------------------------------
 Symbolic Z-matrix:
 Charge =  0 Multiplicity = 1

                         Standard orientation:
 ---------------------------------------------------------------------
 Center     Atomic      Atomic             Coordinates (Angstroms)
 Number     Number       Type             X           Y           Z
 ---------------------------------------------------------------------
      1         12           0       -5.043961    0.956262   -0.026173
      2          6           0       -4.458516   -2.530995    0.447935
      3          6           0       -1.602647    1.376618    0.061776
      4          6           0       -5.553816    4.230619    0.107470
      5          6           0       -8.454316    0.468707    0.567981
      6          7           0       -3.283327   -0.425496    0.237127
      7          6           0       -3.316337   -1.812189    0.079171
      8          6           0       -1.876088   -2.344478   -0.149430
      9          6           0       -0.995586   -1.051738    0.080153
     10          6           0       -2.001340    0.055108    0.121299
     11          6           0       -0.037244   -1.120531    1.286606
     12          6           0       -1.732042   -2.864343   -1.650038
     13          6           0       -0.816396   -4.050405   -1.955100
     14          6           0        0.423352   -4.218434   -0.926380
     15          8           0        0.459479   -4.631270    0.224259
     16          8           0        1.553767   -3.706124   -1.559350
     17          7           0       -3.796223    2.567471   -0.127856
     18          6           0       -2.371328    2.557621   -0.028709
     19          6           0       -1.854855    3.958202   -0.145124
     20          6           0       -3.091997    4.737056   -0.174699
     21          6           0       -4.232192    3.853883   -0.060805
     22          6           0       -0.395150    4.281357   -0.432067
     23          6           0       -3.215102    6.264428   -0.289308
     24          8           0       -4.259623    6.905934   -0.276401
     25          6           0       -1.887575    7.038266   -0.425352
     26          7           0       -6.732048    2.175822    0.387769
     27          6           0       -6.696310    3.507183    0.395516
     28          6           0       -8.082776    4.090471    0.602287
     29          6           0       -9.061020    2.891225    0.505053
     30          6           0       -8.010960    1.740186    0.484665
     31          6           0       -8.116545    4.750720    2.015372
     32          6           0      -10.091886    2.949105   -0.663201
     33          6           0       -9.493963    2.669270   -2.105030
     34          7           0       -6.246003   -0.683984    0.425442
     35          6           0       -7.607366   -0.636719    0.612422
     36          6           0       -8.067457   -2.016615    0.754277
     37          6           0       -6.812903   -2.807200    0.815652
     38          6           0       -5.725315   -1.929138    0.595342
     39          6           0       -9.447251   -2.578608    0.903129
     40          6           0       -6.241294   -4.151078    0.992006
     41          8           0       -6.831466   -5.175972    1.232086
     42          6           0       -4.665821   -3.964831    0.912367
     43          6           0       -3.905498   -5.019699    0.174264
     44          8           0       -3.924246   -5.309836   -0.994910
     45          8           0       -3.119969   -5.667936    1.144341
     46          6           0       -2.131881   -6.630158    0.578792
     47          6           0        2.831034   -3.676364   -0.815255
     48          6           0        3.996706   -2.976062   -1.500883
     49          6           0        5.319363   -3.096861   -1.354549
     50          6           0        5.975580   -3.631031   -0.145422
     51          6           0        6.283729   -2.441313   -2.294707
     52          6           0        6.902363   -1.031187   -1.799693
     53          6           0        7.729525   -0.284405   -2.933463
     54          6           0        8.046682    1.280708   -2.558031
     55          6           0        6.863051    2.280671   -2.873767
     56          6           0        9.442385    1.791276   -3.109726
     57          6           0       10.556769    1.034719   -2.462566
     58          6           0       11.782610    1.893520   -1.851833
     59          6           0       11.868504    1.999526   -0.312567
     60          6           0       12.726058    3.156971    0.093884
     61          6           0       12.295388    0.685232    0.362690
     62          6           0       11.457013    0.308354    1.638622
     63          6           0       12.399018    0.569350    2.888640
     64          6           0       11.642270    0.397033    4.253142
     65          6           0       10.981607    1.741153    4.610173
     66          6           0       12.694495   -0.023611    5.348076
     67          1           0       -0.515346    1.469494    0.097059
     68          1           0       -5.764561    5.294461    0.242304
     69          1           0       -9.523706    0.264468    0.657848
     70          1           0       -1.722473   -2.989412    0.715468
     71          1           0       -0.373417   -0.920489   -0.804613
     72          1           0        0.877547   -0.645962    0.930608
     73          1           0        0.117854   -2.121626    1.690994
     74          1           0       -0.460817   -0.529704    2.098384
     75          1           0       -1.300996   -2.085069   -2.279331
     76          1           0       -2.736447   -3.176935   -1.933591
     77          1           0       -0.336573   -3.846907   -2.911752
     78          1           0       -1.285275   -5.028949   -2.061506
     79          1           0       -0.256568    5.039245   -1.202515
     80          1           0        0.105474    3.347183   -0.688728
     81          1           0        0.096226    4.639526    0.472792
     82          1           0       -1.281669    6.855008   -1.313276
     83          1           0       -1.277646    6.810769    0.449104
     84          1           0       -2.076977    8.109966   -0.476290
     85          1           0       -8.435555    4.848569   -0.097222
     86          1           0       -9.676481    2.883587    1.404830
     87          1           0       -7.243841    5.365955    2.236393
     88          1           0       -8.163001    4.005268    2.809462
     89          1           0       -8.922823    5.483382    1.990454
     90          1           0      -10.561438    3.933177   -0.676909
     91          1           0      -10.815006    2.184075   -0.382573
     92          1           0       -9.958485    3.390840   -2.777774
     93          1           0       -9.917364    1.734301   -2.473409
     94          1           0       -8.427458    2.863855   -2.000460
     95          1           0       -9.501428   -3.150954    1.828453
     96          1           0       -9.628818   -3.198537    0.024212
     97          1           0      -10.086656   -1.696485    0.933742
     98          1           0       -4.182255   -3.990619    1.889229
     99          1           0       -2.454603   -7.651266    0.785907
    100          1           0       -1.244945   -6.401425    1.169379
    101          1           0       -1.846005   -6.619307   -0.473179
    102          1           0        3.042786   -4.662234   -0.401680
    103          1           0        2.666530   -2.970528   -0.002018
    104          1           0        3.680961   -2.395933   -2.367835
    105          1           0        6.503333   -2.881213    0.444124
    106          1           0        6.639623   -4.466269   -0.365816
    107          1           0        5.229037   -4.100476    0.496387
    108          1           0        5.934834   -2.433554   -3.327430
    109          1           0        7.177435   -3.063235   -2.335675
    110          1           0        7.537183   -1.260482   -0.942737
    111          1           0        6.156017   -0.332394   -1.421992
    112          1           0        7.146727   -0.225325   -3.853397
    113          1           0        8.699494   -0.726395   -3.159371
    114          1           0        8.088480    1.284673   -1.468497
    115          1           0        6.474160    2.598003   -1.906211
    116          1           0        6.014415    1.951270   -3.472965
    117          1           0        7.237761    3.178056   -3.367949
    118          1           0        9.559102    2.857217   -2.917125
    119          1           0        9.291313    1.610479   -4.174853
    120          1           0       10.927268    0.427934   -3.287964
    121          1           0       10.271877    0.432467   -1.599121
    122          1           0       11.936826    2.819697   -2.405044
    123          1           0       12.713599    1.406695   -2.140863
    124          1           0       10.831173    2.263439   -0.103773
    125          1           0       12.147969    4.073166    0.214438
    126          1           0       13.348472    3.298974   -0.789753
    127          1           0       13.299784    2.979707    1.002544
    128          1           0       13.374074    0.793362    0.471526
    129          1           0       12.069356   -0.059888   -0.400830
    130          1           0       11.243055   -0.761075    1.623450
    131          1           0       10.551271    0.912515    1.702584
    132          1           0       12.808388    1.576470    2.804836
    133          1           0       13.173603   -0.195781    2.837359
    134          1           0       10.958644   -0.440157    4.109859
    135          1           0       10.621587    2.104264    3.647402
    136          1           0       11.584685    2.524252    5.070061
    137          1           0       10.062209    1.529127    5.154419
    138          1           0       13.696445    0.136585    4.949260
    139          1           0       12.478939   -1.055492    5.623924
    140          1           0       12.509975    0.549116    6.257382
 ---------------------------------------------------------------------

 SCF Done:  E(RwB97XD) =  -3007.87061181     A.U. after   19 cycles

 Excitation energies and oscillator strengths:

 Excited State   1:      Singlet-A      1.6772 eV  739.22 nm  f=0.3773  <S**2>=0.000
     245 -> 248        0.18874
     246 -> 247        0.68292
     245 <- 248        0.11786
 This state for optimization and/or second-order correction.
 Total Energy, E(TD-HF/TD-DFT) =  -3007.80897480
 Copying the excited state density for this state as the 1-particle RhoCI density.

 Excited State   2:      Singlet-A      2.1752 eV  570.00 nm  f=0.1233  <S**2>=0.000
     245 -> 247        0.64151
     246 -> 248       -0.27755

 Excited State   3:      Singlet-A      3.1454 eV  394.18 nm  f=0.0089  <S**2>=0.000
     244 -> 247        0.67731
     244 -> 249        0.10415

 Excited State   4:      Singlet-A      3.4062 eV  363.99 nm  f=0.0129  <S**2>=0.000
     241 -> 247        0.49895
     242 -> 247        0.40154
     246 -> 248        0.22720

 Excited State   5:      Singlet-A      3.5751 eV  346.80 nm  f=0.1444  <S**2>=0.000
     240 -> 247       -0.13855
     240 -> 249        0.11185
     241 -> 247       -0.24357
     242 -> 247        0.42363
     242 -> 249        0.19209
     242 -> 250       -0.16796
     245 -> 247       -0.12851
     246 -> 248       -0.30286

 The electronic state is 1-A.
 Alpha  occ. eigenvalues --  -46.94315 -19.30656 -19.29688 -19.26279 -19.25302
 Alpha  occ. eigenvalues --  -19.24586 -19.23446 -14.46752 -14.46294 -14.44543
 Alpha  occ. eigenvalues --  -14.43151 -10.44596 -10.43044 -10.39797 -10.38595
 Alpha  occ. eigenvalues --  -10.36822 -10.35500 -10.35032 -10.34866 -10.34619
 Alpha  occ. eigenvalues --  -10.34530 -10.34484 -10.34135 -10.33826 -10.33116
 Alpha  occ. eigenvalues --  -10.32461 -10.32313 -10.32215 -10.32173 -10.32169
 Alpha  occ. eigenvalues --  -10.32155 -10.32116 -10.31708 -10.31648 -10.31558
 Alpha  occ. eigenvalues --  -10.31381 -10.31284 -10.31215 -10.31109 -10.30926
 Alpha  occ. eigenvalues --  -10.30761 -10.30617 -10.30484 -10.30353 -10.30303
 Alpha  occ. eigenvalues --  -10.30108 -10.30035 -10.29907 -10.29876 -10.29874
 Alpha  occ. eigenvalues --  -10.29694 -10.29620 -10.29465 -10.29457 -10.29378
 Alpha  occ. eigenvalues --  -10.29368 -10.29258 -10.29174 -10.29088 -10.29061
 Alpha  occ. eigenvalues --  -10.29007 -10.28811 -10.28544 -10.28490 -10.28221
 Alpha  occ. eigenvalues --  -10.28149  -3.20365  -1.93951  -1.93499  -1.93331
 Alpha  occ. eigenvalues --   -1.18342  -1.17567  -1.12477  -1.12116  -1.10362
 Alpha  occ. eigenvalues --   -1.09792  -1.06745  -1.05028  -1.04183  -1.03512
 Alpha  occ. eigenvalues --   -0.94420  -0.92849  -0.92026  -0.91038  -0.90792
 Alpha  occ. eigenvalues --   -0.90323  -0.90167  -0.89842  -0.89234  -0.88896
 Alpha  occ. eigenvalues --   -0.87658  -0.87000  -0.86040  -0.85216  -0.84974
 Alpha  occ. eigenvalues --   -0.84193  -0.83636  -0.83199  -0.82919  -0.82115
 Alpha  occ. eigenvalues --   -0.81828  -0.80630  -0.79656  -0.78744  -0.78042
 Alpha  occ. eigenvalues --   -0.77434  -0.77390  -0.77063  -0.76987  -0.75991
 Alpha  occ. eigenvalues --   -0.75491  -0.74361  -0.73668  -0.72085  -0.71792
 Alpha  occ. eigenvalues --   -0.70252  -0.69844  -0.69106  -0.68994  -0.68242
 Alpha  occ. eigenvalues --   -0.67207  -0.67053  -0.66572  -0.66017  -0.65551
 Alpha  occ. eigenvalues --   -0.65283  -0.64916  -0.64418  -0.63235  -0.62826
 Alpha  occ. eigenvalues --   -0.62197  -0.61049  -0.60783  -0.60590  -0.59342
 Alpha  occ. eigenvalues --   -0.59031  -0.58195  -0.58084  -0.57865  -0.57670
 Alpha  occ. eigenvalues --   -0.56919  -0.56880  -0.56460  -0.56170  -0.56003
 Alpha  occ. eigenvalues --   -0.55901  -0.55542  -0.55297  -0.55061  -0.54890
 Alpha  occ. eigenvalues --   -0.54621  -0.54327  -0.54173  -0.54129  -0.53944
 Alpha  occ. eigenvalues --   -0.53535  -0.53212  -0.52858  -0.52752  -0.52583
 Alpha  occ. eigenvalues --   -0.52294  -0.52186  -0.51895  -0.51783  -0.51502
 Alpha  occ. eigenvalues --   -0.51329  -0.51296  -0.51236  -0.50978  -0.50824
 Alpha  occ. eigenvalues --   -0.50543  -0.50464  -0.50159  -0.50055  -0.49915
 Alpha  occ. eigenvalues --   -0.49459  -0.49310  -0.49103  -0.48737  -0.48603
 Alpha  occ. eigenvalues --   -0.48467  -0.48350  -0.48188  -0.47939  -0.47882
 Alpha  occ. eigenvalues --   -0.47715  -0.47157  -0.47078  -0.47025  -0.46908
 Alpha  occ. eigenvalues --   -0.46708  -0.46462  -0.46198  -0.46013  -0.45856
 Alpha  occ. eigenvalues --   -0.45803  -0.45707  -0.45323  -0.45024  -0.45020
 Alpha  occ. eigenvalues --   -0.44886  -0.44763  -0.44372  -0.44325  -0.44274
 Alpha  occ. eigenvalues --   -0.44090  -0.43923  -0.43737  -0.43511  -0.43348
 Alpha  occ. eigenvalues --   -0.43112  -0.42733  -0.42624  -0.42362  -0.42230
 Alpha  occ. eigenvalues --   -0.42000  -0.41409  -0.41301  -0.40879  -0.40770
 Alpha  occ. eigenvalues --   -0.40630  -0.40367  -0.40159  -0.39743  -0.39314
 Alpha  occ. eigenvalues --   -0.39310  -0.39214  -0.38967  -0.38595  -0.38539
 Alpha  occ. eigenvalues --   -0.38146  -0.37841  -0.37045  -0.36687  -0.36485
 Alpha  occ. eigenvalues --   -0.36322  -0.35716  -0.35475  -0.33489  -0.33169
 Alpha  occ. eigenvalues --   -0.32472  -0.32079  -0.32037  -0.30309  -0.25964
 Alpha  occ. eigenvalues --   -0.23182
 Alpha virt. eigenvalues --   -0.07140   0.00335   0.02432   0.04691   0.05708
 Alpha virt. eigenvalues --    0.06494   0.07016   0.07033   0.07893   0.09790
 Alpha virt. eigenvalues --    0.10646   0.11251   0.11709   0.11944   0.12348

 Mulliken charges:
               1
     1  Mg   0.959257
     2  C   -0.003722
     3  C   -0.085834
     4  C   -0.085618
     5  C   -0.106088
     6  N   -0.349664
     7  C   -0.027950
     8  C   -0.089076
     9  C   -0.123112
    10  C    0.066650
    11  C    0.016972
    12  C    0.037728
    13  C    0.008310
    14  C    0.210988
    15  O   -0.264857
    16  O   -0.385957
    17  N   -0.505727
    18  C    0.174758
    19  C   -0.142600
    20  C   -0.097988
    21  C    0.204939
    22  C    0.065318
    23  C    0.078293
    24  O   -0.225996
    25  C   -0.041991
    26  N   -0.342374
    27  C    0.054712
    28  C   -0.102681
    29  C   -0.060545
    30  C    0.070486
    31  C    0.011214
    32  C   -0.046983
    33  C   -0.041225
    34  N   -0.458027
    35  C    0.175731
    36  C   -0.220567
    37  C   -0.079202
    38  C    0.133358
    39  C    0.103528
    40  C    0.150542
    41  O   -0.188329
    42  C   -0.068446
    43  C    0.248700
    44  O   -0.225853
    45  O   -0.391544
    46  C    0.128049
    47  C    0.249139
    48  C   -0.124252
    49  C   -0.185542
    50  C    0.020819
    51  C    0.031457
    52  C   -0.043960
    53  C   -0.001908
    54  C   -0.219375
    55  C   -0.009020
    56  C    0.029068
    57  C   -0.034659
    58  C   -0.023066
    59  C   -0.198644
    60  C    0.023776
    61  C    0.024467
    62  C   -0.008391
    63  C   -0.065091
    64  C   -0.210429
    65  C    0.013112
    66  C    0.008054
    67  H   -0.010415
    68  H    0.022031
    69  H    0.000006
    70  H    0.050706
    71  H    0.027953
    72  H    0.039110
    73  H    0.062561
    74  H    0.039164
    75  H    0.044605
    76  H    0.070176
    77  H    0.051777
    78  H    0.068619
    79  H    0.054721
    80  H    0.042924
    81  H    0.054174
    82  H    0.057489
    83  H    0.051723
    84  H    0.049569
    85  H    0.036161
    86  H    0.028932
    87  H    0.039081
    88  H    0.043230
    89  H    0.038480
    90  H    0.036926
    91  H    0.030958
    92  H    0.029121
    93  H    0.045927
    94  H    0.057921
    95  H    0.067208
    96  H    0.066086
    97  H    0.014239
    98  H    0.088578
    99  H    0.050134
   100  H    0.068709
   101  H    0.051246
   102  H    0.062567
   103  H    0.047297
   104  H    0.024212
   105  H    0.057846
   106  H    0.037095
   107  H    0.017244
   108  H    0.027029
   109  H    0.018473
   110  H    0.025311
   111  H    0.026034
   112  H    0.023374
   113  H    0.024276
   114  H    0.016440
   115  H    0.026521
   116  H    0.029889
   117  H    0.023479
   118  H    0.022698
   119  H    0.027855
   120  H    0.030729
   121  H    0.029683
   122  H    0.011258
   123  H    0.000007
   124  H    0.008087
   125  H    0.028225
   126  H    0.019585
   127  H    0.029924
   128  H    0.022528
   129  H    0.011311
   130  H    0.025113
   131  H    0.027226
   132  H    0.022678
   133  H    0.025983
   134  H    0.020102
   135  H    0.006310
   136  H    0.045194
   137  H    0.028491
   138  H    0.036806
   139  H    0.028076
   140  H    0.022083
 Sum of Mulliken charges =  -0.00000

 Dipole moment (field-independent basis, Debye):
    X=              5.7789    Y=              3.9777    Z=             -1.5046  Tot=              7.1751
 Quadrupole moment (field-independent basis, Debye-Ang):
   XX=           -385.6461   YY=           -434.7810   ZZ=           -405.0397
   XY=            -33.4724   XZ=              2.0348   YZ=              4.8378

 Normal termination of Gaussian 16 at Wed May  4 18:21:21 2022.
