 Gaussian 16, Revision A.03,
 Gaussian 16:  ES64L-G16RevA.03 25-Dec-2016

 --------------------
 #p ZINDO=(nstates=5)
 --------------------

 -----------------------------
 step_301_chromophore_15 ZINDO
 -----------------------------
 Symbolic Z-matrix:
 Charge =  0 Multiplicity = 1

                         Standard orientation:
 ---------------------------------------------------------------------
 Center     Atomic      Atomic             Coordinates (Angstroms)
 Number     Number       Type             X           Y           Z
 ---------------------------------------------------------------------
      1         12           0       -5.043961    0.956262   -0.026173
      2          6           0       -4.458516   -2.530995    0.447935
      3          6           0       -1.602647    1.376618    0.061776
      4          6           0       -5.553816    4.230619    0.107470
      5          6           0       -8.454316    0.468707    0.567981
      6          7           0       -3.283327   -0.425496    0.237127
      7          6           0       -3.316337   -1.812189    0.079171
      8          6           0       -1.876088   -2.344478   -0.149430
      9          6           0       -0.995586   -1.051738    0.080153
     10          6           0       -2.001340    0.055108    0.121299
     11          6           0       -0.037244   -1.120531    1.286606
     12          6           0       -1.732042   -2.864343   -1.650038
     13          6           0       -0.816396   -4.050405   -1.955100
     14          6           0        0.423352   -4.218434   -0.926380
     15          8           0        0.459479   -4.631270    0.224259
     16          8           0        1.553767   -3.706124   -1.559350
     17          7           0       -3.796223    2.567471   -0.127856
     18          6           0       -2.371328    2.557621   -0.028709
     19          6           0       -1.854855    3.958202   -0.145124
     20          6           0       -3.091997    4.737056   -0.174699
     21          6           0       -4.232192    3.853883   -0.060805
     22          6           0       -0.395150    4.281357   -0.432067
     23          6           0       -3.215102    6.264428   -0.289308
     24          8           0       -4.259623    6.905934   -0.276401
     25          6           0       -1.887575    7.038266   -0.425352
     26          7           0       -6.732048    2.175822    0.387769
     27          6           0       -6.696310    3.507183    0.395516
     28          6           0       -8.082776    4.090471    0.602287
     29          6           0       -9.061020    2.891225    0.505053
     30          6           0       -8.010960    1.740186    0.484665
     31          6           0       -8.116545    4.750720    2.015372
     32          6           0      -10.091886    2.949105   -0.663201
     33          6           0       -9.493963    2.669270   -2.105030
     34          7           0       -6.246003   -0.683984    0.425442
     35          6           0       -7.607366   -0.636719    0.612422
     36          6           0       -8.067457   -2.016615    0.754277
     37          6           0       -6.812903   -2.807200    0.815652
     38          6           0       -5.725315   -1.929138    0.595342
     39          6           0       -9.447251   -2.578608    0.903129
     40          6           0       -6.241294   -4.151078    0.992006
     41          8           0       -6.831466   -5.175972    1.232086
     42          6           0       -4.665821   -3.964831    0.912367
     43          6           0       -3.905498   -5.019699    0.174264
     44          8           0       -3.924246   -5.309836   -0.994910
     45          8           0       -3.119969   -5.667936    1.144341
     46          6           0       -2.131881   -6.630158    0.578792
     47          6           0        2.831034   -3.676364   -0.815255
     48          6           0        3.996706   -2.976062   -1.500883
     49          6           0        5.319363   -3.096861   -1.354549
     50          6           0        5.975580   -3.631031   -0.145422
     51          6           0        6.283729   -2.441313   -2.294707
     52          6           0        6.902363   -1.031187   -1.799693
     53          6           0        7.729525   -0.284405   -2.933463
     54          6           0        8.046682    1.280708   -2.558031
     55          6           0        6.863051    2.280671   -2.873767
     56          6           0        9.442385    1.791276   -3.109726
     57          6           0       10.556769    1.034719   -2.462566
     58          6           0       11.782610    1.893520   -1.851833
     59          6           0       11.868504    1.999526   -0.312567
     60          6           0       12.726058    3.156971    0.093884
     61          6           0       12.295388    0.685232    0.362690
     62          6           0       11.457013    0.308354    1.638622
     63          6           0       12.399018    0.569350    2.888640
     64          6           0       11.642270    0.397033    4.253142
     65          6           0       10.981607    1.741153    4.610173
     66          6           0       12.694495   -0.023611    5.348076
     67          1           0       -0.515346    1.469494    0.097059
     68          1           0       -5.764561    5.294461    0.242304
     69          1           0       -9.523706    0.264468    0.657848
     70          1           0       -1.722473   -2.989412    0.715468
     71          1           0       -0.373417   -0.920489   -0.804613
     72          1           0        0.877547   -0.645962    0.930608
     73          1           0        0.117854   -2.121626    1.690994
     74          1           0       -0.460817   -0.529704    2.098384
     75          1           0       -1.300996   -2.085069   -2.279331
     76          1           0       -2.736447   -3.176935   -1.933591
     77          1           0       -0.336573   -3.846907   -2.911752
     78          1           0       -1.285275   -5.028949   -2.061506
     79          1           0       -0.256568    5.039245   -1.202515
     80          1           0        0.105474    3.347183   -0.688728
     81          1           0        0.096226    4.639526    0.472792
     82          1           0       -1.281669    6.855008   -1.313276
     83          1           0       -1.277646    6.810769    0.449104
     84          1           0       -2.076977    8.109966   -0.476290
     85          1           0       -8.435555    4.848569   -0.097222
     86          1           0       -9.676481    2.883587    1.404830
     87          1           0       -7.243841    5.365955    2.236393
     88          1           0       -8.163001    4.005268    2.809462
     89          1           0       -8.922823    5.483382    1.990454
     90          1           0      -10.561438    3.933177   -0.676909
     91          1           0      -10.815006    2.184075   -0.382573
     92          1           0       -9.958485    3.390840   -2.777774
     93          1           0       -9.917364    1.734301   -2.473409
     94          1           0       -8.427458    2.863855   -2.000460
     95          1           0       -9.501428   -3.150954    1.828453
     96          1           0       -9.628818   -3.198537    0.024212
     97          1           0      -10.086656   -1.696485    0.933742
     98          1           0       -4.182255   -3.990619    1.889229
     99          1           0       -2.454603   -7.651266    0.785907
    100          1           0       -1.244945   -6.401425    1.169379
    101          1           0       -1.846005   -6.619307   -0.473179
    102          1           0        3.042786   -4.662234   -0.401680
    103          1           0        2.666530   -2.970528   -0.002018
    104          1           0        3.680961   -2.395933   -2.367835
    105          1           0        6.503333   -2.881213    0.444124
    106          1           0        6.639623   -4.466269   -0.365816
    107          1           0        5.229037   -4.100476    0.496387
    108          1           0        5.934834   -2.433554   -3.327430
    109          1           0        7.177435   -3.063235   -2.335675
    110          1           0        7.537183   -1.260482   -0.942737
    111          1           0        6.156017   -0.332394   -1.421992
    112          1           0        7.146727   -0.225325   -3.853397
    113          1           0        8.699494   -0.726395   -3.159371
    114          1           0        8.088480    1.284673   -1.468497
    115          1           0        6.474160    2.598003   -1.906211
    116          1           0        6.014415    1.951270   -3.472965
    117          1           0        7.237761    3.178056   -3.367949
    118          1           0        9.559102    2.857217   -2.917125
    119          1           0        9.291313    1.610479   -4.174853
    120          1           0       10.927268    0.427934   -3.287964
    121          1           0       10.271877    0.432467   -1.599121
    122          1           0       11.936826    2.819697   -2.405044
    123          1           0       12.713599    1.406695   -2.140863
    124          1           0       10.831173    2.263439   -0.103773
    125          1           0       12.147969    4.073166    0.214438
    126          1           0       13.348472    3.298974   -0.789753
    127          1           0       13.299784    2.979707    1.002544
    128          1           0       13.374074    0.793362    0.471526
    129          1           0       12.069356   -0.059888   -0.400830
    130          1           0       11.243055   -0.761075    1.623450
    131          1           0       10.551271    0.912515    1.702584
    132          1           0       12.808388    1.576470    2.804836
    133          1           0       13.173603   -0.195781    2.837359
    134          1           0       10.958644   -0.440157    4.109859
    135          1           0       10.621587    2.104264    3.647402
    136          1           0       11.584685    2.524252    5.070061
    137          1           0       10.062209    1.529127    5.154419
    138          1           0       13.696445    0.136585    4.949260
    139          1           0       12.478939   -1.055492    5.623924
    140          1           0       12.509975    0.549116    6.257382
 ---------------------------------------------------------------------

 SCF Done:  E(RZINDO/S) =  -473.944966191     A.U. after   19 cycles

 Excitation energies and oscillator strengths:

 Excited State   1:      Singlet-A      1.2836 eV  965.90 nm  f=0.5918  <S**2>=0.000
     175 ->178         0.18754
     176 ->177         0.66444
 This state for optimization and/or second-order correction.
 Total Energy, E(CIS/TDA) =  -473.897794323
 Copying the excited state density for this state as the 1-particle RhoCI density.

 Excited State   2:      Singlet-A      1.9213 eV  645.30 nm  f=0.0621  <S**2>=0.000
     175 ->177         0.55675
     176 ->178        -0.40556

 Excited State   3:      Singlet-A      2.9753 eV  416.71 nm  f=0.1022  <S**2>=0.000
     167 ->179        -0.15257
     168 ->177         0.30398
     168 ->179        -0.39651
     168 ->180        -0.16558
     168 ->184        -0.10436
     168 ->186        -0.20679
     171 ->177        -0.13017
     175 ->177         0.11656
     176 ->178         0.18249

 Excited State   4:      Singlet-A      3.0120 eV  411.63 nm  f=0.8400  <S**2>=0.000
     168 ->177        -0.11267
     168 ->179         0.15937
     171 ->177        -0.13664
     175 ->177         0.32678
     176 ->178         0.47827
     176 ->179        -0.17038
     176 ->180         0.12714

 Excited State   5:      Singlet-A      3.0492 eV  406.61 nm  f=0.0454  <S**2>=0.000
     170 ->177         0.14692
     170 ->180        -0.10672
     172 ->177        -0.12282
     174 ->177         0.58632
     174 ->179         0.10078
     176 ->179        -0.14443

 The electronic state is 1-A.
 Alpha  occ. eigenvalues --   -1.83474  -1.81103  -1.78804  -1.71091  -1.70350
 Alpha  occ. eigenvalues --   -1.68957  -1.65297  -1.58750  -1.57963  -1.57177
 Alpha  occ. eigenvalues --   -1.55385  -1.51666  -1.47790  -1.47119  -1.46005
 Alpha  occ. eigenvalues --   -1.45415  -1.42486  -1.40192  -1.39370  -1.37217
 Alpha  occ. eigenvalues --   -1.36502  -1.33166  -1.32849  -1.31697  -1.29568
 Alpha  occ. eigenvalues --   -1.27834  -1.25097  -1.22066  -1.20556  -1.18963
 Alpha  occ. eigenvalues --   -1.16899  -1.16281  -1.14829  -1.14534  -1.13918
 Alpha  occ. eigenvalues --   -1.12563  -1.11630  -1.09714  -1.04762  -1.03472
 Alpha  occ. eigenvalues --   -1.02446  -1.00264  -0.98287  -0.97955  -0.96975
 Alpha  occ. eigenvalues --   -0.94887  -0.94262  -0.93971  -0.93447  -0.92333
 Alpha  occ. eigenvalues --   -0.90928  -0.90055  -0.88033  -0.87589  -0.87202
 Alpha  occ. eigenvalues --   -0.85122  -0.83799  -0.82797  -0.81715  -0.80427
 Alpha  occ. eigenvalues --   -0.79674  -0.78240  -0.76528  -0.76460  -0.75701
 Alpha  occ. eigenvalues --   -0.75529  -0.75169  -0.74451  -0.73655  -0.73203
 Alpha  occ. eigenvalues --   -0.72621  -0.71737  -0.71679  -0.70808  -0.70562
 Alpha  occ. eigenvalues --   -0.69677  -0.68947  -0.68665  -0.68603  -0.68458
 Alpha  occ. eigenvalues --   -0.67638  -0.67003  -0.66721  -0.65909  -0.65858
 Alpha  occ. eigenvalues --   -0.64895  -0.64663  -0.64378  -0.64321  -0.63416
 Alpha  occ. eigenvalues --   -0.63003  -0.62725  -0.62431  -0.62228  -0.61952
 Alpha  occ. eigenvalues --   -0.61150  -0.61028  -0.60995  -0.60628  -0.60280
 Alpha  occ. eigenvalues --   -0.60117  -0.59891  -0.59593  -0.58835  -0.58488
 Alpha  occ. eigenvalues --   -0.58050  -0.57570  -0.57438  -0.56667  -0.56509
 Alpha  occ. eigenvalues --   -0.56184  -0.55467  -0.55349  -0.55234  -0.54717
 Alpha  occ. eigenvalues --   -0.53919  -0.53549  -0.53494  -0.53310  -0.52987
 Alpha  occ. eigenvalues --   -0.52436  -0.52247  -0.51889  -0.51814  -0.51626
 Alpha  occ. eigenvalues --   -0.51188  -0.50746  -0.50725  -0.50520  -0.50493
 Alpha  occ. eigenvalues --   -0.49975  -0.49819  -0.49629  -0.49286  -0.49066
 Alpha  occ. eigenvalues --   -0.48896  -0.48777  -0.48568  -0.48267  -0.47891
 Alpha  occ. eigenvalues --   -0.47751  -0.47286  -0.47228  -0.46908  -0.46701
 Alpha  occ. eigenvalues --   -0.46636  -0.46422  -0.46253  -0.46049  -0.45741
 Alpha  occ. eigenvalues --   -0.45432  -0.45019  -0.44812  -0.44762  -0.44501
 Alpha  occ. eigenvalues --   -0.43933  -0.43914  -0.43012  -0.42814  -0.42405
 Alpha  occ. eigenvalues --   -0.42140  -0.41739  -0.41554  -0.39637  -0.39281
 Alpha  occ. eigenvalues --   -0.38484  -0.36674  -0.35832  -0.35091  -0.34256
 Alpha  occ. eigenvalues --   -0.33448  -0.32565  -0.32406  -0.30757  -0.26591
 Alpha  occ. eigenvalues --   -0.21997
 Alpha virt. eigenvalues --   -0.08632  -0.02079  -0.00482   0.01375   0.01662
 Alpha virt. eigenvalues --    0.02074   0.02674   0.02995   0.04225   0.04854
 Alpha virt. eigenvalues --    0.06033   0.06506   0.07356   0.07869   0.08122

 Mulliken charges:
               1
     1  Mg   0.418489
     2  C   -0.017343
     3  C   -0.073121
     4  C   -0.074818
     5  C   -0.054124
     6  N   -0.292080
     7  C    0.090007
     8  C   -0.005065
     9  C    0.001386
    10  C    0.159374
    11  C   -0.048852
    12  C   -0.011945
    13  C    0.011254
    14  C    0.453387
    15  O   -0.511487
    16  O   -0.283824
    17  N   -0.339884
    18  C    0.112753
    19  C    0.008596
    20  C   -0.042057
    21  C    0.168954
    22  C   -0.032444
    23  C    0.324793
    24  O   -0.508947
    25  C   -0.036174
    26  N   -0.266515
    27  C    0.174644
    28  C    0.005016
    29  C   -0.013659
    30  C    0.107098
    31  C   -0.052490
    32  C   -0.036446
    33  C   -0.065919
    34  N   -0.324110
    35  C    0.087555
    36  C   -0.000423
    37  C   -0.084612
    38  C    0.094741
    39  C   -0.036509
    40  C    0.336307
    41  O   -0.508210
    42  C    0.058759
    43  C    0.484970
    44  O   -0.507930
    45  O   -0.275689
    46  C    0.067813
    47  C    0.106977
    48  C   -0.077419
    49  C   -0.001436
    50  C   -0.039662
    51  C   -0.025082
    52  C   -0.031324
    53  C   -0.041734
    54  C   -0.030797
    55  C   -0.063373
    56  C   -0.025959
    57  C   -0.038164
    58  C   -0.049679
    59  C   -0.006091
    60  C   -0.057240
    61  C   -0.037058
    62  C   -0.041925
    63  C   -0.042409
    64  C   -0.021102
    65  C   -0.055158
    66  C   -0.065318
    67  H    0.023396
    68  H    0.037690
    69  H    0.034627
    70  H    0.052325
    71  H    0.023772
    72  H    0.019597
    73  H    0.036941
    74  H    0.019196
    75  H    0.031527
    76  H    0.040639
    77  H    0.029046
    78  H    0.054399
    79  H    0.037539
    80  H    0.027718
    81  H    0.032957
    82  H    0.037121
    83  H    0.032322
    84  H    0.031546
    85  H    0.034516
    86  H    0.023270
    87  H    0.018564
    88  H    0.028543
    89  H    0.019626
    90  H    0.021131
    91  H    0.018212
    92  H    0.011717
    93  H    0.032707
    94  H    0.040652
    95  H    0.040757
    96  H    0.041404
    97  H    0.020165
    98  H    0.059469
    99  H    0.036746
   100  H    0.035013
   101  H    0.051532
   102  H    0.058496
   103  H    0.041504
   104  H    0.021864
   105  H    0.034448
   106  H    0.024581
   107  H    0.009995
   108  H    0.024543
   109  H    0.014698
   110  H    0.021316
   111  H    0.024030
   112  H    0.020913
   113  H    0.026566
   114  H    0.011911
   115  H    0.012626
   116  H    0.022827
   117  H    0.015038
   118  H    0.022263
   119  H    0.023270
   120  H    0.017635
   121  H    0.027480
   122  H    0.018945
   123  H    0.002737
   124  H    0.011561
   125  H    0.013597
   126  H    0.019820
   127  H    0.022109
   128  H    0.030838
   129  H    0.011216
   130  H    0.021180
   131  H    0.030013
   132  H    0.025884
   133  H    0.016333
   134  H    0.027673
   135  H    0.007937
   136  H    0.034260
   137  H    0.014165
   138  H    0.028612
   139  H    0.017150
   140  H    0.016315
 Sum of Mulliken charges =  -0.00000

 Dipole moment (field-independent basis, Debye):
    X=              8.7203    Y=              6.4285    Z=             -1.3910  Tot=             10.9227
 N-N= 4.337611477744D+03 E-N= 0.000000000000D+00  KE=-9.349155937913D+03
 Leave Link  601 at Wed May  4 18:33:17 2022, MaxMem=  6710886400 cpu:               0.8 elap:               0.0
 (Enter /sw/apps/gaussian-16.0/g16/l9999.exe)
 1\1\GINC-BP1-COMPUTE123\SP\RZINDO CIS\STO-3G\C55H74Mg1N4O6\OF15641\04-
 May-2022\0\\#p ZINDO=(nstates=5)\\step_301_chromophore_15 ZINDO\\0,1\M
 g,0,46.664,34.717,27.817\C,0,45.204,32.745,30.407\C,0,46.666,37.362,30
 .06\C,0,47.48,36.714,25.298\C,0,45.989,32.185,25.503\N,0,45.998,34.986
 ,29.953\C,0,45.752,33.951,30.857\C,0,45.804,34.503,32.307\C,0,45.946,3
 6.06,32.073\C,0,46.234,36.17,30.609\C,0,44.761,36.907,32.58\C,0,47.091
 ,33.926,33.051\C,0,47.034,33.645,34.553\C,0,45.988,34.576,35.367\O,0,4

 Normal termination of Gaussian 16 at Wed May  4 18:33:18 2022.
