 Gaussian 16, Revision A.03,
 Gaussian 16:  ES64L-G16RevA.03 25-Dec-2016

 ------------------------------
 #p blyp/Def2SVP td=(nstates=5)
 ------------------------------

 -------------------------------------------------
 step_951_chromophore_3 TDDFT with blyp functional
 -------------------------------------------------
 Symbolic Z-matrix:
 Charge =  0 Multiplicity = 1

                         Standard orientation:
 ---------------------------------------------------------------------
 Center     Atomic      Atomic             Coordinates (Angstroms)
 Number     Number       Type             X           Y           Z
 ---------------------------------------------------------------------
      1         12           0       -5.457072    0.850578   -0.099015
      2          6           0       -4.601817   -2.556062    0.214281
      3          6           0       -2.267831    1.641501   -0.165882
      4          6           0       -6.586299    3.925244    0.148527
      5          6           0       -8.885061   -0.249444    0.357606
      6          7           0       -3.685001   -0.366339    0.029642
      7          6           0       -3.560067   -1.752545    0.039383
      8          6           0       -2.066578   -2.150693   -0.175290
      9          6           0       -1.362981   -0.756639   -0.094593
     10          6           0       -2.486646    0.261805   -0.095909
     11          6           0       -0.362335   -0.490081    1.032355
     12          6           0       -1.999822   -2.848177   -1.601245
     13          6           0       -0.500507   -3.032428   -2.153575
     14          6           0        0.728332   -2.836322   -1.281340
     15          8           0        0.904879   -3.525538   -0.247731
     16          8           0        1.612552   -2.064719   -1.979972
     17          7           0       -4.528186    2.568385    0.088490
     18          6           0       -3.193147    2.734382   -0.046179
     19          6           0       -2.842108    4.187933    0.137066
     20          6           0       -4.124970    4.839364    0.247825
     21          6           0       -5.127202    3.767469    0.159018
     22          6           0       -1.508589    4.741132    0.194370
     23          6           0       -4.395837    6.357355    0.419844
     24          8           0       -5.533623    6.846650    0.560028
     25          6           0       -3.197389    7.349490    0.423173
     26          7           0       -7.526492    1.716264    0.349860
     27          6           0       -7.660753    3.038774    0.206861
     28          6           0       -9.151896    3.415440    0.225843
     29          6           0       -9.884437    2.097907    0.605491
     30          6           0       -8.741386    1.118306    0.388232
     31          6           0       -9.491000    4.561801    1.305881
     32          6           0      -11.211505    1.857386   -0.204780
     33          6           0      -11.144108    1.419484   -1.686103
     34          7           0       -6.546583   -1.032342    0.369858
     35          6           0       -7.882958   -1.328153    0.390172
     36          6           0       -8.178716   -2.714063    0.616948
     37          6           0       -6.891042   -3.285604    0.543743
     38          6           0       -5.958391   -2.217650    0.383569
     39          6           0       -9.574793   -3.359590    0.788089
     40          6           0       -6.136634   -4.574099    0.462123
     41          8           0       -6.468504   -5.735947    0.457110
     42          6           0       -4.604164   -4.085277    0.285521
     43          6           0       -3.674472   -4.720265    1.236738
     44          8           0       -3.625259   -4.547547    2.440079
     45          8           0       -2.838736   -5.579783    0.617318
     46          6           0       -1.782924   -6.154486    1.487023
     47          6           0        2.971099   -2.109954   -1.429010
     48          6           0        4.016048   -1.658703   -2.389508
     49          6           0        5.325265   -1.974940   -2.332129
     50          6           0        5.999668   -2.882263   -1.350253
     51          6           0        6.178629   -1.391067   -3.493707
     52          6           0        6.988044   -0.224950   -3.153255
     53          6           0        8.579640   -0.430355   -3.246622
     54          6           0        9.245795    0.581798   -2.246760
     55          6           0        9.070576    0.188579   -0.793673
     56          6           0       10.776485    0.580469   -2.478136
     57          6           0       11.397746    1.965096   -2.127660
     58          6           0       12.873167    1.791626   -1.672016
     59          6           0       13.071549    2.443725   -0.268214
     60          6           0       13.679448    3.838302   -0.426352
     61          6           0       13.838169    1.742772    0.892158
     62          6           0       12.921150    1.208454    2.082741
     63          6           0       13.570421   -0.026161    2.748926
     64          6           0       13.448298   -0.128759    4.290170
     65          6           0       14.753710   -0.698195    4.797367
     66          6           0       12.294057   -0.927948    4.706572
     67          1           0       -1.228831    1.967749   -0.247033
     68          1           0       -6.927901    4.954981    0.277069
     69          1           0       -9.895319   -0.659468    0.429452
     70          1           0       -1.699056   -2.807054    0.612070
     71          1           0       -0.744314   -0.573297   -0.973645
     72          1           0       -0.921765   -0.262699    1.939683
     73          1           0        0.385627    0.234319    0.710851
     74          1           0        0.185872   -1.406400    1.250161
     75          1           0       -2.568085   -2.261294   -2.323831
     76          1           0       -2.410816   -3.856649   -1.567930
     77          1           0       -0.436791   -2.602550   -3.153244
     78          1           0       -0.444598   -4.113999   -2.280847
     79          1           0       -1.482810    5.497046    0.979994
     80          1           0       -1.331849    5.269820   -0.742346
     81          1           0       -0.700619    4.014506    0.282749
     82          1           0       -3.760995    8.281612    0.461410
     83          1           0       -2.694022    7.362916   -0.543180
     84          1           0       -2.621527    7.212215    1.338385
     85          1           0       -9.367935    3.644025   -0.817083
     86          1           0      -10.159407    2.033396    1.658072
     87          1           0       -8.707218    4.778203    2.032356
     88          1           0      -10.415387    4.324389    1.832824
     89          1           0       -9.623214    5.456497    0.697650
     90          1           0      -11.918826    2.681430   -0.108014
     91          1           0      -11.621871    1.101302    0.464029
     92          1           0      -11.774523    2.098570   -2.260453
     93          1           0      -11.470508    0.381960   -1.621154
     94          1           0      -10.155442    1.538334   -2.129093
     95          1           0      -10.136653   -2.978645    1.640445
     96          1           0       -9.501825   -4.443321    0.878811
     97          1           0      -10.158896   -2.872964    0.007344
     98          1           0       -4.414697   -4.516601   -0.697399
     99          1           0       -2.059852   -7.022157    2.085181
    100          1           0       -1.337890   -5.511129    2.246735
    101          1           0       -1.024212   -6.539464    0.805755
    102          1           0        3.097103   -3.180874   -1.269607
    103          1           0        2.939060   -1.549009   -0.494474
    104          1           0        3.639662   -1.146742   -3.274623
    105          1           0        6.981082   -2.482216   -1.096496
    106          1           0        6.005995   -3.846855   -1.857212
    107          1           0        5.453733   -2.970145   -0.410551
    108          1           0        5.533223   -1.238219   -4.359431
    109          1           0        6.755057   -2.277650   -3.758333
    110          1           0        6.720151    0.104886   -2.149474
    111          1           0        6.777334    0.572205   -3.865914
    112          1           0        8.928385   -0.369315   -4.277891
    113          1           0        8.946966   -1.424587   -2.992685
    114          1           0        8.790817    1.548577   -2.461742
    115          1           0        8.248930   -0.524574   -0.721835
    116          1           0        8.839106    1.148839   -0.333594
    117          1           0        9.974641   -0.172767   -0.302116
    118          1           0       11.100019    0.292261   -3.479023
    119          1           0       11.275399   -0.229809   -1.946343
    120          1           0       10.720607    2.636024   -1.600495
    121          1           0       11.483357    2.395441   -3.125483
    122          1           0       13.630843    2.045979   -2.413348
    123          1           0       13.180953    0.765380   -1.473570
    124          1           0       12.038767    2.543202    0.065334
    125          1           0       14.760486    3.848227   -0.567444
    126          1           0       13.394336    4.427490    0.445753
    127          1           0       13.194273    4.394535   -1.228480
    128          1           0       14.706744    2.294613    1.251895
    129          1           0       14.205261    0.764462    0.583204
    130          1           0       11.969033    1.020747    1.584936
    131          1           0       12.924344    2.067373    2.753210
    132          1           0       14.593338   -0.074123    2.375806
    133          1           0       13.051576   -0.786372    2.164501
    134          1           0       13.211687    0.771254    4.858410
    135          1           0       15.649486   -0.169488    4.468855
    136          1           0       14.774253   -1.761890    4.562839
    137          1           0       14.740884   -0.635400    5.885152
    138          1           0       11.885029   -0.496351    5.620757
    139          1           0       12.516673   -1.993606    4.765927
    140          1           0       11.452202   -0.815050    4.023807
 ---------------------------------------------------------------------

 SCF Done:  E(RB-LYP) =  -3007.35687472     A.U. after   22 cycles

 Excitation energies and oscillator strengths:

 Excited State   1:      Singlet-A      1.8125 eV  684.04 nm  f=0.3184  <S**2>=0.000
     245 -> 248        0.11436
     245 -> 249        0.14365
     246 -> 247        0.69344
     246 <- 247       -0.15733
 This state for optimization and/or second-order correction.
 Total Energy, E(TD-HF/TD-DFT) =  -3007.29026545
 Copying the excited state density for this state as the 1-particle RhoCI density.

 Excited State   2:      Singlet-A      1.9709 eV  629.07 nm  f=0.0426  <S**2>=0.000
     244 -> 247        0.59314
     245 -> 247        0.36240

 Excited State   3:      Singlet-A      2.0230 eV  612.87 nm  f=0.0830  <S**2>=0.000
     244 -> 247       -0.38135
     245 -> 247        0.55348
     246 -> 248       -0.11833
     246 -> 249       -0.13345

 Excited State   4:      Singlet-A      2.1159 eV  585.96 nm  f=0.0013  <S**2>=0.000
     243 -> 247        0.70633

 Excited State   5:      Singlet-A      2.4570 eV  504.61 nm  f=0.0045  <S**2>=0.000
     241 -> 247       -0.48121
     242 -> 247        0.49917

 The electronic state is 1-A.
 Alpha  occ. eigenvalues --  -46.27784 -18.83618 -18.81683 -18.77715 -18.76276
 Alpha  occ. eigenvalues --  -18.75988 -18.75049 -14.02930 -14.02270 -14.01618
 Alpha  occ. eigenvalues --  -14.00204 -10.05186 -10.02535 -10.00756  -9.99769
 Alpha  occ. eigenvalues --   -9.98295  -9.96697  -9.96543  -9.96437  -9.96354
 Alpha  occ. eigenvalues --   -9.95745  -9.95710  -9.95459  -9.94880  -9.94591
 Alpha  occ. eigenvalues --   -9.94098  -9.93913  -9.93666  -9.93644  -9.93538
 Alpha  occ. eigenvalues --   -9.93498  -9.93432  -9.93407  -9.93396  -9.93387
 Alpha  occ. eigenvalues --   -9.93342  -9.93328  -9.92978  -9.92901  -9.92733
 Alpha  occ. eigenvalues --   -9.92686  -9.92482  -9.92452  -9.92326  -9.92183
 Alpha  occ. eigenvalues --   -9.92142  -9.92141  -9.92096  -9.92095  -9.91970
 Alpha  occ. eigenvalues --   -9.91969  -9.91957  -9.91820  -9.91691  -9.91608
 Alpha  occ. eigenvalues --   -9.91581  -9.91382  -9.91278  -9.91264  -9.91156
 Alpha  occ. eigenvalues --   -9.91066  -9.91017  -9.90948  -9.90701  -9.90494
 Alpha  occ. eigenvalues --   -9.90483  -2.92398  -1.72804  -1.72258  -1.72150
 Alpha  occ. eigenvalues --   -0.98532  -0.97490  -0.91822  -0.90770  -0.90075
 Alpha  occ. eigenvalues --   -0.88384  -0.86830  -0.86303  -0.85912  -0.84899
 Alpha  occ. eigenvalues --   -0.74716  -0.74530  -0.73336  -0.72925  -0.72017
 Alpha  occ. eigenvalues --   -0.71917  -0.71514  -0.71431  -0.70777  -0.70304
 Alpha  occ. eigenvalues --   -0.69491  -0.69440  -0.68250  -0.67369  -0.66655
 Alpha  occ. eigenvalues --   -0.66459  -0.65846  -0.65325  -0.64812  -0.64604
 Alpha  occ. eigenvalues --   -0.64331  -0.62841  -0.62557  -0.61336  -0.61104
 Alpha  occ. eigenvalues --   -0.60670  -0.60503  -0.59668  -0.59437  -0.58725
 Alpha  occ. eigenvalues --   -0.58493  -0.57868  -0.56490  -0.55878  -0.55224
 Alpha  occ. eigenvalues --   -0.53887  -0.53284  -0.52618  -0.52210  -0.51257
 Alpha  occ. eigenvalues --   -0.50985  -0.50498  -0.50364  -0.50276  -0.50224
 Alpha  occ. eigenvalues --   -0.49925  -0.49635  -0.49059  -0.47934  -0.46735
 Alpha  occ. eigenvalues --   -0.46701  -0.45862  -0.45361  -0.44745  -0.44030
 Alpha  occ. eigenvalues --   -0.43850  -0.43457  -0.43089  -0.42923  -0.42439
 Alpha  occ. eigenvalues --   -0.42104  -0.41801  -0.41692  -0.41622  -0.41362
 Alpha  occ. eigenvalues --   -0.41015  -0.40777  -0.40706  -0.40470  -0.40181
 Alpha  occ. eigenvalues --   -0.40074  -0.39903  -0.39787  -0.39571  -0.39221
 Alpha  occ. eigenvalues --   -0.39001  -0.38723  -0.38676  -0.38168  -0.38111
 Alpha  occ. eigenvalues --   -0.37810  -0.37737  -0.37487  -0.37334  -0.37294
 Alpha  occ. eigenvalues --   -0.37086  -0.36959  -0.36815  -0.36548  -0.36512
 Alpha  occ. eigenvalues --   -0.36315  -0.36215  -0.35914  -0.35775  -0.35678
 Alpha  occ. eigenvalues --   -0.35457  -0.35382  -0.35018  -0.34914  -0.34819
 Alpha  occ. eigenvalues --   -0.34779  -0.34330  -0.34186  -0.33929  -0.33884
 Alpha  occ. eigenvalues --   -0.33837  -0.33569  -0.33437  -0.33316  -0.33221
 Alpha  occ. eigenvalues --   -0.32972  -0.32774  -0.32438  -0.32231  -0.32198
 Alpha  occ. eigenvalues --   -0.32049  -0.31822  -0.31643  -0.31478  -0.31355
 Alpha  occ. eigenvalues --   -0.31156  -0.31082  -0.31004  -0.30863  -0.30754
 Alpha  occ. eigenvalues --   -0.30625  -0.30491  -0.30371  -0.30275  -0.30233
 Alpha  occ. eigenvalues --   -0.29962  -0.29738  -0.29699  -0.29408  -0.28949
 Alpha  occ. eigenvalues --   -0.28770  -0.28329  -0.28112  -0.28010  -0.27904
 Alpha  occ. eigenvalues --   -0.27615  -0.27400  -0.27063  -0.26656  -0.26638
 Alpha  occ. eigenvalues --   -0.26237  -0.26198  -0.25734  -0.25201  -0.25097
 Alpha  occ. eigenvalues --   -0.24988  -0.24280  -0.24202  -0.23270  -0.23146
 Alpha  occ. eigenvalues --   -0.22968  -0.22502  -0.22045  -0.21152  -0.20919
 Alpha  occ. eigenvalues --   -0.20519  -0.20224  -0.19159  -0.18671  -0.16926
 Alpha  occ. eigenvalues --   -0.15664
 Alpha virt. eigenvalues --   -0.11466  -0.06446  -0.05602  -0.04322  -0.04209
 Alpha virt. eigenvalues --   -0.03349  -0.02097  -0.01493  -0.00842   0.00694
 Alpha virt. eigenvalues --    0.01555   0.01640   0.01879   0.02296   0.02582

 Mulliken charges:
               1
     1  Mg   0.701113
     2  C    0.150738
     3  C   -0.065695
     4  C   -0.040971
     5  C   -0.055485
     6  N   -0.244729
     7  C   -0.147992
     8  C    0.061514
     9  C   -0.010461
    10  C    0.065925
    11  C    0.117597
    12  C    0.099883
    13  C    0.125635
    14  C    0.098286
    15  O   -0.234013
    16  O   -0.266501
    17  N   -0.315142
    18  C    0.112616
    19  C   -0.156430
    20  C    0.041739
    21  C    0.084574
    22  C    0.206900
    23  C   -0.078445
    24  O   -0.174481
    25  C    0.108498
    26  N   -0.159658
    27  C   -0.015213
    28  C    0.049180
    29  C    0.042616
    30  C   -0.007010
    31  C    0.109719
    32  C    0.033819
    33  C    0.090890
    34  N   -0.169140
    35  C    0.053172
    36  C   -0.187919
    37  C    0.044130
    38  C    0.002634
    39  C    0.194260
    40  C   -0.017860
    41  O   -0.102278
    42  C    0.011274
    43  C    0.094838
    44  O   -0.183743
    45  O   -0.259256
    46  C    0.221293
    47  C    0.298975
    48  C   -0.091756
    49  C   -0.204357
    50  C    0.158037
    51  C    0.154998
    52  C    0.107358
    53  C    0.054493
    54  C   -0.086678
    55  C    0.131262
    56  C    0.080547
    57  C    0.091194
    58  C    0.113064
    59  C   -0.057917
    60  C    0.098402
    61  C    0.066202
    62  C    0.032142
    63  C    0.100522
    64  C   -0.036540
    65  C    0.102462
    66  C    0.110859
    67  H   -0.077467
    68  H   -0.046810
    69  H   -0.088059
    70  H   -0.007829
    71  H   -0.026700
    72  H   -0.002352
    73  H   -0.007713
    74  H   -0.000197
    75  H   -0.017817
    76  H   -0.002365
    77  H   -0.012713
    78  H    0.001908
    79  H   -0.002896
    80  H   -0.001823
    81  H   -0.007342
    82  H   -0.011208
    83  H    0.012538
    84  H    0.028180
    85  H   -0.021018
    86  H   -0.015468
    87  H    0.014301
    88  H   -0.005505
    89  H   -0.001542
    90  H   -0.023932
    91  H   -0.022430
    92  H   -0.006963
    93  H    0.008481
    94  H   -0.000400
    95  H   -0.013259
    96  H    0.022601
    97  H   -0.003987
    98  H   -0.000547
    99  H    0.004695
   100  H    0.021785
   101  H    0.006492
   102  H    0.001499
   103  H    0.012150
   104  H   -0.031815
   105  H    0.004795
   106  H    0.018176
   107  H   -0.003918
   108  H   -0.038909
   109  H   -0.040084
   110  H   -0.021553
   111  H   -0.024041
   112  H   -0.032141
   113  H   -0.039376
   114  H   -0.030791
   115  H   -0.013853
   116  H   -0.018379
   117  H   -0.003028
   118  H   -0.051069
   119  H   -0.041703
   120  H   -0.010639
   121  H   -0.031644
   122  H   -0.037197
   123  H   -0.049223
   124  H   -0.042289
   125  H   -0.004116
   126  H   -0.026577
   127  H   -0.035701
   128  H   -0.026559
   129  H   -0.047684
   130  H   -0.017373
   131  H   -0.025616
   132  H   -0.029178
   133  H   -0.036525
   134  H   -0.034704
   135  H   -0.008891
   136  H   -0.018275
   137  H   -0.033389
   138  H   -0.026279
   139  H   -0.020137
   140  H   -0.030295
 Sum of Mulliken charges =  -0.00000

 Dipole moment (field-independent basis, Debye):
    X=              4.6535    Y=              3.3684    Z=             -4.3536  Tot=              7.2079
 Quadrupole moment (field-independent basis, Debye-Ang):
   XX=           -380.6111   YY=           -441.1769   ZZ=           -405.9795
   XY=            -23.2022   XZ=              9.1982   YZ=              8.7735

 Normal termination of Gaussian 16 at Sun May  1 01:14:10 2022.
