 Gaussian 16, Revision A.03,
 Gaussian 16:  ES64L-G16RevA.03 25-Dec-2016

 -----------------------------------
 #p cam-b3lyp/Def2SVP td=(nstates=5)
 -----------------------------------

 ------------------------------------------------------
 step_951_chromophore_3 TDDFT with cam-b3lyp functional
 ------------------------------------------------------
 Symbolic Z-matrix:
 Charge =  0 Multiplicity = 1

                         Standard orientation:
 ---------------------------------------------------------------------
 Center     Atomic      Atomic             Coordinates (Angstroms)
 Number     Number       Type             X           Y           Z
 ---------------------------------------------------------------------
      1         12           0       -5.457072    0.850578   -0.099015
      2          6           0       -4.601817   -2.556062    0.214281
      3          6           0       -2.267831    1.641501   -0.165882
      4          6           0       -6.586299    3.925244    0.148527
      5          6           0       -8.885061   -0.249444    0.357606
      6          7           0       -3.685001   -0.366339    0.029642
      7          6           0       -3.560067   -1.752545    0.039383
      8          6           0       -2.066578   -2.150693   -0.175290
      9          6           0       -1.362981   -0.756639   -0.094593
     10          6           0       -2.486646    0.261805   -0.095909
     11          6           0       -0.362335   -0.490081    1.032355
     12          6           0       -1.999822   -2.848177   -1.601245
     13          6           0       -0.500507   -3.032428   -2.153575
     14          6           0        0.728332   -2.836322   -1.281340
     15          8           0        0.904879   -3.525538   -0.247731
     16          8           0        1.612552   -2.064719   -1.979972
     17          7           0       -4.528186    2.568385    0.088490
     18          6           0       -3.193147    2.734382   -0.046179
     19          6           0       -2.842108    4.187933    0.137066
     20          6           0       -4.124970    4.839364    0.247825
     21          6           0       -5.127202    3.767469    0.159018
     22          6           0       -1.508589    4.741132    0.194370
     23          6           0       -4.395837    6.357355    0.419844
     24          8           0       -5.533623    6.846650    0.560028
     25          6           0       -3.197389    7.349490    0.423173
     26          7           0       -7.526492    1.716264    0.349860
     27          6           0       -7.660753    3.038774    0.206861
     28          6           0       -9.151896    3.415440    0.225843
     29          6           0       -9.884437    2.097907    0.605491
     30          6           0       -8.741386    1.118306    0.388232
     31          6           0       -9.491000    4.561801    1.305881
     32          6           0      -11.211505    1.857386   -0.204780
     33          6           0      -11.144108    1.419484   -1.686103
     34          7           0       -6.546583   -1.032342    0.369858
     35          6           0       -7.882958   -1.328153    0.390172
     36          6           0       -8.178716   -2.714063    0.616948
     37          6           0       -6.891042   -3.285604    0.543743
     38          6           0       -5.958391   -2.217650    0.383569
     39          6           0       -9.574793   -3.359590    0.788089
     40          6           0       -6.136634   -4.574099    0.462123
     41          8           0       -6.468504   -5.735947    0.457110
     42          6           0       -4.604164   -4.085277    0.285521
     43          6           0       -3.674472   -4.720265    1.236738
     44          8           0       -3.625259   -4.547547    2.440079
     45          8           0       -2.838736   -5.579783    0.617318
     46          6           0       -1.782924   -6.154486    1.487023
     47          6           0        2.971099   -2.109954   -1.429010
     48          6           0        4.016048   -1.658703   -2.389508
     49          6           0        5.325265   -1.974940   -2.332129
     50          6           0        5.999668   -2.882263   -1.350253
     51          6           0        6.178629   -1.391067   -3.493707
     52          6           0        6.988044   -0.224950   -3.153255
     53          6           0        8.579640   -0.430355   -3.246622
     54          6           0        9.245795    0.581798   -2.246760
     55          6           0        9.070576    0.188579   -0.793673
     56          6           0       10.776485    0.580469   -2.478136
     57          6           0       11.397746    1.965096   -2.127660
     58          6           0       12.873167    1.791626   -1.672016
     59          6           0       13.071549    2.443725   -0.268214
     60          6           0       13.679448    3.838302   -0.426352
     61          6           0       13.838169    1.742772    0.892158
     62          6           0       12.921150    1.208454    2.082741
     63          6           0       13.570421   -0.026161    2.748926
     64          6           0       13.448298   -0.128759    4.290170
     65          6           0       14.753710   -0.698195    4.797367
     66          6           0       12.294057   -0.927948    4.706572
     67          1           0       -1.228831    1.967749   -0.247033
     68          1           0       -6.927901    4.954981    0.277069
     69          1           0       -9.895319   -0.659468    0.429452
     70          1           0       -1.699056   -2.807054    0.612070
     71          1           0       -0.744314   -0.573297   -0.973645
     72          1           0       -0.921765   -0.262699    1.939683
     73          1           0        0.385627    0.234319    0.710851
     74          1           0        0.185872   -1.406400    1.250161
     75          1           0       -2.568085   -2.261294   -2.323831
     76          1           0       -2.410816   -3.856649   -1.567930
     77          1           0       -0.436791   -2.602550   -3.153244
     78          1           0       -0.444598   -4.113999   -2.280847
     79          1           0       -1.482810    5.497046    0.979994
     80          1           0       -1.331849    5.269820   -0.742346
     81          1           0       -0.700619    4.014506    0.282749
     82          1           0       -3.760995    8.281612    0.461410
     83          1           0       -2.694022    7.362916   -0.543180
     84          1           0       -2.621527    7.212215    1.338385
     85          1           0       -9.367935    3.644025   -0.817083
     86          1           0      -10.159407    2.033396    1.658072
     87          1           0       -8.707218    4.778203    2.032356
     88          1           0      -10.415387    4.324389    1.832824
     89          1           0       -9.623214    5.456497    0.697650
     90          1           0      -11.918826    2.681430   -0.108014
     91          1           0      -11.621871    1.101302    0.464029
     92          1           0      -11.774523    2.098570   -2.260453
     93          1           0      -11.470508    0.381960   -1.621154
     94          1           0      -10.155442    1.538334   -2.129093
     95          1           0      -10.136653   -2.978645    1.640445
     96          1           0       -9.501825   -4.443321    0.878811
     97          1           0      -10.158896   -2.872964    0.007344
     98          1           0       -4.414697   -4.516601   -0.697399
     99          1           0       -2.059852   -7.022157    2.085181
    100          1           0       -1.337890   -5.511129    2.246735
    101          1           0       -1.024212   -6.539464    0.805755
    102          1           0        3.097103   -3.180874   -1.269607
    103          1           0        2.939060   -1.549009   -0.494474
    104          1           0        3.639662   -1.146742   -3.274623
    105          1           0        6.981082   -2.482216   -1.096496
    106          1           0        6.005995   -3.846855   -1.857212
    107          1           0        5.453733   -2.970145   -0.410551
    108          1           0        5.533223   -1.238219   -4.359431
    109          1           0        6.755057   -2.277650   -3.758333
    110          1           0        6.720151    0.104886   -2.149474
    111          1           0        6.777334    0.572205   -3.865914
    112          1           0        8.928385   -0.369315   -4.277891
    113          1           0        8.946966   -1.424587   -2.992685
    114          1           0        8.790817    1.548577   -2.461742
    115          1           0        8.248930   -0.524574   -0.721835
    116          1           0        8.839106    1.148839   -0.333594
    117          1           0        9.974641   -0.172767   -0.302116
    118          1           0       11.100019    0.292261   -3.479023
    119          1           0       11.275399   -0.229809   -1.946343
    120          1           0       10.720607    2.636024   -1.600495
    121          1           0       11.483357    2.395441   -3.125483
    122          1           0       13.630843    2.045979   -2.413348
    123          1           0       13.180953    0.765380   -1.473570
    124          1           0       12.038767    2.543202    0.065334
    125          1           0       14.760486    3.848227   -0.567444
    126          1           0       13.394336    4.427490    0.445753
    127          1           0       13.194273    4.394535   -1.228480
    128          1           0       14.706744    2.294613    1.251895
    129          1           0       14.205261    0.764462    0.583204
    130          1           0       11.969033    1.020747    1.584936
    131          1           0       12.924344    2.067373    2.753210
    132          1           0       14.593338   -0.074123    2.375806
    133          1           0       13.051576   -0.786372    2.164501
    134          1           0       13.211687    0.771254    4.858410
    135          1           0       15.649486   -0.169488    4.468855
    136          1           0       14.774253   -1.761890    4.562839
    137          1           0       14.740884   -0.635400    5.885152
    138          1           0       11.885029   -0.496351    5.620757
    139          1           0       12.516673   -1.993606    4.765927
    140          1           0       11.452202   -0.815050    4.023807
 ---------------------------------------------------------------------

 SCF Done:  E(RCAM-B3LYP) =  -3007.14996804     A.U. after   18 cycles

 Excitation energies and oscillator strengths:

 Excited State   1:      Singlet-A      1.7125 eV  723.98 nm  f=0.4062  <S**2>=0.000
     245 -> 248        0.15536
     246 -> 247        0.68972
 This state for optimization and/or second-order correction.
 Total Energy, E(TD-HF/TD-DFT) =  -3007.08703380
 Copying the excited state density for this state as the 1-particle RhoCI density.

 Excited State   2:      Singlet-A      2.2247 eV  557.31 nm  f=0.1822  <S**2>=0.000
     245 -> 247        0.66314
     246 -> 248       -0.22077

 Excited State   3:      Singlet-A      3.4019 eV  364.45 nm  f=0.0045  <S**2>=0.000
     241 -> 247       -0.13185
     244 -> 247        0.67947

 Excited State   4:      Singlet-A      3.6286 eV  341.69 nm  f=0.0433  <S**2>=0.000
     241 -> 247        0.37708
     243 -> 247        0.44448
     243 -> 249       -0.14008
     243 -> 251        0.18760
     246 -> 248        0.25290

 Excited State   5:      Singlet-A      3.6456 eV  340.09 nm  f=0.0528  <S**2>=0.000
     239 -> 247       -0.11770
     240 -> 247       -0.12430
     241 -> 247       -0.34063
     243 -> 247        0.40657
     243 -> 249       -0.12469
     243 -> 251        0.17278
     246 -> 248       -0.31474

 The electronic state is 1-A.
 Alpha  occ. eigenvalues --  -46.89409 -19.26541 -19.24549 -19.20679 -19.19879
 Alpha  occ. eigenvalues --  -19.18842 -19.18027 -14.41767 -14.41134 -14.40300
 Alpha  occ. eigenvalues --  -14.38390 -10.40618 -10.37793 -10.36429 -10.34896
 Alpha  occ. eigenvalues --  -10.32384 -10.31368 -10.31239 -10.31174 -10.30627
 Alpha  occ. eigenvalues --  -10.30343 -10.29897 -10.29743 -10.29489 -10.28603
 Alpha  occ. eigenvalues --  -10.28270 -10.28138 -10.27855 -10.27694 -10.27621
 Alpha  occ. eigenvalues --  -10.27505 -10.27500 -10.27454 -10.27440 -10.27310
 Alpha  occ. eigenvalues --  -10.27262 -10.27200 -10.27083 -10.27063 -10.26884
 Alpha  occ. eigenvalues --  -10.26516 -10.26372 -10.26267 -10.26187 -10.26174
 Alpha  occ. eigenvalues --  -10.26145 -10.26074 -10.25852 -10.25836 -10.25738
 Alpha  occ. eigenvalues --  -10.25697 -10.25614 -10.25579 -10.25377 -10.25367
 Alpha  occ. eigenvalues --  -10.25193 -10.24985 -10.24984 -10.24970 -10.24872
 Alpha  occ. eigenvalues --  -10.24746 -10.24721 -10.24689 -10.24277 -10.24089
 Alpha  occ. eigenvalues --  -10.24036  -3.17923  -1.92804  -1.92342  -1.92267
 Alpha  occ. eigenvalues --   -1.16959  -1.15953  -1.09959  -1.09489  -1.07963
 Alpha  occ. eigenvalues --   -1.06216  -1.04723  -1.03875  -1.03471  -1.02400
 Alpha  occ. eigenvalues --   -0.91637  -0.91477  -0.90162  -0.89682  -0.88926
 Alpha  occ. eigenvalues --   -0.88623  -0.88311  -0.88082  -0.87472  -0.86844
 Alpha  occ. eigenvalues --   -0.85831  -0.85668  -0.84566  -0.83553  -0.82770
 Alpha  occ. eigenvalues --   -0.82436  -0.81805  -0.81590  -0.80756  -0.80516
 Alpha  occ. eigenvalues --   -0.80096  -0.78862  -0.78102  -0.76739  -0.76512
 Alpha  occ. eigenvalues --   -0.76054  -0.75786  -0.74914  -0.74710  -0.73962
 Alpha  occ. eigenvalues --   -0.73594  -0.72829  -0.71407  -0.70716  -0.69832
 Alpha  occ. eigenvalues --   -0.68465  -0.67834  -0.67279  -0.66551  -0.65500
 Alpha  occ. eigenvalues --   -0.65109  -0.64499  -0.64444  -0.64250  -0.64113
 Alpha  occ. eigenvalues --   -0.63837  -0.63650  -0.62978  -0.61532  -0.60617
 Alpha  occ. eigenvalues --   -0.60188  -0.59442  -0.58816  -0.58052  -0.57547
 Alpha  occ. eigenvalues --   -0.57087  -0.56822  -0.56432  -0.55992  -0.55480
 Alpha  occ. eigenvalues --   -0.55189  -0.54846  -0.54642  -0.54396  -0.54338
 Alpha  occ. eigenvalues --   -0.53704  -0.53668  -0.53520  -0.53357  -0.53170
 Alpha  occ. eigenvalues --   -0.52653  -0.52542  -0.52478  -0.52308  -0.51896
 Alpha  occ. eigenvalues --   -0.51623  -0.51316  -0.51061  -0.50889  -0.50772
 Alpha  occ. eigenvalues --   -0.50354  -0.50069  -0.50018  -0.49619  -0.49570
 Alpha  occ. eigenvalues --   -0.49444  -0.49211  -0.49045  -0.49002  -0.48763
 Alpha  occ. eigenvalues --   -0.48534  -0.48497  -0.48367  -0.48179  -0.48026
 Alpha  occ. eigenvalues --   -0.47634  -0.47523  -0.47235  -0.46871  -0.46772
 Alpha  occ. eigenvalues --   -0.46485  -0.46142  -0.46004  -0.45889  -0.45635
 Alpha  occ. eigenvalues --   -0.45602  -0.45420  -0.45142  -0.45075  -0.44781
 Alpha  occ. eigenvalues --   -0.44557  -0.44458  -0.44032  -0.44006  -0.43769
 Alpha  occ. eigenvalues --   -0.43694  -0.43653  -0.43179  -0.43064  -0.43049
 Alpha  occ. eigenvalues --   -0.42883  -0.42743  -0.42489  -0.42207  -0.42159
 Alpha  occ. eigenvalues --   -0.42102  -0.41899  -0.41790  -0.41607  -0.41416
 Alpha  occ. eigenvalues --   -0.41309  -0.41221  -0.41052  -0.40782  -0.40014
 Alpha  occ. eigenvalues --   -0.39792  -0.39428  -0.39021  -0.39008  -0.38795
 Alpha  occ. eigenvalues --   -0.38462  -0.38243  -0.37970  -0.37890  -0.37694
 Alpha  occ. eigenvalues --   -0.37331  -0.37103  -0.36299  -0.35995  -0.35887
 Alpha  occ. eigenvalues --   -0.35674  -0.35615  -0.34662  -0.34617  -0.33925
 Alpha  occ. eigenvalues --   -0.33608  -0.33176  -0.32203  -0.31695  -0.31151
 Alpha  occ. eigenvalues --   -0.30809  -0.30626  -0.30100  -0.29177  -0.23657
 Alpha  occ. eigenvalues --   -0.21038
 Alpha virt. eigenvalues --   -0.08709  -0.00633   0.00450   0.01635   0.02814
 Alpha virt. eigenvalues --    0.03416   0.05420   0.06367   0.06534   0.06940
 Alpha virt. eigenvalues --    0.07573   0.07985   0.08330   0.08826   0.08942

 Mulliken charges:
               1
     1  Mg   0.830609
     2  C    0.113587
     3  C   -0.083676
     4  C   -0.060120
     5  C   -0.057067
     6  N   -0.318979
     7  C   -0.107102
     8  C    0.011695
     9  C   -0.071957
    10  C    0.091769
    11  C    0.061727
    12  C    0.059874
    13  C    0.056029
    14  C    0.171035
    15  O   -0.274465
    16  O   -0.329596
    17  N   -0.407845
    18  C    0.129268
    19  C   -0.157823
    20  C   -0.027899
    21  C    0.115208
    22  C    0.140276
    23  C    0.005348
    24  O   -0.213555
    25  C    0.026508
    26  N   -0.227760
    27  C    0.009999
    28  C   -0.014652
    29  C   -0.004984
    30  C    0.003799
    31  C    0.051823
    32  C   -0.014669
    33  C    0.027517
    34  N   -0.251883
    35  C    0.052208
    36  C   -0.182609
    37  C   -0.035300
    38  C    0.038275
    39  C    0.141500
    40  C    0.086913
    41  O   -0.144431
    42  C   -0.065324
    43  C    0.181046
    44  O   -0.221253
    45  O   -0.322656
    46  C    0.181661
    47  C    0.267213
    48  C   -0.113430
    49  C   -0.224950
    50  C    0.098316
    51  C    0.094037
    52  C    0.045574
    53  C    0.009482
    54  C   -0.147663
    55  C    0.078102
    56  C    0.033424
    57  C    0.027624
    58  C    0.061958
    59  C   -0.115626
    60  C    0.041614
    61  C    0.015271
    62  C   -0.010167
    63  C    0.037526
    64  C   -0.101247
    65  C    0.041831
    66  C    0.051946
    67  H   -0.041951
    68  H   -0.007080
    69  H   -0.053891
    70  H    0.026129
    71  H    0.008642
    72  H    0.024407
    73  H    0.014919
    74  H    0.025415
    75  H    0.012716
    76  H    0.026930
    77  H    0.022589
    78  H    0.034107
    79  H    0.023756
    80  H    0.027785
    81  H    0.023026
    82  H    0.026774
    83  H    0.041391
    84  H    0.055282
    85  H    0.012994
    86  H    0.019032
    87  H    0.038740
    88  H    0.018788
    89  H    0.022199
    90  H    0.004431
    91  H    0.004792
    92  H    0.016672
    93  H    0.030272
    94  H    0.021302
    95  H    0.012415
    96  H    0.048494
    97  H    0.017629
    98  H    0.041693
    99  H    0.028093
   100  H    0.045643
   101  H    0.030242
   102  H    0.030708
   103  H    0.037588
   104  H    0.003959
   105  H    0.024168
   106  H    0.042719
   107  H    0.021094
   108  H   -0.005818
   109  H   -0.009862
   110  H    0.007444
   111  H    0.006234
   112  H   -0.002510
   113  H   -0.012558
   114  H    0.000197
   115  H    0.003895
   116  H    0.005710
   117  H    0.019045
   118  H   -0.020608
   119  H   -0.013557
   120  H    0.015863
   121  H   -0.001243
   122  H   -0.006850
   123  H   -0.020112
   124  H   -0.010496
   125  H    0.018608
   126  H   -0.001848
   127  H   -0.010494
   128  H    0.002557
   129  H   -0.019883
   130  H    0.005315
   131  H    0.001279
   132  H    0.000405
   133  H   -0.007280
   134  H   -0.003090
   135  H    0.015785
   136  H    0.004674
   137  H   -0.006953
   138  H   -0.000664
   139  H    0.003880
   140  H   -0.004582
 Sum of Mulliken charges =  -0.00000

 Dipole moment (field-independent basis, Debye):
    X=              5.3668    Y=              4.5585    Z=             -4.5715  Tot=              8.3953
 Quadrupole moment (field-independent basis, Debye-Ang):
   XX=           -384.1745   YY=           -436.1505   ZZ=           -406.0558
   XY=            -28.4962   XZ=              9.7167   YZ=              9.4326

 Normal termination of Gaussian 16 at Sun May  1 00:10:12 2022.
