 Gaussian 16, Revision A.03,
 Gaussian 16:  ES64L-G16RevA.03 25-Dec-2016

 ---------------------------------
 #p PBE1PBE/Def2SVP td=(nstates=5)
 ---------------------------------

 ----------------------------------------------------
 step_951_chromophore_3 TDDFT with PBE1PBE functional
 ----------------------------------------------------
 Symbolic Z-matrix:
 Charge =  0 Multiplicity = 1

                         Standard orientation:
 ---------------------------------------------------------------------
 Center     Atomic      Atomic             Coordinates (Angstroms)
 Number     Number       Type             X           Y           Z
 ---------------------------------------------------------------------
      1         12           0       -5.457072    0.850578   -0.099015
      2          6           0       -4.601817   -2.556062    0.214281
      3          6           0       -2.267831    1.641501   -0.165882
      4          6           0       -6.586299    3.925244    0.148527
      5          6           0       -8.885061   -0.249444    0.357606
      6          7           0       -3.685001   -0.366339    0.029642
      7          6           0       -3.560067   -1.752545    0.039383
      8          6           0       -2.066578   -2.150693   -0.175290
      9          6           0       -1.362981   -0.756639   -0.094593
     10          6           0       -2.486646    0.261805   -0.095909
     11          6           0       -0.362335   -0.490081    1.032355
     12          6           0       -1.999822   -2.848177   -1.601245
     13          6           0       -0.500507   -3.032428   -2.153575
     14          6           0        0.728332   -2.836322   -1.281340
     15          8           0        0.904879   -3.525538   -0.247731
     16          8           0        1.612552   -2.064719   -1.979972
     17          7           0       -4.528186    2.568385    0.088490
     18          6           0       -3.193147    2.734382   -0.046179
     19          6           0       -2.842108    4.187933    0.137066
     20          6           0       -4.124970    4.839364    0.247825
     21          6           0       -5.127202    3.767469    0.159018
     22          6           0       -1.508589    4.741132    0.194370
     23          6           0       -4.395837    6.357355    0.419844
     24          8           0       -5.533623    6.846650    0.560028
     25          6           0       -3.197389    7.349490    0.423173
     26          7           0       -7.526492    1.716264    0.349860
     27          6           0       -7.660753    3.038774    0.206861
     28          6           0       -9.151896    3.415440    0.225843
     29          6           0       -9.884437    2.097907    0.605491
     30          6           0       -8.741386    1.118306    0.388232
     31          6           0       -9.491000    4.561801    1.305881
     32          6           0      -11.211505    1.857386   -0.204780
     33          6           0      -11.144108    1.419484   -1.686103
     34          7           0       -6.546583   -1.032342    0.369858
     35          6           0       -7.882958   -1.328153    0.390172
     36          6           0       -8.178716   -2.714063    0.616948
     37          6           0       -6.891042   -3.285604    0.543743
     38          6           0       -5.958391   -2.217650    0.383569
     39          6           0       -9.574793   -3.359590    0.788089
     40          6           0       -6.136634   -4.574099    0.462123
     41          8           0       -6.468504   -5.735947    0.457110
     42          6           0       -4.604164   -4.085277    0.285521
     43          6           0       -3.674472   -4.720265    1.236738
     44          8           0       -3.625259   -4.547547    2.440079
     45          8           0       -2.838736   -5.579783    0.617318
     46          6           0       -1.782924   -6.154486    1.487023
     47          6           0        2.971099   -2.109954   -1.429010
     48          6           0        4.016048   -1.658703   -2.389508
     49          6           0        5.325265   -1.974940   -2.332129
     50          6           0        5.999668   -2.882263   -1.350253
     51          6           0        6.178629   -1.391067   -3.493707
     52          6           0        6.988044   -0.224950   -3.153255
     53          6           0        8.579640   -0.430355   -3.246622
     54          6           0        9.245795    0.581798   -2.246760
     55          6           0        9.070576    0.188579   -0.793673
     56          6           0       10.776485    0.580469   -2.478136
     57          6           0       11.397746    1.965096   -2.127660
     58          6           0       12.873167    1.791626   -1.672016
     59          6           0       13.071549    2.443725   -0.268214
     60          6           0       13.679448    3.838302   -0.426352
     61          6           0       13.838169    1.742772    0.892158
     62          6           0       12.921150    1.208454    2.082741
     63          6           0       13.570421   -0.026161    2.748926
     64          6           0       13.448298   -0.128759    4.290170
     65          6           0       14.753710   -0.698195    4.797367
     66          6           0       12.294057   -0.927948    4.706572
     67          1           0       -1.228831    1.967749   -0.247033
     68          1           0       -6.927901    4.954981    0.277069
     69          1           0       -9.895319   -0.659468    0.429452
     70          1           0       -1.699056   -2.807054    0.612070
     71          1           0       -0.744314   -0.573297   -0.973645
     72          1           0       -0.921765   -0.262699    1.939683
     73          1           0        0.385627    0.234319    0.710851
     74          1           0        0.185872   -1.406400    1.250161
     75          1           0       -2.568085   -2.261294   -2.323831
     76          1           0       -2.410816   -3.856649   -1.567930
     77          1           0       -0.436791   -2.602550   -3.153244
     78          1           0       -0.444598   -4.113999   -2.280847
     79          1           0       -1.482810    5.497046    0.979994
     80          1           0       -1.331849    5.269820   -0.742346
     81          1           0       -0.700619    4.014506    0.282749
     82          1           0       -3.760995    8.281612    0.461410
     83          1           0       -2.694022    7.362916   -0.543180
     84          1           0       -2.621527    7.212215    1.338385
     85          1           0       -9.367935    3.644025   -0.817083
     86          1           0      -10.159407    2.033396    1.658072
     87          1           0       -8.707218    4.778203    2.032356
     88          1           0      -10.415387    4.324389    1.832824
     89          1           0       -9.623214    5.456497    0.697650
     90          1           0      -11.918826    2.681430   -0.108014
     91          1           0      -11.621871    1.101302    0.464029
     92          1           0      -11.774523    2.098570   -2.260453
     93          1           0      -11.470508    0.381960   -1.621154
     94          1           0      -10.155442    1.538334   -2.129093
     95          1           0      -10.136653   -2.978645    1.640445
     96          1           0       -9.501825   -4.443321    0.878811
     97          1           0      -10.158896   -2.872964    0.007344
     98          1           0       -4.414697   -4.516601   -0.697399
     99          1           0       -2.059852   -7.022157    2.085181
    100          1           0       -1.337890   -5.511129    2.246735
    101          1           0       -1.024212   -6.539464    0.805755
    102          1           0        3.097103   -3.180874   -1.269607
    103          1           0        2.939060   -1.549009   -0.494474
    104          1           0        3.639662   -1.146742   -3.274623
    105          1           0        6.981082   -2.482216   -1.096496
    106          1           0        6.005995   -3.846855   -1.857212
    107          1           0        5.453733   -2.970145   -0.410551
    108          1           0        5.533223   -1.238219   -4.359431
    109          1           0        6.755057   -2.277650   -3.758333
    110          1           0        6.720151    0.104886   -2.149474
    111          1           0        6.777334    0.572205   -3.865914
    112          1           0        8.928385   -0.369315   -4.277891
    113          1           0        8.946966   -1.424587   -2.992685
    114          1           0        8.790817    1.548577   -2.461742
    115          1           0        8.248930   -0.524574   -0.721835
    116          1           0        8.839106    1.148839   -0.333594
    117          1           0        9.974641   -0.172767   -0.302116
    118          1           0       11.100019    0.292261   -3.479023
    119          1           0       11.275399   -0.229809   -1.946343
    120          1           0       10.720607    2.636024   -1.600495
    121          1           0       11.483357    2.395441   -3.125483
    122          1           0       13.630843    2.045979   -2.413348
    123          1           0       13.180953    0.765380   -1.473570
    124          1           0       12.038767    2.543202    0.065334
    125          1           0       14.760486    3.848227   -0.567444
    126          1           0       13.394336    4.427490    0.445753
    127          1           0       13.194273    4.394535   -1.228480
    128          1           0       14.706744    2.294613    1.251895
    129          1           0       14.205261    0.764462    0.583204
    130          1           0       11.969033    1.020747    1.584936
    131          1           0       12.924344    2.067373    2.753210
    132          1           0       14.593338   -0.074123    2.375806
    133          1           0       13.051576   -0.786372    2.164501
    134          1           0       13.211687    0.771254    4.858410
    135          1           0       15.649486   -0.169488    4.468855
    136          1           0       14.774253   -1.761890    4.562839
    137          1           0       14.740884   -0.635400    5.885152
    138          1           0       11.885029   -0.496351    5.620757
    139          1           0       12.516673   -1.993606    4.765927
    140          1           0       11.452202   -0.815050    4.023807
 ---------------------------------------------------------------------

 SCF Done:  E(RPBE1PBE) =  -3005.33936283     A.U. after   15 cycles

 Excitation energies and oscillator strengths:

 Excited State   1:      Singlet-A      1.8579 eV  667.34 nm  f=0.3925  <S**2>=0.000
     245 -> 248        0.13404
     246 -> 247        0.69708
     246 <- 247       -0.11459
 This state for optimization and/or second-order correction.
 Total Energy, E(TD-HF/TD-DFT) =  -3005.27108681
 Copying the excited state density for this state as the 1-particle RhoCI density.

 Excited State   2:      Singlet-A      2.2257 eV  557.06 nm  f=0.1668  <S**2>=0.000
     245 -> 247        0.67021
     246 -> 248       -0.18311
     246 -> 249       -0.11951

 Excited State   3:      Singlet-A      2.9906 eV  414.58 nm  f=0.0029  <S**2>=0.000
     243 -> 247        0.21826
     244 -> 247        0.65639

 Excited State   4:      Singlet-A      3.0913 eV  401.07 nm  f=0.0049  <S**2>=0.000
     243 -> 247        0.65343
     244 -> 247       -0.22928

 Excited State   5:      Singlet-A      3.2100 eV  386.25 nm  f=0.0001  <S**2>=0.000
     240 -> 247        0.56289
     240 -> 248       -0.15238
     240 -> 249        0.11991
     241 -> 247        0.35236

 The electronic state is 1-A.
 Alpha  occ. eigenvalues --  -46.92795 -19.27243 -19.25248 -19.21005 -19.19893
 Alpha  occ. eigenvalues --  -19.19291 -19.18319 -14.41311 -14.40580 -14.39787
 Alpha  occ. eigenvalues --  -14.38165 -10.37697 -10.34851 -10.33400 -10.32266
 Alpha  occ. eigenvalues --  -10.29755 -10.28821 -10.28686 -10.28633 -10.27920
 Alpha  occ. eigenvalues --  -10.27893 -10.27805 -10.27390 -10.27098 -10.26696
 Alpha  occ. eigenvalues --  -10.25997 -10.25727 -10.25550 -10.25461 -10.25410
 Alpha  occ. eigenvalues --  -10.25361 -10.25345 -10.25167 -10.25143 -10.25051
 Alpha  occ. eigenvalues --  -10.24863 -10.24785 -10.24709 -10.24430 -10.24385
 Alpha  occ. eigenvalues --  -10.24072 -10.24020 -10.23867 -10.23841 -10.23822
 Alpha  occ. eigenvalues --  -10.23777 -10.23714 -10.23375 -10.23330 -10.23322
 Alpha  occ. eigenvalues --  -10.23226 -10.23090 -10.23058 -10.22994 -10.22947
 Alpha  occ. eigenvalues --  -10.22812 -10.22784 -10.22538 -10.22523 -10.22460
 Alpha  occ. eigenvalues --  -10.22372 -10.22305 -10.22268 -10.21645 -10.21454
 Alpha  occ. eigenvalues --  -10.21376  -3.14890  -1.87710  -1.87226  -1.87157
 Alpha  occ. eigenvalues --   -1.11790  -1.10795  -1.04933  -1.04003  -1.02818
 Alpha  occ. eigenvalues --   -1.01101  -0.99244  -0.98607  -0.98179  -0.97078
 Alpha  occ. eigenvalues --   -0.86100  -0.85605  -0.84251  -0.83789  -0.83040
 Alpha  occ. eigenvalues --   -0.82838  -0.82509  -0.82193  -0.81762  -0.81168
 Alpha  occ. eigenvalues --   -0.80212  -0.80033  -0.78750  -0.77728  -0.77010
 Alpha  occ. eigenvalues --   -0.76790  -0.76020  -0.75665  -0.74949  -0.74729
 Alpha  occ. eigenvalues --   -0.74476  -0.73006  -0.72425  -0.71068  -0.70708
 Alpha  occ. eigenvalues --   -0.70182  -0.70138  -0.69241  -0.68887  -0.68114
 Alpha  occ. eigenvalues --   -0.67901  -0.67335  -0.65746  -0.65007  -0.64268
 Alpha  occ. eigenvalues --   -0.62719  -0.62295  -0.61666  -0.60790  -0.59731
 Alpha  occ. eigenvalues --   -0.59565  -0.59052  -0.58824  -0.58617  -0.58590
 Alpha  occ. eigenvalues --   -0.58289  -0.57778  -0.57154  -0.56189  -0.55021
 Alpha  occ. eigenvalues --   -0.54607  -0.53925  -0.53435  -0.52682  -0.52088
 Alpha  occ. eigenvalues --   -0.51544  -0.51347  -0.50960  -0.50604  -0.50014
 Alpha  occ. eigenvalues --   -0.49711  -0.49367  -0.49180  -0.48918  -0.48751
 Alpha  occ. eigenvalues --   -0.48197  -0.48050  -0.47897  -0.47784  -0.47622
 Alpha  occ. eigenvalues --   -0.47300  -0.47076  -0.47049  -0.46802  -0.46418
 Alpha  occ. eigenvalues --   -0.46102  -0.45806  -0.45623  -0.45499  -0.45159
 Alpha  occ. eigenvalues --   -0.44963  -0.44796  -0.44658  -0.44196  -0.44099
 Alpha  occ. eigenvalues --   -0.43895  -0.43817  -0.43644  -0.43594  -0.43378
 Alpha  occ. eigenvalues --   -0.43152  -0.43095  -0.42959  -0.42747  -0.42650
 Alpha  occ. eigenvalues --   -0.42280  -0.42166  -0.41926  -0.41571  -0.41442
 Alpha  occ. eigenvalues --   -0.41161  -0.40986  -0.40709  -0.40607  -0.40422
 Alpha  occ. eigenvalues --   -0.40169  -0.40162  -0.39992  -0.39833  -0.39496
 Alpha  occ. eigenvalues --   -0.39256  -0.39161  -0.38819  -0.38744  -0.38525
 Alpha  occ. eigenvalues --   -0.38449  -0.38366  -0.37905  -0.37780  -0.37751
 Alpha  occ. eigenvalues --   -0.37647  -0.37576  -0.37276  -0.37056  -0.36949
 Alpha  occ. eigenvalues --   -0.36928  -0.36689  -0.36577  -0.36512  -0.36218
 Alpha  occ. eigenvalues --   -0.36161  -0.36019  -0.35914  -0.35612  -0.34817
 Alpha  occ. eigenvalues --   -0.34760  -0.34349  -0.34030  -0.33779  -0.33557
 Alpha  occ. eigenvalues --   -0.33283  -0.33045  -0.32976  -0.32747  -0.32567
 Alpha  occ. eigenvalues --   -0.32163  -0.32085  -0.31374  -0.31092  -0.30664
 Alpha  occ. eigenvalues --   -0.30657  -0.30444  -0.29575  -0.29493  -0.29175
 Alpha  occ. eigenvalues --   -0.28609  -0.28266  -0.27641  -0.26711  -0.26280
 Alpha  occ. eigenvalues --   -0.26229  -0.25892  -0.25359  -0.24978  -0.20582
 Alpha  occ. eigenvalues --   -0.18629
 Alpha virt. eigenvalues --   -0.11113  -0.04376  -0.03545  -0.01675  -0.01248
 Alpha virt. eigenvalues --   -0.01054   0.00941   0.01612   0.02024   0.03629
 Alpha virt. eigenvalues --    0.04366   0.04379   0.04746   0.05333   0.05455

 Mulliken charges:
               1
     1  Mg   0.973504
     2  C    0.080808
     3  C   -0.073769
     4  C   -0.051396
     5  C   -0.052180
     6  N   -0.427173
     7  C   -0.032964
     8  C   -0.065735
     9  C   -0.147377
    10  C    0.129182
    11  C    0.004258
    12  C    0.016164
    13  C   -0.019106
    14  C    0.230827
    15  O   -0.305747
    16  O   -0.360757
    17  N   -0.529564
    18  C    0.154798
    19  C   -0.189582
    20  C   -0.073913
    21  C    0.146003
    22  C    0.075684
    23  C    0.057143
    24  O   -0.250429
    25  C   -0.049234
    26  N   -0.329512
    27  C    0.049088
    28  C   -0.100307
    29  C   -0.076517
    30  C    0.045610
    31  C   -0.007112
    32  C   -0.070946
    33  C   -0.045682
    34  N   -0.372006
    35  C    0.070856
    36  C   -0.188559
    37  C   -0.084151
    38  C    0.101035
    39  C    0.083872
    40  C    0.186722
    41  O   -0.190459
    42  C   -0.163136
    43  C    0.273417
    44  O   -0.257833
    45  O   -0.356783
    46  C    0.125318
    47  C    0.231018
    48  C   -0.122268
    49  C   -0.271377
    50  C    0.028860
    51  C    0.033500
    52  C   -0.022232
    53  C   -0.038221
    54  C   -0.240069
    55  C    0.015125
    56  C   -0.015290
    57  C   -0.041888
    58  C    0.014848
    59  C   -0.201902
    60  C   -0.021162
    61  C   -0.037312
    62  C   -0.074168
    63  C   -0.020929
    64  C   -0.199101
    65  C   -0.021427
    66  C   -0.003463
    67  H   -0.007873
    68  H    0.026268
    69  H   -0.021267
    70  H    0.064892
    71  H    0.048794
    72  H    0.052980
    73  H    0.041582
    74  H    0.053334
    75  H    0.045203
    76  H    0.060767
    77  H    0.053871
    78  H    0.068152
    79  H    0.051440
    80  H    0.055851
    81  H    0.048710
    82  H    0.054244
    83  H    0.067685
    84  H    0.080583
    85  H    0.050889
    86  H    0.056164
    87  H    0.065501
    88  H    0.045802
    89  H    0.049944
    90  H    0.037520
    91  H    0.036721
    92  H    0.044887
    93  H    0.056603
    94  H    0.049615
    95  H    0.041843
    96  H    0.076132
    97  H    0.045989
    98  H    0.080261
    99  H    0.050687
   100  H    0.066612
   101  H    0.052285
   102  H    0.056983
   103  H    0.063989
   104  H    0.033386
   105  H    0.054425
   106  H    0.070288
   107  H    0.048186
   108  H    0.025611
   109  H    0.024017
   110  H    0.041083
   111  H    0.039842
   112  H    0.029467
   113  H    0.019484
   114  H    0.037400
   115  H    0.036315
   116  H    0.033849
   117  H    0.046960
   118  H    0.011222
   119  H    0.017617
   120  H    0.044472
   121  H    0.034416
   122  H    0.023943
   123  H    0.012646
   124  H    0.029211
   125  H    0.045991
   126  H    0.027530
   127  H    0.019003
   128  H    0.033825
   129  H    0.015104
   130  H    0.039915
   131  H    0.035316
   132  H    0.031602
   133  H    0.025597
   134  H    0.033457
   135  H    0.043683
   136  H    0.032587
   137  H    0.022297
   138  H    0.027077
   139  H    0.030332
   140  H    0.024300
 Sum of Mulliken charges =  -0.00000

 Dipole moment (field-independent basis, Debye):
    X=              5.0467    Y=              4.0278    Z=             -4.5953  Tot=              7.9252
 Quadrupole moment (field-independent basis, Debye-Ang):
   XX=           -375.1596   YY=           -434.4306   ZZ=           -403.4891
   XY=            -26.5922   XZ=              9.2623   YZ=              9.2188

 Normal termination of Gaussian 16 at Sun May  1 00:26:09 2022.
