 Gaussian 16, Revision A.03,
 Gaussian 16:  ES64L-G16RevA.03 25-Dec-2016

 --------------------------------
 #p wB97XD/Def2SVP td=(nstates=5)
 --------------------------------

 ---------------------------------------------------
 step_951_chromophore_3 TDDFT with wB97XD functional
 ---------------------------------------------------
 Symbolic Z-matrix:
 Charge =  0 Multiplicity = 1

                         Standard orientation:
 ---------------------------------------------------------------------
 Center     Atomic      Atomic             Coordinates (Angstroms)
 Number     Number       Type             X           Y           Z
 ---------------------------------------------------------------------
      1         12           0       -5.457072    0.850578   -0.099015
      2          6           0       -4.601817   -2.556062    0.214281
      3          6           0       -2.267831    1.641501   -0.165882
      4          6           0       -6.586299    3.925244    0.148527
      5          6           0       -8.885061   -0.249444    0.357606
      6          7           0       -3.685001   -0.366339    0.029642
      7          6           0       -3.560067   -1.752545    0.039383
      8          6           0       -2.066578   -2.150693   -0.175290
      9          6           0       -1.362981   -0.756639   -0.094593
     10          6           0       -2.486646    0.261805   -0.095909
     11          6           0       -0.362335   -0.490081    1.032355
     12          6           0       -1.999822   -2.848177   -1.601245
     13          6           0       -0.500507   -3.032428   -2.153575
     14          6           0        0.728332   -2.836322   -1.281340
     15          8           0        0.904879   -3.525538   -0.247731
     16          8           0        1.612552   -2.064719   -1.979972
     17          7           0       -4.528186    2.568385    0.088490
     18          6           0       -3.193147    2.734382   -0.046179
     19          6           0       -2.842108    4.187933    0.137066
     20          6           0       -4.124970    4.839364    0.247825
     21          6           0       -5.127202    3.767469    0.159018
     22          6           0       -1.508589    4.741132    0.194370
     23          6           0       -4.395837    6.357355    0.419844
     24          8           0       -5.533623    6.846650    0.560028
     25          6           0       -3.197389    7.349490    0.423173
     26          7           0       -7.526492    1.716264    0.349860
     27          6           0       -7.660753    3.038774    0.206861
     28          6           0       -9.151896    3.415440    0.225843
     29          6           0       -9.884437    2.097907    0.605491
     30          6           0       -8.741386    1.118306    0.388232
     31          6           0       -9.491000    4.561801    1.305881
     32          6           0      -11.211505    1.857386   -0.204780
     33          6           0      -11.144108    1.419484   -1.686103
     34          7           0       -6.546583   -1.032342    0.369858
     35          6           0       -7.882958   -1.328153    0.390172
     36          6           0       -8.178716   -2.714063    0.616948
     37          6           0       -6.891042   -3.285604    0.543743
     38          6           0       -5.958391   -2.217650    0.383569
     39          6           0       -9.574793   -3.359590    0.788089
     40          6           0       -6.136634   -4.574099    0.462123
     41          8           0       -6.468504   -5.735947    0.457110
     42          6           0       -4.604164   -4.085277    0.285521
     43          6           0       -3.674472   -4.720265    1.236738
     44          8           0       -3.625259   -4.547547    2.440079
     45          8           0       -2.838736   -5.579783    0.617318
     46          6           0       -1.782924   -6.154486    1.487023
     47          6           0        2.971099   -2.109954   -1.429010
     48          6           0        4.016048   -1.658703   -2.389508
     49          6           0        5.325265   -1.974940   -2.332129
     50          6           0        5.999668   -2.882263   -1.350253
     51          6           0        6.178629   -1.391067   -3.493707
     52          6           0        6.988044   -0.224950   -3.153255
     53          6           0        8.579640   -0.430355   -3.246622
     54          6           0        9.245795    0.581798   -2.246760
     55          6           0        9.070576    0.188579   -0.793673
     56          6           0       10.776485    0.580469   -2.478136
     57          6           0       11.397746    1.965096   -2.127660
     58          6           0       12.873167    1.791626   -1.672016
     59          6           0       13.071549    2.443725   -0.268214
     60          6           0       13.679448    3.838302   -0.426352
     61          6           0       13.838169    1.742772    0.892158
     62          6           0       12.921150    1.208454    2.082741
     63          6           0       13.570421   -0.026161    2.748926
     64          6           0       13.448298   -0.128759    4.290170
     65          6           0       14.753710   -0.698195    4.797367
     66          6           0       12.294057   -0.927948    4.706572
     67          1           0       -1.228831    1.967749   -0.247033
     68          1           0       -6.927901    4.954981    0.277069
     69          1           0       -9.895319   -0.659468    0.429452
     70          1           0       -1.699056   -2.807054    0.612070
     71          1           0       -0.744314   -0.573297   -0.973645
     72          1           0       -0.921765   -0.262699    1.939683
     73          1           0        0.385627    0.234319    0.710851
     74          1           0        0.185872   -1.406400    1.250161
     75          1           0       -2.568085   -2.261294   -2.323831
     76          1           0       -2.410816   -3.856649   -1.567930
     77          1           0       -0.436791   -2.602550   -3.153244
     78          1           0       -0.444598   -4.113999   -2.280847
     79          1           0       -1.482810    5.497046    0.979994
     80          1           0       -1.331849    5.269820   -0.742346
     81          1           0       -0.700619    4.014506    0.282749
     82          1           0       -3.760995    8.281612    0.461410
     83          1           0       -2.694022    7.362916   -0.543180
     84          1           0       -2.621527    7.212215    1.338385
     85          1           0       -9.367935    3.644025   -0.817083
     86          1           0      -10.159407    2.033396    1.658072
     87          1           0       -8.707218    4.778203    2.032356
     88          1           0      -10.415387    4.324389    1.832824
     89          1           0       -9.623214    5.456497    0.697650
     90          1           0      -11.918826    2.681430   -0.108014
     91          1           0      -11.621871    1.101302    0.464029
     92          1           0      -11.774523    2.098570   -2.260453
     93          1           0      -11.470508    0.381960   -1.621154
     94          1           0      -10.155442    1.538334   -2.129093
     95          1           0      -10.136653   -2.978645    1.640445
     96          1           0       -9.501825   -4.443321    0.878811
     97          1           0      -10.158896   -2.872964    0.007344
     98          1           0       -4.414697   -4.516601   -0.697399
     99          1           0       -2.059852   -7.022157    2.085181
    100          1           0       -1.337890   -5.511129    2.246735
    101          1           0       -1.024212   -6.539464    0.805755
    102          1           0        3.097103   -3.180874   -1.269607
    103          1           0        2.939060   -1.549009   -0.494474
    104          1           0        3.639662   -1.146742   -3.274623
    105          1           0        6.981082   -2.482216   -1.096496
    106          1           0        6.005995   -3.846855   -1.857212
    107          1           0        5.453733   -2.970145   -0.410551
    108          1           0        5.533223   -1.238219   -4.359431
    109          1           0        6.755057   -2.277650   -3.758333
    110          1           0        6.720151    0.104886   -2.149474
    111          1           0        6.777334    0.572205   -3.865914
    112          1           0        8.928385   -0.369315   -4.277891
    113          1           0        8.946966   -1.424587   -2.992685
    114          1           0        8.790817    1.548577   -2.461742
    115          1           0        8.248930   -0.524574   -0.721835
    116          1           0        8.839106    1.148839   -0.333594
    117          1           0        9.974641   -0.172767   -0.302116
    118          1           0       11.100019    0.292261   -3.479023
    119          1           0       11.275399   -0.229809   -1.946343
    120          1           0       10.720607    2.636024   -1.600495
    121          1           0       11.483357    2.395441   -3.125483
    122          1           0       13.630843    2.045979   -2.413348
    123          1           0       13.180953    0.765380   -1.473570
    124          1           0       12.038767    2.543202    0.065334
    125          1           0       14.760486    3.848227   -0.567444
    126          1           0       13.394336    4.427490    0.445753
    127          1           0       13.194273    4.394535   -1.228480
    128          1           0       14.706744    2.294613    1.251895
    129          1           0       14.205261    0.764462    0.583204
    130          1           0       11.969033    1.020747    1.584936
    131          1           0       12.924344    2.067373    2.753210
    132          1           0       14.593338   -0.074123    2.375806
    133          1           0       13.051576   -0.786372    2.164501
    134          1           0       13.211687    0.771254    4.858410
    135          1           0       15.649486   -0.169488    4.468855
    136          1           0       14.774253   -1.761890    4.562839
    137          1           0       14.740884   -0.635400    5.885152
    138          1           0       11.885029   -0.496351    5.620757
    139          1           0       12.516673   -1.993606    4.765927
    140          1           0       11.452202   -0.815050    4.023807
 ---------------------------------------------------------------------

 SCF Done:  E(RwB97XD) =  -3007.85019655     A.U. after   19 cycles

 Excitation energies and oscillator strengths:

 Excited State   1:      Singlet-A      1.6645 eV  744.88 nm  f=0.4047  <S**2>=0.000
     245 -> 248        0.16190
     246 -> 247        0.68732
     245 <- 248        0.10490
 This state for optimization and/or second-order correction.
 Total Energy, E(TD-HF/TD-DFT) =  -3007.78902800
 Copying the excited state density for this state as the 1-particle RhoCI density.

 Excited State   2:      Singlet-A      2.1742 eV  570.26 nm  f=0.1782  <S**2>=0.000
     245 -> 247        0.66085
     246 -> 248       -0.22598

 Excited State   3:      Singlet-A      3.4553 eV  358.82 nm  f=0.0037  <S**2>=0.000
     241 -> 247       -0.18018
     244 -> 247        0.66151

 Excited State   4:      Singlet-A      3.6564 eV  339.08 nm  f=0.0989  <S**2>=0.000
     239 -> 247        0.18587
     239 -> 249        0.14109
     240 -> 247        0.16174
     241 -> 247        0.46781
     246 -> 248        0.37222

 Excited State   5:      Singlet-A      3.6764 eV  337.24 nm  f=0.0284  <S**2>=0.000
     239 -> 247        0.47037
     239 -> 248       -0.22239
     239 -> 249        0.32899
     239 -> 251        0.12815
     241 -> 247       -0.18735
     246 -> 248       -0.17367

 The electronic state is 1-A.
 Alpha  occ. eigenvalues --  -46.95752 -19.31776 -19.29737 -19.25648 -19.24975
 Alpha  occ. eigenvalues --  -19.23835 -19.22938 -14.46374 -14.45726 -14.44918
 Alpha  occ. eigenvalues --  -14.42927 -10.44471 -10.41594 -10.40493 -10.38879
 Alpha  occ. eigenvalues --  -10.36259 -10.35504 -10.35394 -10.35247 -10.34394
 Alpha  occ. eigenvalues --  -10.34359 -10.33988 -10.33880 -10.33432 -10.32547
 Alpha  occ. eigenvalues --  -10.32478 -10.32210 -10.31850 -10.31703 -10.31671
 Alpha  occ. eigenvalues --  -10.31486 -10.31482 -10.31418 -10.31388 -10.31366
 Alpha  occ. eigenvalues --  -10.31292 -10.31291 -10.31106 -10.30900 -10.30824
 Alpha  occ. eigenvalues --  -10.30567 -10.30395 -10.30309 -10.30160 -10.30116
 Alpha  occ. eigenvalues --  -10.30066 -10.30029 -10.29776 -10.29747 -10.29706
 Alpha  occ. eigenvalues --  -10.29627 -10.29462 -10.29431 -10.29356 -10.29322
 Alpha  occ. eigenvalues --  -10.29112 -10.28910 -10.28887 -10.28826 -10.28818
 Alpha  occ. eigenvalues --  -10.28719 -10.28674 -10.28624 -10.28090 -10.27920
 Alpha  occ. eigenvalues --  -10.27823  -3.21725  -1.95291  -1.94809  -1.94731
 Alpha  occ. eigenvalues --   -1.19151  -1.18097  -1.12153  -1.11765  -1.10155
 Alpha  occ. eigenvalues --   -1.08377  -1.06799  -1.05892  -1.05463  -1.04411
 Alpha  occ. eigenvalues --   -0.93556  -0.93292  -0.91924  -0.91453  -0.90899
 Alpha  occ. eigenvalues --   -0.90472  -0.90191  -0.89865  -0.89436  -0.88762
 Alpha  occ. eigenvalues --   -0.87712  -0.87564  -0.86425  -0.85399  -0.84667
 Alpha  occ. eigenvalues --   -0.84317  -0.83727  -0.83505  -0.82632  -0.82392
 Alpha  occ. eigenvalues --   -0.82061  -0.80875  -0.79991  -0.78638  -0.78370
 Alpha  occ. eigenvalues --   -0.77834  -0.77700  -0.76824  -0.76568  -0.75793
 Alpha  occ. eigenvalues --   -0.75511  -0.74802  -0.73345  -0.72636  -0.71768
 Alpha  occ. eigenvalues --   -0.70368  -0.69837  -0.69319  -0.68431  -0.67357
 Alpha  occ. eigenvalues --   -0.67063  -0.66490  -0.66276  -0.66236  -0.66063
 Alpha  occ. eigenvalues --   -0.65784  -0.65458  -0.64802  -0.63497  -0.62673
 Alpha  occ. eigenvalues --   -0.62116  -0.61385  -0.60802  -0.60016  -0.59482
 Alpha  occ. eigenvalues --   -0.58999  -0.58789  -0.58388  -0.57955  -0.57413
 Alpha  occ. eigenvalues --   -0.57146  -0.56775  -0.56572  -0.56304  -0.56190
 Alpha  occ. eigenvalues --   -0.55599  -0.55519  -0.55466  -0.55226  -0.55124
 Alpha  occ. eigenvalues --   -0.54606  -0.54454  -0.54359  -0.54191  -0.53842
 Alpha  occ. eigenvalues --   -0.53552  -0.53193  -0.52947  -0.52822  -0.52772
 Alpha  occ. eigenvalues --   -0.52262  -0.51990  -0.51943  -0.51567  -0.51457
 Alpha  occ. eigenvalues --   -0.51408  -0.51107  -0.50926  -0.50904  -0.50710
 Alpha  occ. eigenvalues --   -0.50455  -0.50409  -0.50309  -0.50144  -0.49951
 Alpha  occ. eigenvalues --   -0.49528  -0.49426  -0.49165  -0.48784  -0.48707
 Alpha  occ. eigenvalues --   -0.48359  -0.48061  -0.47891  -0.47798  -0.47534
 Alpha  occ. eigenvalues --   -0.47436  -0.47356  -0.47043  -0.46976  -0.46662
 Alpha  occ. eigenvalues --   -0.46443  -0.46336  -0.45959  -0.45919  -0.45690
 Alpha  occ. eigenvalues --   -0.45624  -0.45527  -0.45127  -0.45110  -0.44912
 Alpha  occ. eigenvalues --   -0.44814  -0.44665  -0.44389  -0.44131  -0.44046
 Alpha  occ. eigenvalues --   -0.44025  -0.43792  -0.43657  -0.43523  -0.43249
 Alpha  occ. eigenvalues --   -0.43217  -0.43085  -0.42973  -0.42679  -0.41864
 Alpha  occ. eigenvalues --   -0.41714  -0.41328  -0.40927  -0.40862  -0.40643
 Alpha  occ. eigenvalues --   -0.40320  -0.40104  -0.39882  -0.39783  -0.39618
 Alpha  occ. eigenvalues --   -0.39205  -0.39039  -0.38431  -0.37903  -0.37731
 Alpha  occ. eigenvalues --   -0.37674  -0.37460  -0.36575  -0.36447  -0.35906
 Alpha  occ. eigenvalues --   -0.35463  -0.35161  -0.34401  -0.33694  -0.33355
 Alpha  occ. eigenvalues --   -0.33051  -0.32668  -0.32065  -0.31286  -0.25585
 Alpha  occ. eigenvalues --   -0.22855
 Alpha virt. eigenvalues --   -0.07060   0.01304   0.02515   0.04727   0.04920
 Alpha virt. eigenvalues --    0.05686   0.07682   0.08508   0.08795   0.09939
 Alpha virt. eigenvalues --    0.10942   0.11008   0.11465   0.12030   0.12233

 Mulliken charges:
               1
     1  Mg   0.964295
     2  C    0.085667
     3  C   -0.094185
     4  C   -0.067899
     5  C   -0.060792
     6  N   -0.392668
     7  C   -0.064375
     8  C   -0.036961
     9  C   -0.122322
    10  C    0.118497
    11  C    0.015114
    12  C    0.025962
    13  C   -0.002109
    14  C    0.215413
    15  O   -0.301133
    16  O   -0.359001
    17  N   -0.496196
    18  C    0.149228
    19  C   -0.175806
    20  C   -0.069108
    21  C    0.140240
    22  C    0.088728
    23  C    0.052687
    24  O   -0.243499
    25  C   -0.036997
    26  N   -0.295405
    27  C    0.035990
    28  C   -0.074352
    29  C   -0.051587
    30  C    0.027171
    31  C    0.003687
    32  C   -0.057413
    33  C   -0.029694
    34  N   -0.334166
    35  C    0.060707
    36  C   -0.189448
    37  C   -0.082269
    38  C    0.079387
    39  C    0.095503
    40  C    0.167186
    41  O   -0.183293
    42  C   -0.127828
    43  C    0.247543
    44  O   -0.251796
    45  O   -0.354070
    46  C    0.140673
    47  C    0.244211
    48  C   -0.134129
    49  C   -0.255219
    50  C    0.045714
    51  C    0.050976
    52  C   -0.004711
    53  C   -0.026329
    54  C   -0.206890
    55  C    0.030178
    56  C    0.001741
    57  C   -0.025865
    58  C    0.026478
    59  C   -0.168457
    60  C   -0.007295
    61  C   -0.021345
    62  C   -0.055620
    63  C   -0.003695
    64  C   -0.167470
    65  C   -0.007956
    66  C    0.004030
    67  H   -0.016713
    68  H    0.018870
    69  H   -0.031481
    70  H    0.052979
    71  H    0.035266
    72  H    0.047527
    73  H    0.036505
    74  H    0.046722
    75  H    0.037719
    76  H    0.049954
    77  H    0.049803
    78  H    0.061442
    79  H    0.045405
    80  H    0.051713
    81  H    0.047020
    82  H    0.053152
    83  H    0.063810
    84  H    0.076861
    85  H    0.040541
    86  H    0.046213
    87  H    0.060008
    88  H    0.040613
    89  H    0.044305
    90  H    0.029626
    91  H    0.028220
    92  H    0.039779
    93  H    0.051604
    94  H    0.041169
    95  H    0.035291
    96  H    0.073336
    97  H    0.037858
    98  H    0.071179
    99  H    0.046389
   100  H    0.062310
   101  H    0.049299
   102  H    0.050190
   103  H    0.059398
   104  H    0.031000
   105  H    0.044955
   106  H    0.065288
   107  H    0.043583
   108  H    0.019850
   109  H    0.014330
   110  H    0.028293
   111  H    0.033322
   112  H    0.022356
   113  H    0.008943
   114  H    0.025406
   115  H    0.023105
   116  H    0.027915
   117  H    0.040113
   118  H    0.003475
   119  H    0.005645
   120  H    0.036430
   121  H    0.025747
   122  H    0.018247
   123  H    0.000890
   124  H    0.010957
   125  H    0.039916
   126  H    0.020587
   127  H    0.012086
   128  H    0.026670
   129  H    0.000809
   130  H    0.028555
   131  H    0.025452
   132  H    0.020983
   133  H    0.016827
   134  H    0.023426
   135  H    0.038139
   136  H    0.024813
   137  H    0.016379
   138  H    0.022128
   139  H    0.024456
   140  H    0.017392
 Sum of Mulliken charges =  -0.00000

 Dipole moment (field-independent basis, Debye):
    X=              5.5034    Y=              4.7949    Z=             -4.6473  Tot=              8.6531
 Quadrupole moment (field-independent basis, Debye-Ang):
   XX=           -379.8147   YY=           -431.7125   ZZ=           -403.1827
   XY=            -29.6168   XZ=              9.9568   YZ=              9.5122

 Normal termination of Gaussian 16 at Sun May  1 01:00:28 2022.
