 Gaussian 16, Revision A.03,
 Gaussian 16:  ES64L-G16RevA.03 25-Dec-2016

 --------------------
 #p ZINDO=(nstates=5)
 --------------------

 ----------------------------
 step_951_chromophore_3 ZINDO
 ----------------------------
 Symbolic Z-matrix:
 Charge =  0 Multiplicity = 1

                         Standard orientation:
 ---------------------------------------------------------------------
 Center     Atomic      Atomic             Coordinates (Angstroms)
 Number     Number       Type             X           Y           Z
 ---------------------------------------------------------------------
      1         12           0       -5.457072    0.850578   -0.099015
      2          6           0       -4.601817   -2.556062    0.214281
      3          6           0       -2.267831    1.641501   -0.165882
      4          6           0       -6.586299    3.925244    0.148527
      5          6           0       -8.885061   -0.249444    0.357606
      6          7           0       -3.685001   -0.366339    0.029642
      7          6           0       -3.560067   -1.752545    0.039383
      8          6           0       -2.066578   -2.150693   -0.175290
      9          6           0       -1.362981   -0.756639   -0.094593
     10          6           0       -2.486646    0.261805   -0.095909
     11          6           0       -0.362335   -0.490081    1.032355
     12          6           0       -1.999822   -2.848177   -1.601245
     13          6           0       -0.500507   -3.032428   -2.153575
     14          6           0        0.728332   -2.836322   -1.281340
     15          8           0        0.904879   -3.525538   -0.247731
     16          8           0        1.612552   -2.064719   -1.979972
     17          7           0       -4.528186    2.568385    0.088490
     18          6           0       -3.193147    2.734382   -0.046179
     19          6           0       -2.842108    4.187933    0.137066
     20          6           0       -4.124970    4.839364    0.247825
     21          6           0       -5.127202    3.767469    0.159018
     22          6           0       -1.508589    4.741132    0.194370
     23          6           0       -4.395837    6.357355    0.419844
     24          8           0       -5.533623    6.846650    0.560028
     25          6           0       -3.197389    7.349490    0.423173
     26          7           0       -7.526492    1.716264    0.349860
     27          6           0       -7.660753    3.038774    0.206861
     28          6           0       -9.151896    3.415440    0.225843
     29          6           0       -9.884437    2.097907    0.605491
     30          6           0       -8.741386    1.118306    0.388232
     31          6           0       -9.491000    4.561801    1.305881
     32          6           0      -11.211505    1.857386   -0.204780
     33          6           0      -11.144108    1.419484   -1.686103
     34          7           0       -6.546583   -1.032342    0.369858
     35          6           0       -7.882958   -1.328153    0.390172
     36          6           0       -8.178716   -2.714063    0.616948
     37          6           0       -6.891042   -3.285604    0.543743
     38          6           0       -5.958391   -2.217650    0.383569
     39          6           0       -9.574793   -3.359590    0.788089
     40          6           0       -6.136634   -4.574099    0.462123
     41          8           0       -6.468504   -5.735947    0.457110
     42          6           0       -4.604164   -4.085277    0.285521
     43          6           0       -3.674472   -4.720265    1.236738
     44          8           0       -3.625259   -4.547547    2.440079
     45          8           0       -2.838736   -5.579783    0.617318
     46          6           0       -1.782924   -6.154486    1.487023
     47          6           0        2.971099   -2.109954   -1.429010
     48          6           0        4.016048   -1.658703   -2.389508
     49          6           0        5.325265   -1.974940   -2.332129
     50          6           0        5.999668   -2.882263   -1.350253
     51          6           0        6.178629   -1.391067   -3.493707
     52          6           0        6.988044   -0.224950   -3.153255
     53          6           0        8.579640   -0.430355   -3.246622
     54          6           0        9.245795    0.581798   -2.246760
     55          6           0        9.070576    0.188579   -0.793673
     56          6           0       10.776485    0.580469   -2.478136
     57          6           0       11.397746    1.965096   -2.127660
     58          6           0       12.873167    1.791626   -1.672016
     59          6           0       13.071549    2.443725   -0.268214
     60          6           0       13.679448    3.838302   -0.426352
     61          6           0       13.838169    1.742772    0.892158
     62          6           0       12.921150    1.208454    2.082741
     63          6           0       13.570421   -0.026161    2.748926
     64          6           0       13.448298   -0.128759    4.290170
     65          6           0       14.753710   -0.698195    4.797367
     66          6           0       12.294057   -0.927948    4.706572
     67          1           0       -1.228831    1.967749   -0.247033
     68          1           0       -6.927901    4.954981    0.277069
     69          1           0       -9.895319   -0.659468    0.429452
     70          1           0       -1.699056   -2.807054    0.612070
     71          1           0       -0.744314   -0.573297   -0.973645
     72          1           0       -0.921765   -0.262699    1.939683
     73          1           0        0.385627    0.234319    0.710851
     74          1           0        0.185872   -1.406400    1.250161
     75          1           0       -2.568085   -2.261294   -2.323831
     76          1           0       -2.410816   -3.856649   -1.567930
     77          1           0       -0.436791   -2.602550   -3.153244
     78          1           0       -0.444598   -4.113999   -2.280847
     79          1           0       -1.482810    5.497046    0.979994
     80          1           0       -1.331849    5.269820   -0.742346
     81          1           0       -0.700619    4.014506    0.282749
     82          1           0       -3.760995    8.281612    0.461410
     83          1           0       -2.694022    7.362916   -0.543180
     84          1           0       -2.621527    7.212215    1.338385
     85          1           0       -9.367935    3.644025   -0.817083
     86          1           0      -10.159407    2.033396    1.658072
     87          1           0       -8.707218    4.778203    2.032356
     88          1           0      -10.415387    4.324389    1.832824
     89          1           0       -9.623214    5.456497    0.697650
     90          1           0      -11.918826    2.681430   -0.108014
     91          1           0      -11.621871    1.101302    0.464029
     92          1           0      -11.774523    2.098570   -2.260453
     93          1           0      -11.470508    0.381960   -1.621154
     94          1           0      -10.155442    1.538334   -2.129093
     95          1           0      -10.136653   -2.978645    1.640445
     96          1           0       -9.501825   -4.443321    0.878811
     97          1           0      -10.158896   -2.872964    0.007344
     98          1           0       -4.414697   -4.516601   -0.697399
     99          1           0       -2.059852   -7.022157    2.085181
    100          1           0       -1.337890   -5.511129    2.246735
    101          1           0       -1.024212   -6.539464    0.805755
    102          1           0        3.097103   -3.180874   -1.269607
    103          1           0        2.939060   -1.549009   -0.494474
    104          1           0        3.639662   -1.146742   -3.274623
    105          1           0        6.981082   -2.482216   -1.096496
    106          1           0        6.005995   -3.846855   -1.857212
    107          1           0        5.453733   -2.970145   -0.410551
    108          1           0        5.533223   -1.238219   -4.359431
    109          1           0        6.755057   -2.277650   -3.758333
    110          1           0        6.720151    0.104886   -2.149474
    111          1           0        6.777334    0.572205   -3.865914
    112          1           0        8.928385   -0.369315   -4.277891
    113          1           0        8.946966   -1.424587   -2.992685
    114          1           0        8.790817    1.548577   -2.461742
    115          1           0        8.248930   -0.524574   -0.721835
    116          1           0        8.839106    1.148839   -0.333594
    117          1           0        9.974641   -0.172767   -0.302116
    118          1           0       11.100019    0.292261   -3.479023
    119          1           0       11.275399   -0.229809   -1.946343
    120          1           0       10.720607    2.636024   -1.600495
    121          1           0       11.483357    2.395441   -3.125483
    122          1           0       13.630843    2.045979   -2.413348
    123          1           0       13.180953    0.765380   -1.473570
    124          1           0       12.038767    2.543202    0.065334
    125          1           0       14.760486    3.848227   -0.567444
    126          1           0       13.394336    4.427490    0.445753
    127          1           0       13.194273    4.394535   -1.228480
    128          1           0       14.706744    2.294613    1.251895
    129          1           0       14.205261    0.764462    0.583204
    130          1           0       11.969033    1.020747    1.584936
    131          1           0       12.924344    2.067373    2.753210
    132          1           0       14.593338   -0.074123    2.375806
    133          1           0       13.051576   -0.786372    2.164501
    134          1           0       13.211687    0.771254    4.858410
    135          1           0       15.649486   -0.169488    4.468855
    136          1           0       14.774253   -1.761890    4.562839
    137          1           0       14.740884   -0.635400    5.885152
    138          1           0       11.885029   -0.496351    5.620757
    139          1           0       12.516673   -1.993606    4.765927
    140          1           0       11.452202   -0.815050    4.023807
 ---------------------------------------------------------------------

 SCF Done:  E(RZINDO/S) =  -474.258145036     A.U. after   19 cycles

 Excitation energies and oscillator strengths:

 Excited State   1:      Singlet-A      1.2554 eV  987.61 nm  f=0.6233  <S**2>=0.000
     175 ->178         0.17138
     176 ->177         0.66879
 This state for optimization and/or second-order correction.
 Total Energy, E(CIS/TDA) =  -474.212009891
 Copying the excited state density for this state as the 1-particle RhoCI density.

 Excited State   2:      Singlet-A      1.9475 eV  636.63 nm  f=0.1148  <S**2>=0.000
     175 ->177         0.58713
     176 ->178        -0.35745

 Excited State   3:      Singlet-A      3.0091 eV  412.03 nm  f=0.0035  <S**2>=0.000
     167 ->177         0.10590
     167 ->179        -0.19189
     168 ->177         0.27999
     168 ->178        -0.16720
     168 ->179        -0.44530
     168 ->182         0.16280
     168 ->186         0.17970

 Excited State   4:      Singlet-A      3.0583 eV  405.40 nm  f=0.4913  <S**2>=0.000
     175 ->177         0.23179
     176 ->178         0.42191
     176 ->179         0.27096
     176 ->181         0.39410

 Excited State   5:      Singlet-A      3.1012 eV  399.80 nm  f=0.5193  <S**2>=0.000
     174 ->177        -0.11069
     175 ->177        -0.23563
     176 ->178        -0.35457
     176 ->179         0.40802
     176 ->181         0.25387
     176 ->182         0.18359

 The electronic state is 1-A.
 Alpha  occ. eigenvalues --   -1.83340  -1.81712  -1.80296  -1.73966  -1.72513
 Alpha  occ. eigenvalues --   -1.70935  -1.65731  -1.62318  -1.57458  -1.57369
 Alpha  occ. eigenvalues --   -1.56959  -1.52834  -1.49667  -1.47222  -1.46728
 Alpha  occ. eigenvalues --   -1.42806  -1.41466  -1.40828  -1.40496  -1.38496
 Alpha  occ. eigenvalues --   -1.36060  -1.34853  -1.32520  -1.31946  -1.28275
 Alpha  occ. eigenvalues --   -1.27293  -1.23583  -1.21771  -1.20889  -1.18467
 Alpha  occ. eigenvalues --   -1.17743  -1.16407  -1.15913  -1.14617  -1.12351
 Alpha  occ. eigenvalues --   -1.12165  -1.11104  -1.10009  -1.04418  -1.03844
 Alpha  occ. eigenvalues --   -1.03256  -1.01042  -1.00326  -0.99140  -0.97406
 Alpha  occ. eigenvalues --   -0.95603  -0.94630  -0.93139  -0.92392  -0.91640
 Alpha  occ. eigenvalues --   -0.90374  -0.89437  -0.89034  -0.87705  -0.87321
 Alpha  occ. eigenvalues --   -0.85189  -0.83991  -0.83480  -0.81828  -0.81109
 Alpha  occ. eigenvalues --   -0.80607  -0.79165  -0.77163  -0.76617  -0.76347
 Alpha  occ. eigenvalues --   -0.75049  -0.74786  -0.74117  -0.73606  -0.73488
 Alpha  occ. eigenvalues --   -0.73275  -0.72616  -0.72480  -0.71782  -0.70969
 Alpha  occ. eigenvalues --   -0.70541  -0.69848  -0.69295  -0.69087  -0.68416
 Alpha  occ. eigenvalues --   -0.67936  -0.67543  -0.66905  -0.66294  -0.65458
 Alpha  occ. eigenvalues --   -0.65145  -0.64599  -0.64137  -0.63799  -0.63582
 Alpha  occ. eigenvalues --   -0.63130  -0.62535  -0.62310  -0.62204  -0.61743
 Alpha  occ. eigenvalues --   -0.61157  -0.60561  -0.60393  -0.60289  -0.60080
 Alpha  occ. eigenvalues --   -0.59782  -0.59564  -0.59107  -0.58437  -0.58235
 Alpha  occ. eigenvalues --   -0.57959  -0.57459  -0.57125  -0.56821  -0.55829
 Alpha  occ. eigenvalues --   -0.55789  -0.55691  -0.55585  -0.55134  -0.54725
 Alpha  occ. eigenvalues --   -0.54373  -0.54184  -0.53436  -0.53021  -0.52682
 Alpha  occ. eigenvalues --   -0.52421  -0.52206  -0.51885  -0.51656  -0.51548
 Alpha  occ. eigenvalues --   -0.51069  -0.50916  -0.50726  -0.50501  -0.50262
 Alpha  occ. eigenvalues --   -0.49803  -0.49724  -0.49597  -0.49492  -0.49272
 Alpha  occ. eigenvalues --   -0.49042  -0.48628  -0.48401  -0.48097  -0.47695
 Alpha  occ. eigenvalues --   -0.47229  -0.47064  -0.46954  -0.46713  -0.46549
 Alpha  occ. eigenvalues --   -0.46255  -0.46145  -0.46048  -0.45648  -0.45499
 Alpha  occ. eigenvalues --   -0.45383  -0.44777  -0.44336  -0.43634  -0.43325
 Alpha  occ. eigenvalues --   -0.43063  -0.42783  -0.42703  -0.42197  -0.42166
 Alpha  occ. eigenvalues --   -0.41594  -0.40862  -0.40817  -0.39283  -0.38525
 Alpha  occ. eigenvalues --   -0.37312  -0.36947  -0.36312  -0.34315  -0.33928
 Alpha  occ. eigenvalues --   -0.33606  -0.32645  -0.32535  -0.31723  -0.26510
 Alpha  occ. eigenvalues --   -0.21751
 Alpha virt. eigenvalues --   -0.08667  -0.01180  -0.00450   0.00602   0.01264
 Alpha virt. eigenvalues --    0.01799   0.03336   0.03768   0.04407   0.04932
 Alpha virt. eigenvalues --    0.06014   0.06861   0.07129   0.07820   0.08385

 Mulliken charges:
               1
     1  Mg   0.438893
     2  C   -0.020121
     3  C   -0.098337
     4  C   -0.084972
     5  C   -0.071464
     6  N   -0.296322
     7  C    0.098641
     8  C    0.005205
     9  C    0.008501
    10  C    0.165095
    11  C   -0.048342
    12  C   -0.022142
    13  C   -0.013141
    14  C    0.477877
    15  O   -0.536239
    16  O   -0.265862
    17  N   -0.297210
    18  C    0.120153
    19  C    0.024906
    20  C   -0.053220
    21  C    0.150036
    22  C   -0.030531
    23  C    0.319897
    24  O   -0.516238
    25  C   -0.039452
    26  N   -0.275447
    27  C    0.160352
    28  C    0.002576
    29  C    0.002627
    30  C    0.104809
    31  C   -0.054486
    32  C   -0.039447
    33  C   -0.055449
    34  N   -0.314383
    35  C    0.071066
    36  C    0.009062
    37  C   -0.069013
    38  C    0.107470
    39  C   -0.043033
    40  C    0.329856
    41  O   -0.508074
    42  C    0.044005
    43  C    0.494440
    44  O   -0.527080
    45  O   -0.261153
    46  C    0.073223
    47  C    0.100188
    48  C   -0.100766
    49  C   -0.008610
    50  C   -0.035666
    51  C   -0.018245
    52  C   -0.024443
    53  C   -0.046873
    54  C   -0.010650
    55  C   -0.055272
    56  C   -0.038152
    57  C   -0.038047
    58  C   -0.032374
    59  C   -0.016641
    60  C   -0.055318
    61  C   -0.050923
    62  C   -0.047910
    63  C   -0.035647
    64  C   -0.001106
    65  C   -0.053546
    66  C   -0.049408
    67  H    0.020627
    68  H    0.037593
    69  H    0.017941
    70  H    0.052820
    71  H    0.021228
    72  H    0.028457
    73  H    0.023386
    74  H    0.024331
    75  H    0.027852
    76  H    0.033488
    77  H    0.034081
    78  H    0.041239
    79  H    0.034977
    80  H    0.032021
    81  H    0.030388
    82  H    0.034814
    83  H    0.042686
    84  H    0.049637
    85  H    0.042322
    86  H    0.036385
    87  H    0.035414
    88  H    0.023199
    89  H    0.018628
    90  H    0.017182
    91  H    0.012410
    92  H    0.020734
    93  H    0.031527
    94  H    0.024546
    95  H    0.025423
    96  H    0.044943
    97  H    0.031988
    98  H    0.043258
    99  H    0.040880
   100  H    0.051740
   101  H    0.025388
   102  H    0.049920
   103  H    0.052282
   104  H    0.032606
   105  H    0.028471
   106  H    0.040024
   107  H    0.023491
   108  H    0.019722
   109  H    0.014828
   110  H    0.025657
   111  H    0.018233
   112  H    0.019709
   113  H    0.016986
   114  H    0.025288
   115  H    0.022461
   116  H    0.013956
   117  H    0.026974
   118  H    0.009677
   119  H    0.017130
   120  H    0.039538
   121  H    0.006557
   122  H    0.024722
   123  H    0.011684
   124  H    0.016817
   125  H    0.026401
   126  H    0.008399
   127  H    0.007161
   128  H    0.026542
   129  H    0.010570
   130  H    0.028841
   131  H    0.018027
   132  H    0.020984
   133  H    0.019252
   134  H    0.026812
   135  H    0.020417
   136  H    0.020885
   137  H    0.005583
   138  H    0.013550
   139  H    0.020837
   140  H    0.007347
 Sum of Mulliken charges =  -0.00000

 Dipole moment (field-independent basis, Debye):
    X=              7.6393    Y=              7.0573    Z=             -7.1025  Tot=             12.5940
 N-N= 4.245306548148D+03 E-N= 0.000000000000D+00  KE=-9.164939604857D+03
 Leave Link  601 at Sun May  1 01:14:16 2022, MaxMem=  6710886400 cpu:               0.7 elap:               0.0
 (Enter /sw/apps/gaussian-16.0/g16/l9999.exe)
 1\1\GINC-BP1-COMPUTE192\SP\RZINDO CIS\STO-3G\C55H74Mg1N4O6\OF15641\01-
 May-2022\0\\#p ZINDO=(nstates=5)\\step_951_chromophore_3 ZINDO\\0,1\Mg
 ,0,2.007,8.302,26.69\C,0,2.604,10.59,29.306\C,0,2.369,5.805,28.796\C,0
 ,1.94,6.469,23.965\C,0,2.01,11.207,24.515\N,0,2.451,8.269,28.797\C,0,2
 .545,9.324,29.7\C,0,2.57,8.771,31.159\C,0,2.686,7.233,30.902\C,0,2.472
 ,7.057,29.411\C,0,3.933,6.488,31.384\C,0,1.204,9.233,31.826\C,0,0.886,
 8.487,33.215\C,0,1.918,7.655,33.958\O,0,2.998,8.161,34.348\O,0,1.32,6.

 Normal termination of Gaussian 16 at Sun May  1 01:14:17 2022.
