 Gaussian 16, Revision A.03,
 Gaussian 16:  ES64L-G16RevA.03 25-Dec-2016

 ------------------------------
 #p blyp/Def2SVP td=(nstates=5)
 ------------------------------

 --------------------------------------------------
 step_151_chromophore_27 TDDFT with blyp functional
 --------------------------------------------------
 Symbolic Z-matrix:
 Charge =  0 Multiplicity = 1

                         Standard orientation:
 ---------------------------------------------------------------------
 Center     Atomic      Atomic             Coordinates (Angstroms)
 Number     Number       Type             X           Y           Z
 ---------------------------------------------------------------------
      1         12           0       -4.506472    0.734670    0.005827
      2          6           0       -3.795213   -2.580713    0.339933
      3          6           0       -1.094872    1.450949    0.380611
      4          6           0       -5.205036    3.991173   -0.335281
      5          6           0       -7.975827   -0.081247    0.102639
      6          7           0       -2.628843   -0.390781    0.265611
      7          6           0       -2.628934   -1.769346    0.128943
      8          6           0       -1.155903   -2.327106    0.069293
      9          6           0       -0.379396   -1.049037    0.549264
     10          6           0       -1.433229    0.082520    0.366724
     11          6           0        0.241944   -1.070669    1.934130
     12          6           0       -0.779702   -2.927738   -1.351177
     13          6           0       -0.219593   -4.305022   -1.273275
     14          6           0        1.256599   -4.352376   -0.856285
     15          8           0        1.755566   -4.620840    0.190248
     16          8           0        2.029484   -3.995706   -1.933368
     17          7           0       -3.252270    2.434982    0.118663
     18          6           0       -1.920590    2.567176    0.259422
     19          6           0       -1.553233    3.953997    0.309180
     20          6           0       -2.795876    4.677037    0.296900
     21          6           0       -3.808171    3.721837   -0.006820
     22          6           0       -0.176175    4.516180    0.622817
     23          6           0       -3.060641    6.149383    0.574904
     24          8           0       -4.162283    6.557185    0.684873
     25          6           0       -1.991229    7.051351    0.802565
     26          7           0       -6.307009    1.811246    0.035425
     27          6           0       -6.306604    3.170879   -0.207379
     28          6           0       -7.755126    3.756827   -0.429413
     29          6           0       -8.710572    2.540809   -0.367051
     30          6           0       -7.648081    1.352313   -0.124038
     31          6           0       -8.074241    4.953021    0.554276
     32          6           0       -9.400063    2.315592   -1.797033
     33          6           0      -10.755436    3.109459   -1.873923
     34          7           0       -5.685016   -0.941099    0.064845
     35          6           0       -7.035298   -1.151407    0.177725
     36          6           0       -7.306390   -2.548885    0.258137
     37          6           0       -6.108355   -3.198947    0.296521
     38          6           0       -5.137880   -2.188778    0.193049
     39          6           0       -8.699734   -3.081279    0.312834
     40          6           0       -5.407491   -4.442095    0.402997
     41          8           0       -5.803542   -5.569222    0.645275
     42          6           0       -3.867710   -4.085380    0.526514
     43          6           0       -3.364674   -4.724924    1.784063
     44          8           0       -3.520725   -4.239483    2.909541
     45          8           0       -2.545703   -5.787321    1.519383
     46          6           0       -1.670379   -6.197678    2.607275
     47          6           0        3.516291   -3.774246   -1.657166
     48          6           0        4.019021   -2.427197   -2.188557
     49          6           0        5.334352   -2.071323   -2.326076
     50          6           0        6.514083   -3.143528   -2.215842
     51          6           0        5.874049   -0.703068   -2.684292
     52          6           0        6.281247   -0.567008   -4.151092
     53          6           0        7.769144   -0.247885   -4.335932
     54          6           0        8.092192    1.299269   -4.295570
     55          6           0        8.162304    1.958732   -5.632447
     56          6           0        9.317423    1.558826   -3.479570
     57          6           0        8.822348    2.045520   -2.068746
     58          6           0        9.916880    1.852368   -0.941156
     59          6           0        9.323809    1.216258    0.288592
     60          6           0        9.324677   -0.250568    0.072238
     61          6           0       10.208829    1.631907    1.537900
     62          6           0        9.351044    1.866246    2.799607
     63          6           0       10.237141    2.104176    4.042574
     64          6           0       10.176153    0.906062    5.010205
     65          6           0        8.739014    0.885535    5.703312
     66          6           0       11.279920    1.022763    6.090431
     67          1           0       -0.031498    1.659434    0.510905
     68          1           0       -5.497814    5.042907   -0.384181
     69          1           0       -9.046587   -0.295520    0.107572
     70          1           0       -1.077030   -3.101948    0.831374
     71          1           0        0.468668   -0.855603   -0.108167
     72          1           0        1.245848   -1.477325    1.814412
     73          1           0       -0.312543   -1.791452    2.533739
     74          1           0        0.211834   -0.082702    2.394351
     75          1           0       -0.259046   -2.283821   -2.059261
     76          1           0       -1.773089   -3.150944   -1.741622
     77          1           0       -0.356779   -4.915293   -2.165671
     78          1           0       -0.664013   -5.028880   -0.591632
     79          1           0       -0.121490    4.893030    1.643642
     80          1           0        0.126364    5.199871   -0.170524
     81          1           0        0.579418    3.734395    0.701443
     82          1           0       -1.234590    7.016633    0.019007
     83          1           0       -1.483410    6.798423    1.732946
     84          1           0       -2.271455    8.082820    1.017494
     85          1           0       -7.774317    4.275363   -1.387295
     86          1           0       -9.418327    2.671339    0.451386
     87          1           0       -7.219461    5.352680    1.101786
     88          1           0       -8.897803    4.607771    1.177272
     89          1           0       -8.381682    5.773812   -0.093303
     90          1           0       -9.566448    1.249761   -1.956940
     91          1           0       -8.725277    2.707481   -2.557533
     92          1           0      -11.301548    2.823879   -2.773045
     93          1           0      -10.464593    4.155530   -1.971267
     94          1           0      -11.355578    2.967002   -0.975441
     95          1           0       -9.089507   -2.596533   -0.581952
     96          1           0       -9.240882   -2.906365    1.242059
     97          1           0       -8.622109   -4.163615    0.202280
     98          1           0       -3.321143   -4.481281   -0.329965
     99          1           0       -0.937930   -6.966076    2.359450
    100          1           0       -2.289643   -6.479031    3.460101
    101          1           0       -1.036714   -5.357059    2.888656
    102          1           0        3.937896   -4.573822   -2.267352
    103          1           0        3.869206   -3.980160   -0.646482
    104          1           0        3.283984   -1.623104   -2.152449
    105          1           0        7.302441   -2.911388   -1.499798
    106          1           0        6.976241   -3.342931   -3.182894
    107          1           0        6.170924   -4.107419   -1.840287
    108          1           0        6.628639   -0.465175   -1.936036
    109          1           0        5.003809   -0.067113   -2.518457
    110          1           0        5.755054    0.292028   -4.568474
    111          1           0        6.027343   -1.424936   -4.773297
    112          1           0        8.005917   -0.678552   -5.308649
    113          1           0        8.360217   -0.831040   -3.629813
    114          1           0        7.244319    1.763115   -3.791772
    115          1           0        7.346803    2.681863   -5.655676
    116          1           0        8.001629    1.275908   -6.467342
    117          1           0        9.065687    2.535513   -5.832044
    118          1           0        9.908092    2.362469   -3.918582
    119          1           0        9.962726    0.683082   -3.424345
    120          1           0        7.850958    1.653902   -1.764426
    121          1           0        8.558053    3.084960   -2.261241
    122          1           0       10.402711    2.805786   -0.732078
    123          1           0       10.821094    1.326736   -1.248566
    124          1           0        8.352376    1.667900    0.490352
    125          1           0       10.058469   -0.536921   -0.681606
    126          1           0        8.304050   -0.524700   -0.196447
    127          1           0        9.566506   -0.877435    0.930291
    128          1           0       10.716192    2.560110    1.275293
    129          1           0       10.936943    0.864821    1.798555
    130          1           0        8.687020    1.004123    2.747660
    131          1           0        8.764327    2.780530    2.701622
    132          1           0        9.888009    2.957491    4.625911
    133          1           0       11.255332    2.345206    3.738493
    134          1           0       10.163035   -0.091421    4.570909
    135          1           0        8.122269    0.008676    5.509410
    136          1           0        8.229200    1.800128    5.401711
    137          1           0        8.813091    0.803793    6.787657
    138          1           0       12.121208    1.543958    5.633720
    139          1           0       11.702780    0.054718    6.359660
    140          1           0       10.922018    1.482938    7.010710
 ---------------------------------------------------------------------

 SCF Done:  E(RB-LYP) =  -3007.36522266     A.U. after   22 cycles

 Excitation energies and oscillator strengths:

 Excited State   1:      Singlet-A      1.7889 eV  693.09 nm  f=0.2535  <S**2>=0.000
     245 -> 248        0.21042
     246 -> 247        0.67936
     246 <- 247       -0.14582
 This state for optimization and/or second-order correction.
 Total Energy, E(TD-HF/TD-DFT) =  -3007.29948361
 Copying the excited state density for this state as the 1-particle RhoCI density.

 Excited State   2:      Singlet-A      1.9077 eV  649.93 nm  f=0.0714  <S**2>=0.000
     243 -> 247       -0.10519
     244 -> 247        0.27580
     245 -> 247        0.59625
     246 -> 248       -0.21253

 Excited State   3:      Singlet-A      2.0458 eV  606.04 nm  f=0.0129  <S**2>=0.000
     243 -> 247        0.17528
     244 -> 247        0.63440
     245 -> 247       -0.21535
     246 -> 248        0.12705

 Excited State   4:      Singlet-A      2.0981 eV  590.95 nm  f=0.0055  <S**2>=0.000
     243 -> 247        0.67254
     244 -> 247       -0.11537
     245 -> 247        0.13680
     246 -> 248       -0.10694

 Excited State   5:      Singlet-A      2.4697 eV  502.02 nm  f=0.0001  <S**2>=0.000
     241 -> 247        0.70483

 The electronic state is 1-A.
 Alpha  occ. eigenvalues --  -46.26816 -18.82125 -18.81426 -18.76959 -18.76231
 Alpha  occ. eigenvalues --  -18.75817 -18.75323 -14.03392 -14.03285 -14.00748
 Alpha  occ. eigenvalues --  -14.00557 -10.03882 -10.03583  -9.99683  -9.99177
 Alpha  occ. eigenvalues --   -9.98243  -9.97744  -9.97312  -9.96980  -9.96110
 Alpha  occ. eigenvalues --   -9.96068  -9.95725  -9.95222  -9.95040  -9.94821
 Alpha  occ. eigenvalues --   -9.94531  -9.94356  -9.94071  -9.94038  -9.94025
 Alpha  occ. eigenvalues --   -9.93740  -9.93697  -9.93619  -9.93585  -9.93510
 Alpha  occ. eigenvalues --   -9.93388  -9.93308  -9.93203  -9.92962  -9.92900
 Alpha  occ. eigenvalues --   -9.92584  -9.92578  -9.92389  -9.92207  -9.92172
 Alpha  occ. eigenvalues --   -9.92023  -9.91952  -9.91937  -9.91918  -9.91863
 Alpha  occ. eigenvalues --   -9.91765  -9.91701  -9.91611  -9.91528  -9.91515
 Alpha  occ. eigenvalues --   -9.91382  -9.91362  -9.91155  -9.91002  -9.90933
 Alpha  occ. eigenvalues --   -9.90923  -9.90877  -9.90799  -9.90681  -9.90670
 Alpha  occ. eigenvalues --   -9.90643  -2.91451  -1.71887  -1.71363  -1.71130
 Alpha  occ. eigenvalues --   -0.97949  -0.97497  -0.94184  -0.91678  -0.89688
 Alpha  occ. eigenvalues --   -0.88961  -0.87194  -0.86181  -0.85002  -0.83433
 Alpha  occ. eigenvalues --   -0.75538  -0.74183  -0.73402  -0.73187  -0.72224
 Alpha  occ. eigenvalues --   -0.71568  -0.71238  -0.71213  -0.70568  -0.70254
 Alpha  occ. eigenvalues --   -0.69961  -0.69277  -0.68295  -0.67139  -0.66914
 Alpha  occ. eigenvalues --   -0.66605  -0.66285  -0.65284  -0.64841  -0.64532
 Alpha  occ. eigenvalues --   -0.64025  -0.62585  -0.62298  -0.61218  -0.60984
 Alpha  occ. eigenvalues --   -0.60573  -0.60077  -0.59789  -0.59456  -0.58929
 Alpha  occ. eigenvalues --   -0.58190  -0.57466  -0.56174  -0.55890  -0.54261
 Alpha  occ. eigenvalues --   -0.53994  -0.53884  -0.52751  -0.52411  -0.51653
 Alpha  occ. eigenvalues --   -0.51493  -0.50977  -0.50345  -0.50304  -0.50020
 Alpha  occ. eigenvalues --   -0.49561  -0.49003  -0.48932  -0.48246  -0.46645
 Alpha  occ. eigenvalues --   -0.46504  -0.46087  -0.45681  -0.44868  -0.44433
 Alpha  occ. eigenvalues --   -0.43978  -0.43491  -0.42780  -0.42397  -0.42212
 Alpha  occ. eigenvalues --   -0.42093  -0.41620  -0.41372  -0.41232  -0.41020
 Alpha  occ. eigenvalues --   -0.40947  -0.40794  -0.40615  -0.40391  -0.40374
 Alpha  occ. eigenvalues --   -0.40308  -0.39910  -0.39690  -0.39431  -0.39336
 Alpha  occ. eigenvalues --   -0.39230  -0.39105  -0.38739  -0.38485  -0.38400
 Alpha  occ. eigenvalues --   -0.38320  -0.37853  -0.37737  -0.37496  -0.37379
 Alpha  occ. eigenvalues --   -0.37256  -0.37059  -0.36966  -0.36701  -0.36377
 Alpha  occ. eigenvalues --   -0.36277  -0.36146  -0.36080  -0.35794  -0.35560
 Alpha  occ. eigenvalues --   -0.35351  -0.35135  -0.35058  -0.34984  -0.34826
 Alpha  occ. eigenvalues --   -0.34647  -0.34527  -0.34388  -0.34090  -0.33871
 Alpha  occ. eigenvalues --   -0.33717  -0.33406  -0.33173  -0.33038  -0.32947
 Alpha  occ. eigenvalues --   -0.32915  -0.32575  -0.32422  -0.32382  -0.32174
 Alpha  occ. eigenvalues --   -0.32087  -0.31958  -0.31860  -0.31632  -0.31555
 Alpha  occ. eigenvalues --   -0.31425  -0.31212  -0.31008  -0.30832  -0.30808
 Alpha  occ. eigenvalues --   -0.30675  -0.30341  -0.30271  -0.30018  -0.29770
 Alpha  occ. eigenvalues --   -0.29738  -0.29452  -0.29365  -0.28987  -0.28889
 Alpha  occ. eigenvalues --   -0.28726  -0.28574  -0.28200  -0.28106  -0.27837
 Alpha  occ. eigenvalues --   -0.27816  -0.27540  -0.27171  -0.26768  -0.26708
 Alpha  occ. eigenvalues --   -0.26529  -0.26263  -0.25955  -0.25704  -0.25670
 Alpha  occ. eigenvalues --   -0.25292  -0.24970  -0.24715  -0.23830  -0.23476
 Alpha  occ. eigenvalues --   -0.23082  -0.22134  -0.22073  -0.21232  -0.21039
 Alpha  occ. eigenvalues --   -0.20534  -0.20079  -0.18993  -0.18797  -0.16969
 Alpha  occ. eigenvalues --   -0.15708
 Alpha virt. eigenvalues --   -0.11458  -0.07082  -0.06222  -0.04435  -0.03168
 Alpha virt. eigenvalues --   -0.02705  -0.02003  -0.01751  -0.01101  -0.00172
 Alpha virt. eigenvalues --    0.00897   0.01385   0.02031   0.02460   0.02755

 Mulliken charges:
               1
     1  Mg   0.696492
     2  C    0.033404
     3  C   -0.082120
     4  C   -0.027979
     5  C   -0.078505
     6  N   -0.155036
     7  C   -0.063899
     8  C    0.006400
     9  C   -0.011941
    10  C   -0.011963
    11  C    0.143259
    12  C    0.190123
    13  C    0.107944
    14  C    0.035321
    15  O   -0.159382
    16  O   -0.301697
    17  N   -0.274607
    18  C    0.150610
    19  C   -0.155269
    20  C    0.012913
    21  C    0.087158
    22  C    0.170875
    23  C   -0.088645
    24  O   -0.123842
    25  C    0.174070
    26  N   -0.264842
    27  C    0.057162
    28  C   -0.039500
    29  C    0.048348
    30  C    0.025078
    31  C    0.104835
    32  C    0.061165
    33  C    0.069544
    34  N   -0.270867
    35  C    0.121027
    36  C   -0.213862
    37  C    0.166053
    38  C    0.044625
    39  C    0.171198
    40  C   -0.071112
    41  O   -0.125721
    42  C    0.040590
    43  C    0.129677
    44  O   -0.195466
    45  O   -0.263862
    46  C    0.226865
    47  C    0.272757
    48  C   -0.059278
    49  C   -0.168878
    50  C    0.085091
    51  C    0.168859
    52  C    0.073924
    53  C    0.096494
    54  C   -0.078565
    55  C    0.133088
    56  C    0.118979
    57  C    0.029643
    58  C    0.117555
    59  C   -0.073038
    60  C    0.139364
    61  C    0.071014
    62  C    0.063847
    63  C    0.118809
    64  C   -0.104786
    65  C    0.081097
    66  C    0.121148
    67  H   -0.076032
    68  H   -0.036505
    69  H   -0.056236
    70  H   -0.014175
    71  H   -0.039947
    72  H   -0.001257
    73  H   -0.004593
    74  H   -0.005874
    75  H   -0.000536
    76  H   -0.023988
    77  H   -0.011824
    78  H   -0.013823
    79  H    0.007493
    80  H    0.008537
    81  H   -0.031687
    82  H   -0.004271
    83  H   -0.004248
    84  H   -0.018392
    85  H   -0.014318
    86  H   -0.012418
    87  H    0.023239
    88  H   -0.013630
    89  H   -0.015422
    90  H   -0.014903
    91  H   -0.014452
    92  H   -0.002029
    93  H   -0.012098
    94  H   -0.002101
    95  H    0.006867
    96  H    0.014620
    97  H   -0.001572
    98  H   -0.011218
    99  H    0.017988
   100  H    0.020571
   101  H    0.004650
   102  H    0.004155
   103  H    0.030159
   104  H   -0.035437
   105  H   -0.001496
   106  H    0.007554
   107  H   -0.026149
   108  H   -0.004066
   109  H   -0.047924
   110  H   -0.031037
   111  H   -0.019656
   112  H   -0.045486
   113  H   -0.030458
   114  H   -0.034673
   115  H   -0.026993
   116  H   -0.024748
   117  H   -0.019155
   118  H   -0.041060
   119  H   -0.027627
   120  H   -0.019774
   121  H   -0.032763
   122  H   -0.052898
   123  H   -0.040736
   124  H   -0.036755
   125  H   -0.013096
   126  H   -0.007938
   127  H   -0.026538
   128  H   -0.040287
   129  H   -0.033845
   130  H   -0.023066
   131  H   -0.034947
   132  H   -0.034838
   133  H   -0.029642
   134  H   -0.031029
   135  H   -0.019947
   136  H   -0.011750
   137  H   -0.026263
   138  H   -0.025120
   139  H   -0.024816
   140  H   -0.008007
 Sum of Mulliken charges =  -0.00000

 Dipole moment (field-independent basis, Debye):
    X=              4.0273    Y=              3.5230    Z=             -3.3803  Tot=              6.3291
 Quadrupole moment (field-independent basis, Debye-Ang):
   XX=           -381.9539   YY=           -427.9730   ZZ=           -409.5886
   XY=            -19.9424   XZ=             11.5744   YZ=              4.9878

 Normal termination of Gaussian 16 at Thu Apr 28 11:14:01 2022.
