 Gaussian 16, Revision A.03,
 Gaussian 16:  ES64L-G16RevA.03 25-Dec-2016

 -----------------------------------
 #p cam-b3lyp/Def2SVP td=(nstates=5)
 -----------------------------------

 -------------------------------------------------------
 step_151_chromophore_27 TDDFT with cam-b3lyp functional
 -------------------------------------------------------
 Symbolic Z-matrix:
 Charge =  0 Multiplicity = 1

                         Standard orientation:
 ---------------------------------------------------------------------
 Center     Atomic      Atomic             Coordinates (Angstroms)
 Number     Number       Type             X           Y           Z
 ---------------------------------------------------------------------
      1         12           0       -4.506472    0.734670    0.005827
      2          6           0       -3.795213   -2.580713    0.339933
      3          6           0       -1.094872    1.450949    0.380611
      4          6           0       -5.205036    3.991173   -0.335281
      5          6           0       -7.975827   -0.081247    0.102639
      6          7           0       -2.628843   -0.390781    0.265611
      7          6           0       -2.628934   -1.769346    0.128943
      8          6           0       -1.155903   -2.327106    0.069293
      9          6           0       -0.379396   -1.049037    0.549264
     10          6           0       -1.433229    0.082520    0.366724
     11          6           0        0.241944   -1.070669    1.934130
     12          6           0       -0.779702   -2.927738   -1.351177
     13          6           0       -0.219593   -4.305022   -1.273275
     14          6           0        1.256599   -4.352376   -0.856285
     15          8           0        1.755566   -4.620840    0.190248
     16          8           0        2.029484   -3.995706   -1.933368
     17          7           0       -3.252270    2.434982    0.118663
     18          6           0       -1.920590    2.567176    0.259422
     19          6           0       -1.553233    3.953997    0.309180
     20          6           0       -2.795876    4.677037    0.296900
     21          6           0       -3.808171    3.721837   -0.006820
     22          6           0       -0.176175    4.516180    0.622817
     23          6           0       -3.060641    6.149383    0.574904
     24          8           0       -4.162283    6.557185    0.684873
     25          6           0       -1.991229    7.051351    0.802565
     26          7           0       -6.307009    1.811246    0.035425
     27          6           0       -6.306604    3.170879   -0.207379
     28          6           0       -7.755126    3.756827   -0.429413
     29          6           0       -8.710572    2.540809   -0.367051
     30          6           0       -7.648081    1.352313   -0.124038
     31          6           0       -8.074241    4.953021    0.554276
     32          6           0       -9.400063    2.315592   -1.797033
     33          6           0      -10.755436    3.109459   -1.873923
     34          7           0       -5.685016   -0.941099    0.064845
     35          6           0       -7.035298   -1.151407    0.177725
     36          6           0       -7.306390   -2.548885    0.258137
     37          6           0       -6.108355   -3.198947    0.296521
     38          6           0       -5.137880   -2.188778    0.193049
     39          6           0       -8.699734   -3.081279    0.312834
     40          6           0       -5.407491   -4.442095    0.402997
     41          8           0       -5.803542   -5.569222    0.645275
     42          6           0       -3.867710   -4.085380    0.526514
     43          6           0       -3.364674   -4.724924    1.784063
     44          8           0       -3.520725   -4.239483    2.909541
     45          8           0       -2.545703   -5.787321    1.519383
     46          6           0       -1.670379   -6.197678    2.607275
     47          6           0        3.516291   -3.774246   -1.657166
     48          6           0        4.019021   -2.427197   -2.188557
     49          6           0        5.334352   -2.071323   -2.326076
     50          6           0        6.514083   -3.143528   -2.215842
     51          6           0        5.874049   -0.703068   -2.684292
     52          6           0        6.281247   -0.567008   -4.151092
     53          6           0        7.769144   -0.247885   -4.335932
     54          6           0        8.092192    1.299269   -4.295570
     55          6           0        8.162304    1.958732   -5.632447
     56          6           0        9.317423    1.558826   -3.479570
     57          6           0        8.822348    2.045520   -2.068746
     58          6           0        9.916880    1.852368   -0.941156
     59          6           0        9.323809    1.216258    0.288592
     60          6           0        9.324677   -0.250568    0.072238
     61          6           0       10.208829    1.631907    1.537900
     62          6           0        9.351044    1.866246    2.799607
     63          6           0       10.237141    2.104176    4.042574
     64          6           0       10.176153    0.906062    5.010205
     65          6           0        8.739014    0.885535    5.703312
     66          6           0       11.279920    1.022763    6.090431
     67          1           0       -0.031498    1.659434    0.510905
     68          1           0       -5.497814    5.042907   -0.384181
     69          1           0       -9.046587   -0.295520    0.107572
     70          1           0       -1.077030   -3.101948    0.831374
     71          1           0        0.468668   -0.855603   -0.108167
     72          1           0        1.245848   -1.477325    1.814412
     73          1           0       -0.312543   -1.791452    2.533739
     74          1           0        0.211834   -0.082702    2.394351
     75          1           0       -0.259046   -2.283821   -2.059261
     76          1           0       -1.773089   -3.150944   -1.741622
     77          1           0       -0.356779   -4.915293   -2.165671
     78          1           0       -0.664013   -5.028880   -0.591632
     79          1           0       -0.121490    4.893030    1.643642
     80          1           0        0.126364    5.199871   -0.170524
     81          1           0        0.579418    3.734395    0.701443
     82          1           0       -1.234590    7.016633    0.019007
     83          1           0       -1.483410    6.798423    1.732946
     84          1           0       -2.271455    8.082820    1.017494
     85          1           0       -7.774317    4.275363   -1.387295
     86          1           0       -9.418327    2.671339    0.451386
     87          1           0       -7.219461    5.352680    1.101786
     88          1           0       -8.897803    4.607771    1.177272
     89          1           0       -8.381682    5.773812   -0.093303
     90          1           0       -9.566448    1.249761   -1.956940
     91          1           0       -8.725277    2.707481   -2.557533
     92          1           0      -11.301548    2.823879   -2.773045
     93          1           0      -10.464593    4.155530   -1.971267
     94          1           0      -11.355578    2.967002   -0.975441
     95          1           0       -9.089507   -2.596533   -0.581952
     96          1           0       -9.240882   -2.906365    1.242059
     97          1           0       -8.622109   -4.163615    0.202280
     98          1           0       -3.321143   -4.481281   -0.329965
     99          1           0       -0.937930   -6.966076    2.359450
    100          1           0       -2.289643   -6.479031    3.460101
    101          1           0       -1.036714   -5.357059    2.888656
    102          1           0        3.937896   -4.573822   -2.267352
    103          1           0        3.869206   -3.980160   -0.646482
    104          1           0        3.283984   -1.623104   -2.152449
    105          1           0        7.302441   -2.911388   -1.499798
    106          1           0        6.976241   -3.342931   -3.182894
    107          1           0        6.170924   -4.107419   -1.840287
    108          1           0        6.628639   -0.465175   -1.936036
    109          1           0        5.003809   -0.067113   -2.518457
    110          1           0        5.755054    0.292028   -4.568474
    111          1           0        6.027343   -1.424936   -4.773297
    112          1           0        8.005917   -0.678552   -5.308649
    113          1           0        8.360217   -0.831040   -3.629813
    114          1           0        7.244319    1.763115   -3.791772
    115          1           0        7.346803    2.681863   -5.655676
    116          1           0        8.001629    1.275908   -6.467342
    117          1           0        9.065687    2.535513   -5.832044
    118          1           0        9.908092    2.362469   -3.918582
    119          1           0        9.962726    0.683082   -3.424345
    120          1           0        7.850958    1.653902   -1.764426
    121          1           0        8.558053    3.084960   -2.261241
    122          1           0       10.402711    2.805786   -0.732078
    123          1           0       10.821094    1.326736   -1.248566
    124          1           0        8.352376    1.667900    0.490352
    125          1           0       10.058469   -0.536921   -0.681606
    126          1           0        8.304050   -0.524700   -0.196447
    127          1           0        9.566506   -0.877435    0.930291
    128          1           0       10.716192    2.560110    1.275293
    129          1           0       10.936943    0.864821    1.798555
    130          1           0        8.687020    1.004123    2.747660
    131          1           0        8.764327    2.780530    2.701622
    132          1           0        9.888009    2.957491    4.625911
    133          1           0       11.255332    2.345206    3.738493
    134          1           0       10.163035   -0.091421    4.570909
    135          1           0        8.122269    0.008676    5.509410
    136          1           0        8.229200    1.800128    5.401711
    137          1           0        8.813091    0.803793    6.787657
    138          1           0       12.121208    1.543958    5.633720
    139          1           0       11.702780    0.054718    6.359660
    140          1           0       10.922018    1.482938    7.010710
 ---------------------------------------------------------------------

 SCF Done:  E(RCAM-B3LYP) =  -3007.16016721     A.U. after   17 cycles

 Excitation energies and oscillator strengths:

 Excited State   1:      Singlet-A      1.6844 eV  736.07 nm  f=0.3524  <S**2>=0.000
     245 -> 248       -0.19014
     246 -> 247        0.68047
     245 <- 248       -0.10914
 This state for optimization and/or second-order correction.
 Total Energy, E(TD-HF/TD-DFT) =  -3007.09826673
 Copying the excited state density for this state as the 1-particle RhoCI density.

 Excited State   2:      Singlet-A      2.1692 eV  571.58 nm  f=0.0997  <S**2>=0.000
     245 -> 247        0.63341
     246 -> 248        0.29960

 Excited State   3:      Singlet-A      3.2896 eV  376.90 nm  f=0.0114  <S**2>=0.000
     243 -> 247        0.13146
     244 -> 247        0.66413
     246 -> 248       -0.15442

 Excited State   4:      Singlet-A      3.4268 eV  361.81 nm  f=0.6605  <S**2>=0.000
     243 -> 247       -0.13841
     244 -> 247        0.17353
     245 -> 247       -0.28239
     246 -> 248        0.59660
     245 <- 247        0.10992

 Excited State   5:      Singlet-A      3.5951 eV  344.87 nm  f=0.0008  <S**2>=0.000
     239 -> 247        0.25738
     239 -> 249        0.20257
     240 -> 247       -0.25086
     240 -> 249       -0.20017
     241 -> 247        0.37464
     241 -> 249        0.21241
     243 -> 247        0.20460

 The electronic state is 1-A.
 Alpha  occ. eigenvalues --  -46.88286 -19.25050 -19.24260 -19.19978 -19.19335
 Alpha  occ. eigenvalues --  -19.19114 -19.18552 -14.42425 -14.41999 -14.39152
 Alpha  occ. eigenvalues --  -14.39010 -10.39346 -10.38810 -10.35083 -10.34234
 Alpha  occ. eigenvalues --  -10.32417 -10.32369 -10.31483 -10.31280 -10.30615
 Alpha  occ. eigenvalues --  -10.30515 -10.30339 -10.29372 -10.29370 -10.28827
 Alpha  occ. eigenvalues --  -10.28689 -10.28556 -10.28513 -10.28462 -10.28360
 Alpha  occ. eigenvalues --  -10.28205 -10.27916 -10.27606 -10.27554 -10.27482
 Alpha  occ. eigenvalues --  -10.27372 -10.27349 -10.27202 -10.26967 -10.26956
 Alpha  occ. eigenvalues --  -10.26933 -10.26484 -10.26371 -10.26136 -10.25922
 Alpha  occ. eigenvalues --  -10.25825 -10.25771 -10.25606 -10.25601 -10.25574
 Alpha  occ. eigenvalues --  -10.25485 -10.25450 -10.25425 -10.25301 -10.25221
 Alpha  occ. eigenvalues --  -10.25085 -10.25055 -10.24931 -10.24832 -10.24630
 Alpha  occ. eigenvalues --  -10.24600 -10.24592 -10.24516 -10.24308 -10.24260
 Alpha  occ. eigenvalues --  -10.24258  -3.16828  -1.91741  -1.91317  -1.91104
 Alpha  occ. eigenvalues --   -1.16487  -1.16006  -1.12742  -1.10182  -1.07505
 Alpha  occ. eigenvalues --   -1.06906  -1.05021  -1.03761  -1.02648  -1.00860
 Alpha  occ. eigenvalues --   -0.92728  -0.91099  -0.90254  -0.90005  -0.88979
 Alpha  occ. eigenvalues --   -0.88186  -0.87877  -0.87841  -0.87232  -0.86972
 Alpha  occ. eigenvalues --   -0.86437  -0.85678  -0.84570  -0.83289  -0.83209
 Alpha  occ. eigenvalues --   -0.82751  -0.82418  -0.81201  -0.80710  -0.80254
 Alpha  occ. eigenvalues --   -0.79767  -0.78339  -0.77952  -0.76680  -0.76427
 Alpha  occ. eigenvalues --   -0.75968  -0.75439  -0.75141  -0.74725  -0.74181
 Alpha  occ. eigenvalues --   -0.73239  -0.72492  -0.71052  -0.70714  -0.68882
 Alpha  occ. eigenvalues --   -0.68694  -0.68358  -0.67258  -0.66800  -0.65823
 Alpha  occ. eigenvalues --   -0.65761  -0.65113  -0.64421  -0.64335  -0.63953
 Alpha  occ. eigenvalues --   -0.63521  -0.62892  -0.62682  -0.61902  -0.60222
 Alpha  occ. eigenvalues --   -0.60202  -0.59677  -0.59219  -0.58268  -0.57988
 Alpha  occ. eigenvalues --   -0.57524  -0.56861  -0.55995  -0.55625  -0.55528
 Alpha  occ. eigenvalues --   -0.55219  -0.54633  -0.54346  -0.54171  -0.54064
 Alpha  occ. eigenvalues --   -0.53796  -0.53707  -0.53385  -0.53227  -0.53039
 Alpha  occ. eigenvalues --   -0.52873  -0.52765  -0.52528  -0.52216  -0.51971
 Alpha  occ. eigenvalues --   -0.51738  -0.51606  -0.51285  -0.51080  -0.50927
 Alpha  occ. eigenvalues --   -0.50806  -0.50432  -0.50077  -0.49946  -0.49767
 Alpha  occ. eigenvalues --   -0.49684  -0.49338  -0.49233  -0.49124  -0.49022
 Alpha  occ. eigenvalues --   -0.48450  -0.48374  -0.48147  -0.47980  -0.47871
 Alpha  occ. eigenvalues --   -0.47507  -0.47304  -0.47096  -0.46861  -0.46661
 Alpha  occ. eigenvalues --   -0.46593  -0.46573  -0.46235  -0.45913  -0.45691
 Alpha  occ. eigenvalues --   -0.45561  -0.45198  -0.45003  -0.44820  -0.44706
 Alpha  occ. eigenvalues --   -0.44462  -0.44287  -0.44145  -0.43947  -0.43786
 Alpha  occ. eigenvalues --   -0.43576  -0.43528  -0.43454  -0.43265  -0.43130
 Alpha  occ. eigenvalues --   -0.42908  -0.42800  -0.42566  -0.42351  -0.42180
 Alpha  occ. eigenvalues --   -0.41974  -0.41712  -0.41530  -0.41408  -0.41204
 Alpha  occ. eigenvalues --   -0.41105  -0.40826  -0.40727  -0.40453  -0.40000
 Alpha  occ. eigenvalues --   -0.39777  -0.39512  -0.39340  -0.39041  -0.38777
 Alpha  occ. eigenvalues --   -0.38699  -0.38462  -0.38005  -0.37991  -0.37508
 Alpha  occ. eigenvalues --   -0.37358  -0.37006  -0.36797  -0.36491  -0.36388
 Alpha  occ. eigenvalues --   -0.36355  -0.36189  -0.35853  -0.34686  -0.34044
 Alpha  occ. eigenvalues --   -0.33844  -0.33392  -0.32880  -0.31560  -0.31244
 Alpha  occ. eigenvalues --   -0.30688  -0.30286  -0.30283  -0.29478  -0.23763
 Alpha  occ. eigenvalues --   -0.21005
 Alpha virt. eigenvalues --   -0.08575  -0.02012   0.00326   0.02631   0.03486
 Alpha virt. eigenvalues --    0.04624   0.04688   0.05375   0.05912   0.06698
 Alpha virt. eigenvalues --    0.07701   0.07951   0.08241   0.08757   0.09088

 Mulliken charges:
               1
     1  Mg   0.830777
     2  C    0.024639
     3  C   -0.084624
     4  C   -0.047334
     5  C   -0.090219
     6  N   -0.221679
     7  C   -0.029905
     8  C   -0.043993
     9  C   -0.056721
    10  C    0.000771
    11  C    0.087713
    12  C    0.130289
    13  C    0.037633
    14  C    0.117147
    15  O   -0.201386
    16  O   -0.365314
    17  N   -0.362900
    18  C    0.154078
    19  C   -0.153336
    20  C   -0.056593
    21  C    0.112046
    22  C    0.110820
    23  C   -0.005175
    24  O   -0.164470
    25  C    0.079313
    26  N   -0.339023
    27  C    0.080102
    28  C   -0.090933
    29  C   -0.006045
    30  C    0.044182
    31  C    0.050039
    32  C    0.009249
    33  C    0.011292
    34  N   -0.358906
    35  C    0.125979
    36  C   -0.208282
    37  C    0.085781
    38  C    0.069573
    39  C    0.118472
    40  C    0.029971
    41  O   -0.163188
    42  C   -0.039738
    43  C    0.217071
    44  O   -0.231295
    45  O   -0.328271
    46  C    0.184531
    47  C    0.241509
    48  C   -0.080161
    49  C   -0.186207
    50  C    0.030713
    51  C    0.110572
    52  C    0.016548
    53  C    0.047470
    54  C   -0.137469
    55  C    0.072151
    56  C    0.067068
    57  C   -0.018491
    58  C    0.061087
    59  C   -0.135705
    60  C    0.081175
    61  C    0.027924
    62  C    0.009722
    63  C    0.058229
    64  C   -0.161730
    65  C    0.023095
    66  C    0.061201
    67  H   -0.039722
    68  H   -0.000748
    69  H   -0.020872
    70  H    0.017212
    71  H   -0.006721
    72  H    0.022950
    73  H    0.019012
    74  H    0.019291
    75  H    0.031170
    76  H    0.008085
    77  H    0.024807
    78  H    0.018147
    79  H    0.034338
    80  H    0.034650
    81  H   -0.002034
    82  H    0.023575
    83  H    0.024875
    84  H    0.019388
    85  H    0.019096
    86  H    0.020792
    87  H    0.047865
    88  H    0.009654
    89  H    0.008212
    90  H    0.013086
    91  H    0.013119
    92  H    0.022424
    93  H    0.008866
    94  H    0.019412
    95  H    0.029471
    96  H    0.040432
    97  H    0.025935
    98  H    0.029846
    99  H    0.041749
   100  H    0.045729
   101  H    0.025874
   102  H    0.031302
   103  H    0.060871
   104  H   -0.004763
   105  H    0.021112
   106  H    0.030182
   107  H   -0.001473
   108  H    0.017176
   109  H   -0.015703
   110  H   -0.002377
   111  H    0.010420
   112  H   -0.014646
   113  H   -0.005653
   114  H   -0.003566
   115  H   -0.002409
   116  H    0.000700
   117  H    0.006240
   118  H   -0.010467
   119  H   -0.000912
   120  H    0.003097
   121  H   -0.003559
   122  H   -0.020505
   123  H   -0.011297
   124  H   -0.004065
   125  H    0.010361
   126  H    0.010813
   127  H   -0.000412
   128  H   -0.012027
   129  H   -0.007010
   130  H    0.002552
   131  H   -0.006147
   132  H   -0.004643
   133  H   -0.001101
   134  H   -0.000403
   135  H    0.004308
   136  H    0.010558
   137  H   -0.001332
   138  H   -0.001116
   139  H    0.001070
   140  H    0.015017
 Sum of Mulliken charges =  -0.00000

 Dipole moment (field-independent basis, Debye):
    X=              4.5730    Y=              3.9317    Z=             -3.4513  Tot=              6.9485
 Quadrupole moment (field-independent basis, Debye-Ang):
   XX=           -381.7871   YY=           -424.3540   ZZ=           -409.9580
   XY=            -20.6229   XZ=             12.7401   YZ=              5.5069

 Normal termination of Gaussian 16 at Thu Apr 28 10:11:34 2022.
