 Gaussian 16, Revision A.03,
 Gaussian 16:  ES64L-G16RevA.03 25-Dec-2016

 ---------------------------------
 #p PBE1PBE/Def2SVP td=(nstates=5)
 ---------------------------------

 -----------------------------------------------------
 step_151_chromophore_27 TDDFT with PBE1PBE functional
 -----------------------------------------------------
 Symbolic Z-matrix:
 Charge =  0 Multiplicity = 1

                         Standard orientation:
 ---------------------------------------------------------------------
 Center     Atomic      Atomic             Coordinates (Angstroms)
 Number     Number       Type             X           Y           Z
 ---------------------------------------------------------------------
      1         12           0       -4.506472    0.734670    0.005827
      2          6           0       -3.795213   -2.580713    0.339933
      3          6           0       -1.094872    1.450949    0.380611
      4          6           0       -5.205036    3.991173   -0.335281
      5          6           0       -7.975827   -0.081247    0.102639
      6          7           0       -2.628843   -0.390781    0.265611
      7          6           0       -2.628934   -1.769346    0.128943
      8          6           0       -1.155903   -2.327106    0.069293
      9          6           0       -0.379396   -1.049037    0.549264
     10          6           0       -1.433229    0.082520    0.366724
     11          6           0        0.241944   -1.070669    1.934130
     12          6           0       -0.779702   -2.927738   -1.351177
     13          6           0       -0.219593   -4.305022   -1.273275
     14          6           0        1.256599   -4.352376   -0.856285
     15          8           0        1.755566   -4.620840    0.190248
     16          8           0        2.029484   -3.995706   -1.933368
     17          7           0       -3.252270    2.434982    0.118663
     18          6           0       -1.920590    2.567176    0.259422
     19          6           0       -1.553233    3.953997    0.309180
     20          6           0       -2.795876    4.677037    0.296900
     21          6           0       -3.808171    3.721837   -0.006820
     22          6           0       -0.176175    4.516180    0.622817
     23          6           0       -3.060641    6.149383    0.574904
     24          8           0       -4.162283    6.557185    0.684873
     25          6           0       -1.991229    7.051351    0.802565
     26          7           0       -6.307009    1.811246    0.035425
     27          6           0       -6.306604    3.170879   -0.207379
     28          6           0       -7.755126    3.756827   -0.429413
     29          6           0       -8.710572    2.540809   -0.367051
     30          6           0       -7.648081    1.352313   -0.124038
     31          6           0       -8.074241    4.953021    0.554276
     32          6           0       -9.400063    2.315592   -1.797033
     33          6           0      -10.755436    3.109459   -1.873923
     34          7           0       -5.685016   -0.941099    0.064845
     35          6           0       -7.035298   -1.151407    0.177725
     36          6           0       -7.306390   -2.548885    0.258137
     37          6           0       -6.108355   -3.198947    0.296521
     38          6           0       -5.137880   -2.188778    0.193049
     39          6           0       -8.699734   -3.081279    0.312834
     40          6           0       -5.407491   -4.442095    0.402997
     41          8           0       -5.803542   -5.569222    0.645275
     42          6           0       -3.867710   -4.085380    0.526514
     43          6           0       -3.364674   -4.724924    1.784063
     44          8           0       -3.520725   -4.239483    2.909541
     45          8           0       -2.545703   -5.787321    1.519383
     46          6           0       -1.670379   -6.197678    2.607275
     47          6           0        3.516291   -3.774246   -1.657166
     48          6           0        4.019021   -2.427197   -2.188557
     49          6           0        5.334352   -2.071323   -2.326076
     50          6           0        6.514083   -3.143528   -2.215842
     51          6           0        5.874049   -0.703068   -2.684292
     52          6           0        6.281247   -0.567008   -4.151092
     53          6           0        7.769144   -0.247885   -4.335932
     54          6           0        8.092192    1.299269   -4.295570
     55          6           0        8.162304    1.958732   -5.632447
     56          6           0        9.317423    1.558826   -3.479570
     57          6           0        8.822348    2.045520   -2.068746
     58          6           0        9.916880    1.852368   -0.941156
     59          6           0        9.323809    1.216258    0.288592
     60          6           0        9.324677   -0.250568    0.072238
     61          6           0       10.208829    1.631907    1.537900
     62          6           0        9.351044    1.866246    2.799607
     63          6           0       10.237141    2.104176    4.042574
     64          6           0       10.176153    0.906062    5.010205
     65          6           0        8.739014    0.885535    5.703312
     66          6           0       11.279920    1.022763    6.090431
     67          1           0       -0.031498    1.659434    0.510905
     68          1           0       -5.497814    5.042907   -0.384181
     69          1           0       -9.046587   -0.295520    0.107572
     70          1           0       -1.077030   -3.101948    0.831374
     71          1           0        0.468668   -0.855603   -0.108167
     72          1           0        1.245848   -1.477325    1.814412
     73          1           0       -0.312543   -1.791452    2.533739
     74          1           0        0.211834   -0.082702    2.394351
     75          1           0       -0.259046   -2.283821   -2.059261
     76          1           0       -1.773089   -3.150944   -1.741622
     77          1           0       -0.356779   -4.915293   -2.165671
     78          1           0       -0.664013   -5.028880   -0.591632
     79          1           0       -0.121490    4.893030    1.643642
     80          1           0        0.126364    5.199871   -0.170524
     81          1           0        0.579418    3.734395    0.701443
     82          1           0       -1.234590    7.016633    0.019007
     83          1           0       -1.483410    6.798423    1.732946
     84          1           0       -2.271455    8.082820    1.017494
     85          1           0       -7.774317    4.275363   -1.387295
     86          1           0       -9.418327    2.671339    0.451386
     87          1           0       -7.219461    5.352680    1.101786
     88          1           0       -8.897803    4.607771    1.177272
     89          1           0       -8.381682    5.773812   -0.093303
     90          1           0       -9.566448    1.249761   -1.956940
     91          1           0       -8.725277    2.707481   -2.557533
     92          1           0      -11.301548    2.823879   -2.773045
     93          1           0      -10.464593    4.155530   -1.971267
     94          1           0      -11.355578    2.967002   -0.975441
     95          1           0       -9.089507   -2.596533   -0.581952
     96          1           0       -9.240882   -2.906365    1.242059
     97          1           0       -8.622109   -4.163615    0.202280
     98          1           0       -3.321143   -4.481281   -0.329965
     99          1           0       -0.937930   -6.966076    2.359450
    100          1           0       -2.289643   -6.479031    3.460101
    101          1           0       -1.036714   -5.357059    2.888656
    102          1           0        3.937896   -4.573822   -2.267352
    103          1           0        3.869206   -3.980160   -0.646482
    104          1           0        3.283984   -1.623104   -2.152449
    105          1           0        7.302441   -2.911388   -1.499798
    106          1           0        6.976241   -3.342931   -3.182894
    107          1           0        6.170924   -4.107419   -1.840287
    108          1           0        6.628639   -0.465175   -1.936036
    109          1           0        5.003809   -0.067113   -2.518457
    110          1           0        5.755054    0.292028   -4.568474
    111          1           0        6.027343   -1.424936   -4.773297
    112          1           0        8.005917   -0.678552   -5.308649
    113          1           0        8.360217   -0.831040   -3.629813
    114          1           0        7.244319    1.763115   -3.791772
    115          1           0        7.346803    2.681863   -5.655676
    116          1           0        8.001629    1.275908   -6.467342
    117          1           0        9.065687    2.535513   -5.832044
    118          1           0        9.908092    2.362469   -3.918582
    119          1           0        9.962726    0.683082   -3.424345
    120          1           0        7.850958    1.653902   -1.764426
    121          1           0        8.558053    3.084960   -2.261241
    122          1           0       10.402711    2.805786   -0.732078
    123          1           0       10.821094    1.326736   -1.248566
    124          1           0        8.352376    1.667900    0.490352
    125          1           0       10.058469   -0.536921   -0.681606
    126          1           0        8.304050   -0.524700   -0.196447
    127          1           0        9.566506   -0.877435    0.930291
    128          1           0       10.716192    2.560110    1.275293
    129          1           0       10.936943    0.864821    1.798555
    130          1           0        8.687020    1.004123    2.747660
    131          1           0        8.764327    2.780530    2.701622
    132          1           0        9.888009    2.957491    4.625911
    133          1           0       11.255332    2.345206    3.738493
    134          1           0       10.163035   -0.091421    4.570909
    135          1           0        8.122269    0.008676    5.509410
    136          1           0        8.229200    1.800128    5.401711
    137          1           0        8.813091    0.803793    6.787657
    138          1           0       12.121208    1.543958    5.633720
    139          1           0       11.702780    0.054718    6.359660
    140          1           0       10.922018    1.482938    7.010710
 ---------------------------------------------------------------------

 SCF Done:  E(RPBE1PBE) =  -3005.34852639     A.U. after   15 cycles

 Excitation energies and oscillator strengths:

 Excited State   1:      Singlet-A      1.8418 eV  673.18 nm  f=0.3373  <S**2>=0.000
     245 -> 248        0.18625
     246 -> 247        0.68841
     246 <- 247       -0.10537
 This state for optimization and/or second-order correction.
 Total Energy, E(TD-HF/TD-DFT) =  -3005.28084271
 Copying the excited state density for this state as the 1-particle RhoCI density.

 Excited State   2:      Singlet-A      2.1694 eV  571.52 nm  f=0.0980  <S**2>=0.000
     245 -> 247        0.64729
     246 -> 248       -0.27430

 Excited State   3:      Singlet-A      2.9958 eV  413.86 nm  f=0.0004  <S**2>=0.000
     244 -> 247        0.69756

 Excited State   4:      Singlet-A      3.1288 eV  396.27 nm  f=0.0022  <S**2>=0.000
     239 -> 247       -0.14364
     240 -> 247       -0.18765
     240 -> 249       -0.10181
     241 -> 247        0.61169
     241 -> 249        0.16012
     242 -> 247        0.11943

 Excited State   5:      Singlet-A      3.1574 eV  392.68 nm  f=0.0337  <S**2>=0.000
     240 -> 247        0.24293
     242 -> 247        0.61238
     246 -> 248        0.17568

 The electronic state is 1-A.
 Alpha  occ. eigenvalues --  -46.91705 -19.25694 -19.24986 -19.20235 -19.19573
 Alpha  occ. eigenvalues --  -19.19328 -19.18701 -14.41792 -14.41682 -14.38839
 Alpha  occ. eigenvalues --  -14.38660 -10.36367 -10.35847 -10.32222 -10.31262
 Alpha  occ. eigenvalues --  -10.30270 -10.29850 -10.29341 -10.28507 -10.28324
 Alpha  occ. eigenvalues --  -10.28153 -10.27942 -10.27147 -10.26950 -10.26731
 Alpha  occ. eigenvalues --  -10.26507 -10.26335 -10.26235 -10.26042 -10.26010
 Alpha  occ. eigenvalues --  -10.25801 -10.25550 -10.25420 -10.25352 -10.25186
 Alpha  occ. eigenvalues --  -10.24982 -10.24963 -10.24693 -10.24647 -10.24518
 Alpha  occ. eigenvalues --  -10.24398 -10.24116 -10.23762 -10.23672 -10.23596
 Alpha  occ. eigenvalues --  -10.23549 -10.23293 -10.23145 -10.23065 -10.23019
 Alpha  occ. eigenvalues --  -10.23017 -10.22978 -10.22958 -10.22907 -10.22712
 Alpha  occ. eigenvalues --  -10.22658 -10.22651 -10.22612 -10.22361 -10.22208
 Alpha  occ. eigenvalues --  -10.22142 -10.22086 -10.21964 -10.21714 -10.21640
 Alpha  occ. eigenvalues --  -10.21632  -3.13828  -1.86683  -1.86237  -1.86026
 Alpha  occ. eigenvalues --   -1.11299  -1.10783  -1.07458  -1.04921  -1.02401
 Alpha  occ. eigenvalues --   -1.01719  -0.99601  -0.98496  -0.97258  -0.95502
 Alpha  occ. eigenvalues --   -0.87085  -0.85184  -0.84393  -0.84163  -0.83104
 Alpha  occ. eigenvalues --   -0.82478  -0.82182  -0.81972  -0.81507  -0.81208
 Alpha  occ. eigenvalues --   -0.80707  -0.79974  -0.78744  -0.77604  -0.77386
 Alpha  occ. eigenvalues --   -0.76872  -0.76647  -0.75497  -0.74912  -0.74626
 Alpha  occ. eigenvalues --   -0.73959  -0.72633  -0.72208  -0.71004  -0.70531
 Alpha  occ. eigenvalues --   -0.70305  -0.69547  -0.69216  -0.69087  -0.68351
 Alpha  occ. eigenvalues --   -0.67575  -0.66917  -0.65388  -0.65130  -0.63172
 Alpha  occ. eigenvalues --   -0.63082  -0.62753  -0.61666  -0.60994  -0.60256
 Alpha  occ. eigenvalues --   -0.59916  -0.59529  -0.58894  -0.58570  -0.58489
 Alpha  occ. eigenvalues --   -0.57701  -0.57231  -0.57051  -0.56515  -0.54697
 Alpha  occ. eigenvalues --   -0.54569  -0.54209  -0.53772  -0.52852  -0.52545
 Alpha  occ. eigenvalues --   -0.52033  -0.51325  -0.50563  -0.50231  -0.49960
 Alpha  occ. eigenvalues --   -0.49657  -0.49220  -0.48784  -0.48718  -0.48487
 Alpha  occ. eigenvalues --   -0.48218  -0.48107  -0.47898  -0.47703  -0.47607
 Alpha  occ. eigenvalues --   -0.47390  -0.47224  -0.47033  -0.46763  -0.46613
 Alpha  occ. eigenvalues --   -0.46271  -0.46150  -0.45842  -0.45631  -0.45588
 Alpha  occ. eigenvalues --   -0.45376  -0.45004  -0.44640  -0.44480  -0.44325
 Alpha  occ. eigenvalues --   -0.44242  -0.43965  -0.43797  -0.43707  -0.43606
 Alpha  occ. eigenvalues --   -0.43090  -0.42971  -0.42808  -0.42561  -0.42480
 Alpha  occ. eigenvalues --   -0.42154  -0.41895  -0.41768  -0.41499  -0.41332
 Alpha  occ. eigenvalues --   -0.41302  -0.41214  -0.40875  -0.40623  -0.40449
 Alpha  occ. eigenvalues --   -0.40247  -0.39966  -0.39765  -0.39600  -0.39510
 Alpha  occ. eigenvalues --   -0.39102  -0.39011  -0.38768  -0.38634  -0.38560
 Alpha  occ. eigenvalues --   -0.38371  -0.38257  -0.38233  -0.38046  -0.37916
 Alpha  occ. eigenvalues --   -0.37644  -0.37573  -0.37320  -0.37158  -0.37084
 Alpha  occ. eigenvalues --   -0.36787  -0.36560  -0.36244  -0.36225  -0.36023
 Alpha  occ. eigenvalues --   -0.35924  -0.35585  -0.35545  -0.35429  -0.34980
 Alpha  occ. eigenvalues --   -0.34519  -0.34512  -0.34248  -0.33804  -0.33736
 Alpha  occ. eigenvalues --   -0.33526  -0.33268  -0.32998  -0.32857  -0.32326
 Alpha  occ. eigenvalues --   -0.32168  -0.31865  -0.31822  -0.31588  -0.31323
 Alpha  occ. eigenvalues --   -0.31175  -0.31135  -0.30704  -0.29878  -0.28965
 Alpha  occ. eigenvalues --   -0.28770  -0.28401  -0.28324  -0.26948  -0.26212
 Alpha  occ. eigenvalues --   -0.25804  -0.25682  -0.25559  -0.25049  -0.20684
 Alpha  occ. eigenvalues --   -0.18639
 Alpha virt. eigenvalues --   -0.11042  -0.05489  -0.03922  -0.01798  -0.00127
 Alpha virt. eigenvalues --    0.00241   0.00760   0.01155   0.01556   0.02800
 Alpha virt. eigenvalues --    0.03781   0.04106   0.04909   0.05287   0.05750

 Mulliken charges:
               1
     1  Mg   0.984930
     2  C    0.036037
     3  C   -0.077954
     4  C   -0.032428
     5  C   -0.079475
     6  N   -0.330946
     7  C    0.033234
     8  C   -0.114585
     9  C   -0.126260
    10  C    0.045006
    11  C    0.029738
    12  C    0.071051
    13  C   -0.039207
    14  C    0.191026
    15  O   -0.237842
    16  O   -0.392492
    17  N   -0.477033
    18  C    0.176323
    19  C   -0.173100
    20  C   -0.108047
    21  C    0.139037
    22  C    0.049247
    23  C    0.047497
    24  O   -0.204362
    25  C    0.005380
    26  N   -0.433543
    27  C    0.103464
    28  C   -0.155126
    29  C   -0.084142
    30  C    0.078043
    31  C   -0.006979
    32  C   -0.051032
    33  C   -0.061382
    34  N   -0.484737
    35  C    0.145614
    36  C   -0.230004
    37  C    0.039315
    38  C    0.099202
    39  C    0.063921
    40  C    0.127078
    41  O   -0.208329
    42  C   -0.156773
    43  C    0.306102
    44  O   -0.264933
    45  O   -0.361821
    46  C    0.128464
    47  C    0.199001
    48  C   -0.092697
    49  C   -0.224607
    50  C   -0.028396
    51  C    0.031900
    52  C   -0.047780
    53  C   -0.003571
    54  C   -0.229004
    55  C    0.017180
    56  C    0.014911
    57  C   -0.080842
    58  C    0.009743
    59  C   -0.233054
    60  C    0.023521
    61  C   -0.020452
    62  C   -0.053240
    63  C   -0.005056
    64  C   -0.250770
    65  C   -0.033397
    66  C    0.000272
    67  H   -0.007856
    68  H    0.030661
    69  H    0.010812
    70  H    0.060614
    71  H    0.031394
    72  H    0.050443
    73  H    0.046585
    74  H    0.047194
    75  H    0.061306
    76  H    0.044781
    77  H    0.056530
    78  H    0.052096
    79  H    0.060906
    80  H    0.061653
    81  H    0.026296
    82  H    0.050685
    83  H    0.052375
    84  H    0.047003
    85  H    0.055104
    86  H    0.054578
    87  H    0.074224
    88  H    0.037591
    89  H    0.035525
    90  H    0.045951
    91  H    0.045512
    92  H    0.050854
    93  H    0.038017
    94  H    0.046719
    95  H    0.056626
    96  H    0.067777
    97  H    0.055436
    98  H    0.070206
    99  H    0.063229
   100  H    0.067835
   101  H    0.047818
   102  H    0.058422
   103  H    0.085788
   104  H    0.025064
   105  H    0.048607
   106  H    0.056883
   107  H    0.025419
   108  H    0.057720
   109  H    0.018372
   110  H    0.031721
   111  H    0.041892
   112  H    0.018315
   113  H    0.026921
   114  H    0.035106
   115  H    0.025017
   116  H    0.027470
   117  H    0.032677
   118  H    0.022846
   119  H    0.030436
   120  H    0.035095
   121  H    0.030538
   122  H    0.012279
   123  H    0.019952
   124  H    0.033189
   125  H    0.036079
   126  H    0.042835
   127  H    0.026886
   128  H    0.020843
   129  H    0.026239
   130  H    0.035385
   131  H    0.027157
   132  H    0.028477
   133  H    0.030091
   134  H    0.036539
   135  H    0.031380
   136  H    0.037742
   137  H    0.025908
   138  H    0.026659
   139  H    0.029376
   140  H    0.041361
 Sum of Mulliken charges =  -0.00000

 Dipole moment (field-independent basis, Debye):
    X=              4.3649    Y=              3.9148    Z=             -3.4801  Tot=              6.8183
 Quadrupole moment (field-independent basis, Debye-Ang):
   XX=           -374.7466   YY=           -421.4736   ZZ=           -407.4373
   XY=            -21.3206   XZ=             13.0646   YZ=              5.2840

 Normal termination of Gaussian 16 at Thu Apr 28 10:31:08 2022.
