 Gaussian 16, Revision A.03,
 Gaussian 16:  ES64L-G16RevA.03 25-Dec-2016

 --------------------------------
 #p wB97XD/Def2SVP td=(nstates=5)
 --------------------------------

 ----------------------------------------------------
 step_151_chromophore_27 TDDFT with wB97XD functional
 ----------------------------------------------------
 Symbolic Z-matrix:
 Charge =  0 Multiplicity = 1

                         Standard orientation:
 ---------------------------------------------------------------------
 Center     Atomic      Atomic             Coordinates (Angstroms)
 Number     Number       Type             X           Y           Z
 ---------------------------------------------------------------------
      1         12           0       -4.506472    0.734670    0.005827
      2          6           0       -3.795213   -2.580713    0.339933
      3          6           0       -1.094872    1.450949    0.380611
      4          6           0       -5.205036    3.991173   -0.335281
      5          6           0       -7.975827   -0.081247    0.102639
      6          7           0       -2.628843   -0.390781    0.265611
      7          6           0       -2.628934   -1.769346    0.128943
      8          6           0       -1.155903   -2.327106    0.069293
      9          6           0       -0.379396   -1.049037    0.549264
     10          6           0       -1.433229    0.082520    0.366724
     11          6           0        0.241944   -1.070669    1.934130
     12          6           0       -0.779702   -2.927738   -1.351177
     13          6           0       -0.219593   -4.305022   -1.273275
     14          6           0        1.256599   -4.352376   -0.856285
     15          8           0        1.755566   -4.620840    0.190248
     16          8           0        2.029484   -3.995706   -1.933368
     17          7           0       -3.252270    2.434982    0.118663
     18          6           0       -1.920590    2.567176    0.259422
     19          6           0       -1.553233    3.953997    0.309180
     20          6           0       -2.795876    4.677037    0.296900
     21          6           0       -3.808171    3.721837   -0.006820
     22          6           0       -0.176175    4.516180    0.622817
     23          6           0       -3.060641    6.149383    0.574904
     24          8           0       -4.162283    6.557185    0.684873
     25          6           0       -1.991229    7.051351    0.802565
     26          7           0       -6.307009    1.811246    0.035425
     27          6           0       -6.306604    3.170879   -0.207379
     28          6           0       -7.755126    3.756827   -0.429413
     29          6           0       -8.710572    2.540809   -0.367051
     30          6           0       -7.648081    1.352313   -0.124038
     31          6           0       -8.074241    4.953021    0.554276
     32          6           0       -9.400063    2.315592   -1.797033
     33          6           0      -10.755436    3.109459   -1.873923
     34          7           0       -5.685016   -0.941099    0.064845
     35          6           0       -7.035298   -1.151407    0.177725
     36          6           0       -7.306390   -2.548885    0.258137
     37          6           0       -6.108355   -3.198947    0.296521
     38          6           0       -5.137880   -2.188778    0.193049
     39          6           0       -8.699734   -3.081279    0.312834
     40          6           0       -5.407491   -4.442095    0.402997
     41          8           0       -5.803542   -5.569222    0.645275
     42          6           0       -3.867710   -4.085380    0.526514
     43          6           0       -3.364674   -4.724924    1.784063
     44          8           0       -3.520725   -4.239483    2.909541
     45          8           0       -2.545703   -5.787321    1.519383
     46          6           0       -1.670379   -6.197678    2.607275
     47          6           0        3.516291   -3.774246   -1.657166
     48          6           0        4.019021   -2.427197   -2.188557
     49          6           0        5.334352   -2.071323   -2.326076
     50          6           0        6.514083   -3.143528   -2.215842
     51          6           0        5.874049   -0.703068   -2.684292
     52          6           0        6.281247   -0.567008   -4.151092
     53          6           0        7.769144   -0.247885   -4.335932
     54          6           0        8.092192    1.299269   -4.295570
     55          6           0        8.162304    1.958732   -5.632447
     56          6           0        9.317423    1.558826   -3.479570
     57          6           0        8.822348    2.045520   -2.068746
     58          6           0        9.916880    1.852368   -0.941156
     59          6           0        9.323809    1.216258    0.288592
     60          6           0        9.324677   -0.250568    0.072238
     61          6           0       10.208829    1.631907    1.537900
     62          6           0        9.351044    1.866246    2.799607
     63          6           0       10.237141    2.104176    4.042574
     64          6           0       10.176153    0.906062    5.010205
     65          6           0        8.739014    0.885535    5.703312
     66          6           0       11.279920    1.022763    6.090431
     67          1           0       -0.031498    1.659434    0.510905
     68          1           0       -5.497814    5.042907   -0.384181
     69          1           0       -9.046587   -0.295520    0.107572
     70          1           0       -1.077030   -3.101948    0.831374
     71          1           0        0.468668   -0.855603   -0.108167
     72          1           0        1.245848   -1.477325    1.814412
     73          1           0       -0.312543   -1.791452    2.533739
     74          1           0        0.211834   -0.082702    2.394351
     75          1           0       -0.259046   -2.283821   -2.059261
     76          1           0       -1.773089   -3.150944   -1.741622
     77          1           0       -0.356779   -4.915293   -2.165671
     78          1           0       -0.664013   -5.028880   -0.591632
     79          1           0       -0.121490    4.893030    1.643642
     80          1           0        0.126364    5.199871   -0.170524
     81          1           0        0.579418    3.734395    0.701443
     82          1           0       -1.234590    7.016633    0.019007
     83          1           0       -1.483410    6.798423    1.732946
     84          1           0       -2.271455    8.082820    1.017494
     85          1           0       -7.774317    4.275363   -1.387295
     86          1           0       -9.418327    2.671339    0.451386
     87          1           0       -7.219461    5.352680    1.101786
     88          1           0       -8.897803    4.607771    1.177272
     89          1           0       -8.381682    5.773812   -0.093303
     90          1           0       -9.566448    1.249761   -1.956940
     91          1           0       -8.725277    2.707481   -2.557533
     92          1           0      -11.301548    2.823879   -2.773045
     93          1           0      -10.464593    4.155530   -1.971267
     94          1           0      -11.355578    2.967002   -0.975441
     95          1           0       -9.089507   -2.596533   -0.581952
     96          1           0       -9.240882   -2.906365    1.242059
     97          1           0       -8.622109   -4.163615    0.202280
     98          1           0       -3.321143   -4.481281   -0.329965
     99          1           0       -0.937930   -6.966076    2.359450
    100          1           0       -2.289643   -6.479031    3.460101
    101          1           0       -1.036714   -5.357059    2.888656
    102          1           0        3.937896   -4.573822   -2.267352
    103          1           0        3.869206   -3.980160   -0.646482
    104          1           0        3.283984   -1.623104   -2.152449
    105          1           0        7.302441   -2.911388   -1.499798
    106          1           0        6.976241   -3.342931   -3.182894
    107          1           0        6.170924   -4.107419   -1.840287
    108          1           0        6.628639   -0.465175   -1.936036
    109          1           0        5.003809   -0.067113   -2.518457
    110          1           0        5.755054    0.292028   -4.568474
    111          1           0        6.027343   -1.424936   -4.773297
    112          1           0        8.005917   -0.678552   -5.308649
    113          1           0        8.360217   -0.831040   -3.629813
    114          1           0        7.244319    1.763115   -3.791772
    115          1           0        7.346803    2.681863   -5.655676
    116          1           0        8.001629    1.275908   -6.467342
    117          1           0        9.065687    2.535513   -5.832044
    118          1           0        9.908092    2.362469   -3.918582
    119          1           0        9.962726    0.683082   -3.424345
    120          1           0        7.850958    1.653902   -1.764426
    121          1           0        8.558053    3.084960   -2.261241
    122          1           0       10.402711    2.805786   -0.732078
    123          1           0       10.821094    1.326736   -1.248566
    124          1           0        8.352376    1.667900    0.490352
    125          1           0       10.058469   -0.536921   -0.681606
    126          1           0        8.304050   -0.524700   -0.196447
    127          1           0        9.566506   -0.877435    0.930291
    128          1           0       10.716192    2.560110    1.275293
    129          1           0       10.936943    0.864821    1.798555
    130          1           0        8.687020    1.004123    2.747660
    131          1           0        8.764327    2.780530    2.701622
    132          1           0        9.888009    2.957491    4.625911
    133          1           0       11.255332    2.345206    3.738493
    134          1           0       10.163035   -0.091421    4.570909
    135          1           0        8.122269    0.008676    5.509410
    136          1           0        8.229200    1.800128    5.401711
    137          1           0        8.813091    0.803793    6.787657
    138          1           0       12.121208    1.543958    5.633720
    139          1           0       11.702780    0.054718    6.359660
    140          1           0       10.922018    1.482938    7.010710
 ---------------------------------------------------------------------

 SCF Done:  E(RwB97XD) =  -3007.85941425     A.U. after   17 cycles

 Excitation energies and oscillator strengths:

 Excited State   1:      Singlet-A      1.6262 eV  762.44 nm  f=0.3511  <S**2>=0.000
     245 -> 248       -0.19572
     246 -> 247        0.67804
     245 <- 248       -0.11853
 This state for optimization and/or second-order correction.
 Total Energy, E(TD-HF/TD-DFT) =  -3007.79965432
 Copying the excited state density for this state as the 1-particle RhoCI density.

 Excited State   2:      Singlet-A      2.1148 eV  586.26 nm  f=0.0976  <S**2>=0.000
     245 -> 247        0.63184
     246 -> 248        0.30041

 Excited State   3:      Singlet-A      3.2980 eV  375.93 nm  f=0.0172  <S**2>=0.000
     242 -> 247        0.13979
     244 -> 247        0.65275
     246 -> 248       -0.17499

 Excited State   4:      Singlet-A      3.4395 eV  360.48 nm  f=0.6646  <S**2>=0.000
     242 -> 247       -0.13728
     244 -> 247        0.19519
     245 -> 247       -0.28137
     246 -> 248        0.58966
     245 <- 247        0.11391

 Excited State   5:      Singlet-A      3.6259 eV  341.94 nm  f=0.0012  <S**2>=0.000
     239 -> 247       -0.20476
     239 -> 249       -0.18155
     240 -> 247       -0.24454
     240 -> 249       -0.21784
     241 -> 247        0.37972
     241 -> 249        0.24509
     242 -> 247        0.21254

 The electronic state is 1-A.
 Alpha  occ. eigenvalues --  -46.94632 -19.30277 -19.29527 -19.24902 -19.24299
 Alpha  occ. eigenvalues --  -19.24162 -19.23554 -14.47031 -14.46590 -14.43759
 Alpha  occ. eigenvalues --  -14.43641 -10.43220 -10.42610 -10.39097 -10.38151
 Alpha  occ. eigenvalues --  -10.36442 -10.36359 -10.35522 -10.35022 -10.34675
 Alpha  occ. eigenvalues --  -10.34524 -10.34446 -10.33416 -10.33372 -10.32882
 Alpha  occ. eigenvalues --  -10.32771 -10.32689 -10.32658 -10.32525 -10.32410
 Alpha  occ. eigenvalues --  -10.32262 -10.31894 -10.31638 -10.31596 -10.31405
 Alpha  occ. eigenvalues --  -10.31397 -10.31321 -10.31258 -10.31033 -10.30934
 Alpha  occ. eigenvalues --  -10.30892 -10.30600 -10.30234 -10.30090 -10.29875
 Alpha  occ. eigenvalues --  -10.29821 -10.29643 -10.29537 -10.29438 -10.29432
 Alpha  occ. eigenvalues --  -10.29410 -10.29339 -10.29295 -10.29270 -10.29204
 Alpha  occ. eigenvalues --  -10.29036 -10.28985 -10.28946 -10.28750 -10.28578
 Alpha  occ. eigenvalues --  -10.28528 -10.28456 -10.28424 -10.28133 -10.28080
 Alpha  occ. eigenvalues --  -10.28077  -3.20606  -1.94211  -1.93764  -1.93555
 Alpha  occ. eigenvalues --   -1.18654  -1.18194  -1.14952  -1.12418  -1.09731
 Alpha  occ. eigenvalues --   -1.09111  -1.07032  -1.05798  -1.04718  -1.02854
 Alpha  occ. eigenvalues --   -0.94715  -0.92872  -0.92063  -0.91824  -0.90791
 Alpha  occ. eigenvalues --   -0.90056  -0.89764  -0.89647  -0.89177  -0.88932
 Alpha  occ. eigenvalues --   -0.88322  -0.87589  -0.86426  -0.85224  -0.85132
 Alpha  occ. eigenvalues --   -0.84571  -0.84316  -0.83111  -0.82575  -0.82222
 Alpha  occ. eigenvalues --   -0.81631  -0.80315  -0.79867  -0.78604  -0.78256
 Alpha  occ. eigenvalues --   -0.77910  -0.77247  -0.76927  -0.76676  -0.76024
 Alpha  occ. eigenvalues --   -0.75182  -0.74478  -0.72985  -0.72687  -0.70765
 Alpha  occ. eigenvalues --   -0.70689  -0.70272  -0.69258  -0.68667  -0.67775
 Alpha  occ. eigenvalues --   -0.67595  -0.67055  -0.66351  -0.66242  -0.65935
 Alpha  occ. eigenvalues --   -0.65355  -0.64747  -0.64663  -0.63905  -0.62212
 Alpha  occ. eigenvalues --   -0.62118  -0.61640  -0.61214  -0.60245  -0.59978
 Alpha  occ. eigenvalues --   -0.59516  -0.58777  -0.57999  -0.57602  -0.57429
 Alpha  occ. eigenvalues --   -0.57119  -0.56610  -0.56228  -0.56111  -0.55957
 Alpha  occ. eigenvalues --   -0.55736  -0.55559  -0.55294  -0.55169  -0.54961
 Alpha  occ. eigenvalues --   -0.54770  -0.54659  -0.54434  -0.54139  -0.53882
 Alpha  occ. eigenvalues --   -0.53635  -0.53536  -0.53205  -0.53044  -0.52864
 Alpha  occ. eigenvalues --   -0.52706  -0.52376  -0.52025  -0.51827  -0.51657
 Alpha  occ. eigenvalues --   -0.51591  -0.51251  -0.51160  -0.51018  -0.50919
 Alpha  occ. eigenvalues --   -0.50383  -0.50269  -0.50049  -0.49918  -0.49792
 Alpha  occ. eigenvalues --   -0.49441  -0.49243  -0.49042  -0.48726  -0.48548
 Alpha  occ. eigenvalues --   -0.48526  -0.48447  -0.48119  -0.47832  -0.47626
 Alpha  occ. eigenvalues --   -0.47452  -0.47148  -0.46961  -0.46756  -0.46650
 Alpha  occ. eigenvalues --   -0.46310  -0.46210  -0.46005  -0.45789  -0.45726
 Alpha  occ. eigenvalues --   -0.45463  -0.45424  -0.45378  -0.45206  -0.45059
 Alpha  occ. eigenvalues --   -0.44807  -0.44739  -0.44457  -0.44282  -0.44107
 Alpha  occ. eigenvalues --   -0.43882  -0.43641  -0.43387  -0.43324  -0.43133
 Alpha  occ. eigenvalues --   -0.42997  -0.42669  -0.42637  -0.42394  -0.41916
 Alpha  occ. eigenvalues --   -0.41635  -0.41403  -0.41234  -0.40881  -0.40615
 Alpha  occ. eigenvalues --   -0.40606  -0.40339  -0.39908  -0.39865  -0.39353
 Alpha  occ. eigenvalues --   -0.39243  -0.38861  -0.38746  -0.38628  -0.38344
 Alpha  occ. eigenvalues --   -0.38220  -0.38212  -0.37711  -0.36695  -0.36001
 Alpha  occ. eigenvalues --   -0.35795  -0.35229  -0.35105  -0.33665  -0.33218
 Alpha  occ. eigenvalues --   -0.32761  -0.32445  -0.32328  -0.31691  -0.25688
 Alpha  occ. eigenvalues --   -0.22814
 Alpha virt. eigenvalues --   -0.06929  -0.00093   0.02391   0.04736   0.06447
 Alpha virt. eigenvalues --    0.06831   0.06941   0.07835   0.08262   0.09347
 Alpha virt. eigenvalues --    0.10229   0.10847   0.11551   0.11994   0.12473

 Mulliken charges:
               1
     1  Mg   0.973592
     2  C    0.024939
     3  C   -0.092691
     4  C   -0.053515
     5  C   -0.100192
     6  N   -0.292744
     7  C    0.003564
     8  C   -0.085944
     9  C   -0.103301
    10  C    0.026626
    11  C    0.039732
    12  C    0.083428
    13  C   -0.019201
    14  C    0.176637
    15  O   -0.235170
    16  O   -0.392372
    17  N   -0.445430
    18  C    0.169741
    19  C   -0.165672
    20  C   -0.101471
    21  C    0.134152
    22  C    0.062485
    23  C    0.046549
    24  O   -0.198149
    25  C    0.013879
    26  N   -0.410216
    27  C    0.100557
    28  C   -0.135663
    29  C   -0.057866
    30  C    0.067999
    31  C    0.004060
    32  C   -0.035747
    33  C   -0.044246
    34  N   -0.447910
    35  C    0.139570
    36  C   -0.223024
    37  C    0.041477
    38  C    0.090168
    39  C    0.073114
    40  C    0.109036
    41  O   -0.198890
    42  C   -0.109124
    43  C    0.281158
    44  O   -0.259250
    45  O   -0.359768
    46  C    0.143423
    47  C    0.212769
    48  C   -0.101564
    49  C   -0.212048
    50  C   -0.015175
    51  C    0.064144
    52  C   -0.030425
    53  C    0.010084
    54  C   -0.192904
    55  C    0.025826
    56  C    0.028675
    57  C   -0.059172
    58  C    0.024910
    59  C   -0.197512
    60  C    0.033477
    61  C   -0.005834
    62  C   -0.037092
    63  C    0.015352
    64  C   -0.223735
    65  C   -0.022906
    66  C    0.012614
    67  H   -0.014357
    68  H    0.023206
    69  H    0.005805
    70  H    0.040483
    71  H    0.020695
    72  H    0.046323
    73  H    0.040580
    74  H    0.040757
    75  H    0.057306
    76  H    0.033465
    77  H    0.052627
    78  H    0.042882
    79  H    0.056109
    80  H    0.057089
    81  H    0.022091
    82  H    0.044809
    83  H    0.046328
    84  H    0.046737
    85  H    0.043367
    86  H    0.044930
    87  H    0.068953
    88  H    0.031180
    89  H    0.029998
    90  H    0.037341
    91  H    0.037263
    92  H    0.045688
    93  H    0.029844
    94  H    0.040298
    95  H    0.049532
    96  H    0.063703
    97  H    0.051415
    98  H    0.058216
    99  H    0.060531
   100  H    0.064049
   101  H    0.043140
   102  H    0.052508
   103  H    0.082265
   104  H    0.021594
   105  H    0.042921
   106  H    0.051115
   107  H    0.019632
   108  H    0.034233
   109  H    0.010721
   110  H    0.022332
   111  H    0.034899
   112  H    0.010623
   113  H    0.014331
   114  H    0.017636
   115  H    0.019663
   116  H    0.021800
   117  H    0.027054
   118  H    0.014415
   119  H    0.020383
   120  H    0.019564
   121  H    0.022274
   122  H    0.003938
   123  H    0.010088
   124  H    0.021000
   125  H    0.029361
   126  H    0.033306
   127  H    0.021758
   128  H    0.010512
   129  H    0.015712
   130  H    0.023641
   131  H    0.019597
   132  H    0.019177
   133  H    0.020923
   134  H    0.025659
   135  H    0.026274
   136  H    0.029882
   137  H    0.019805
   138  H    0.019873
   139  H    0.024196
   140  H    0.035139
 Sum of Mulliken charges =  -0.00000

 Dipole moment (field-independent basis, Debye):
    X=              4.6896    Y=              4.0475    Z=             -3.4695  Tot=              7.1001
 Quadrupole moment (field-independent basis, Debye-Ang):
   XX=           -377.2292   YY=           -419.8953   ZZ=           -406.9978
   XY=            -21.0156   XZ=             13.0304   YZ=              5.5189

 Normal termination of Gaussian 16 at Thu Apr 28 11:02:42 2022.
