 Gaussian 16, Revision A.03,
 Gaussian 16:  ES64L-G16RevA.03 25-Dec-2016

 --------------------
 #p ZINDO=(nstates=5)
 --------------------

 -----------------------------
 step_151_chromophore_27 ZINDO
 -----------------------------
 Symbolic Z-matrix:
 Charge =  0 Multiplicity = 1

                         Standard orientation:
 ---------------------------------------------------------------------
 Center     Atomic      Atomic             Coordinates (Angstroms)
 Number     Number       Type             X           Y           Z
 ---------------------------------------------------------------------
      1         12           0       -4.506472    0.734670    0.005827
      2          6           0       -3.795213   -2.580713    0.339933
      3          6           0       -1.094872    1.450949    0.380611
      4          6           0       -5.205036    3.991173   -0.335281
      5          6           0       -7.975827   -0.081247    0.102639
      6          7           0       -2.628843   -0.390781    0.265611
      7          6           0       -2.628934   -1.769346    0.128943
      8          6           0       -1.155903   -2.327106    0.069293
      9          6           0       -0.379396   -1.049037    0.549264
     10          6           0       -1.433229    0.082520    0.366724
     11          6           0        0.241944   -1.070669    1.934130
     12          6           0       -0.779702   -2.927738   -1.351177
     13          6           0       -0.219593   -4.305022   -1.273275
     14          6           0        1.256599   -4.352376   -0.856285
     15          8           0        1.755566   -4.620840    0.190248
     16          8           0        2.029484   -3.995706   -1.933368
     17          7           0       -3.252270    2.434982    0.118663
     18          6           0       -1.920590    2.567176    0.259422
     19          6           0       -1.553233    3.953997    0.309180
     20          6           0       -2.795876    4.677037    0.296900
     21          6           0       -3.808171    3.721837   -0.006820
     22          6           0       -0.176175    4.516180    0.622817
     23          6           0       -3.060641    6.149383    0.574904
     24          8           0       -4.162283    6.557185    0.684873
     25          6           0       -1.991229    7.051351    0.802565
     26          7           0       -6.307009    1.811246    0.035425
     27          6           0       -6.306604    3.170879   -0.207379
     28          6           0       -7.755126    3.756827   -0.429413
     29          6           0       -8.710572    2.540809   -0.367051
     30          6           0       -7.648081    1.352313   -0.124038
     31          6           0       -8.074241    4.953021    0.554276
     32          6           0       -9.400063    2.315592   -1.797033
     33          6           0      -10.755436    3.109459   -1.873923
     34          7           0       -5.685016   -0.941099    0.064845
     35          6           0       -7.035298   -1.151407    0.177725
     36          6           0       -7.306390   -2.548885    0.258137
     37          6           0       -6.108355   -3.198947    0.296521
     38          6           0       -5.137880   -2.188778    0.193049
     39          6           0       -8.699734   -3.081279    0.312834
     40          6           0       -5.407491   -4.442095    0.402997
     41          8           0       -5.803542   -5.569222    0.645275
     42          6           0       -3.867710   -4.085380    0.526514
     43          6           0       -3.364674   -4.724924    1.784063
     44          8           0       -3.520725   -4.239483    2.909541
     45          8           0       -2.545703   -5.787321    1.519383
     46          6           0       -1.670379   -6.197678    2.607275
     47          6           0        3.516291   -3.774246   -1.657166
     48          6           0        4.019021   -2.427197   -2.188557
     49          6           0        5.334352   -2.071323   -2.326076
     50          6           0        6.514083   -3.143528   -2.215842
     51          6           0        5.874049   -0.703068   -2.684292
     52          6           0        6.281247   -0.567008   -4.151092
     53          6           0        7.769144   -0.247885   -4.335932
     54          6           0        8.092192    1.299269   -4.295570
     55          6           0        8.162304    1.958732   -5.632447
     56          6           0        9.317423    1.558826   -3.479570
     57          6           0        8.822348    2.045520   -2.068746
     58          6           0        9.916880    1.852368   -0.941156
     59          6           0        9.323809    1.216258    0.288592
     60          6           0        9.324677   -0.250568    0.072238
     61          6           0       10.208829    1.631907    1.537900
     62          6           0        9.351044    1.866246    2.799607
     63          6           0       10.237141    2.104176    4.042574
     64          6           0       10.176153    0.906062    5.010205
     65          6           0        8.739014    0.885535    5.703312
     66          6           0       11.279920    1.022763    6.090431
     67          1           0       -0.031498    1.659434    0.510905
     68          1           0       -5.497814    5.042907   -0.384181
     69          1           0       -9.046587   -0.295520    0.107572
     70          1           0       -1.077030   -3.101948    0.831374
     71          1           0        0.468668   -0.855603   -0.108167
     72          1           0        1.245848   -1.477325    1.814412
     73          1           0       -0.312543   -1.791452    2.533739
     74          1           0        0.211834   -0.082702    2.394351
     75          1           0       -0.259046   -2.283821   -2.059261
     76          1           0       -1.773089   -3.150944   -1.741622
     77          1           0       -0.356779   -4.915293   -2.165671
     78          1           0       -0.664013   -5.028880   -0.591632
     79          1           0       -0.121490    4.893030    1.643642
     80          1           0        0.126364    5.199871   -0.170524
     81          1           0        0.579418    3.734395    0.701443
     82          1           0       -1.234590    7.016633    0.019007
     83          1           0       -1.483410    6.798423    1.732946
     84          1           0       -2.271455    8.082820    1.017494
     85          1           0       -7.774317    4.275363   -1.387295
     86          1           0       -9.418327    2.671339    0.451386
     87          1           0       -7.219461    5.352680    1.101786
     88          1           0       -8.897803    4.607771    1.177272
     89          1           0       -8.381682    5.773812   -0.093303
     90          1           0       -9.566448    1.249761   -1.956940
     91          1           0       -8.725277    2.707481   -2.557533
     92          1           0      -11.301548    2.823879   -2.773045
     93          1           0      -10.464593    4.155530   -1.971267
     94          1           0      -11.355578    2.967002   -0.975441
     95          1           0       -9.089507   -2.596533   -0.581952
     96          1           0       -9.240882   -2.906365    1.242059
     97          1           0       -8.622109   -4.163615    0.202280
     98          1           0       -3.321143   -4.481281   -0.329965
     99          1           0       -0.937930   -6.966076    2.359450
    100          1           0       -2.289643   -6.479031    3.460101
    101          1           0       -1.036714   -5.357059    2.888656
    102          1           0        3.937896   -4.573822   -2.267352
    103          1           0        3.869206   -3.980160   -0.646482
    104          1           0        3.283984   -1.623104   -2.152449
    105          1           0        7.302441   -2.911388   -1.499798
    106          1           0        6.976241   -3.342931   -3.182894
    107          1           0        6.170924   -4.107419   -1.840287
    108          1           0        6.628639   -0.465175   -1.936036
    109          1           0        5.003809   -0.067113   -2.518457
    110          1           0        5.755054    0.292028   -4.568474
    111          1           0        6.027343   -1.424936   -4.773297
    112          1           0        8.005917   -0.678552   -5.308649
    113          1           0        8.360217   -0.831040   -3.629813
    114          1           0        7.244319    1.763115   -3.791772
    115          1           0        7.346803    2.681863   -5.655676
    116          1           0        8.001629    1.275908   -6.467342
    117          1           0        9.065687    2.535513   -5.832044
    118          1           0        9.908092    2.362469   -3.918582
    119          1           0        9.962726    0.683082   -3.424345
    120          1           0        7.850958    1.653902   -1.764426
    121          1           0        8.558053    3.084960   -2.261241
    122          1           0       10.402711    2.805786   -0.732078
    123          1           0       10.821094    1.326736   -1.248566
    124          1           0        8.352376    1.667900    0.490352
    125          1           0       10.058469   -0.536921   -0.681606
    126          1           0        8.304050   -0.524700   -0.196447
    127          1           0        9.566506   -0.877435    0.930291
    128          1           0       10.716192    2.560110    1.275293
    129          1           0       10.936943    0.864821    1.798555
    130          1           0        8.687020    1.004123    2.747660
    131          1           0        8.764327    2.780530    2.701622
    132          1           0        9.888009    2.957491    4.625911
    133          1           0       11.255332    2.345206    3.738493
    134          1           0       10.163035   -0.091421    4.570909
    135          1           0        8.122269    0.008676    5.509410
    136          1           0        8.229200    1.800128    5.401711
    137          1           0        8.813091    0.803793    6.787657
    138          1           0       12.121208    1.543958    5.633720
    139          1           0       11.702780    0.054718    6.359660
    140          1           0       10.922018    1.482938    7.010710
 ---------------------------------------------------------------------

 SCF Done:  E(RZINDO/S) =  -474.305397045     A.U. after   20 cycles

 Excitation energies and oscillator strengths:

 Excited State   1:      Singlet-A      1.2244 eV 1012.59 nm  f=0.5697  <S**2>=0.000
     175 ->178         0.19447
     176 ->177         0.65817
 This state for optimization and/or second-order correction.
 Total Energy, E(CIS/TDA) =  -474.260400152
 Copying the excited state density for this state as the 1-particle RhoCI density.

 Excited State   2:      Singlet-A      1.8693 eV  663.28 nm  f=0.0293  <S**2>=0.000
     175 ->177         0.53060
     176 ->178        -0.43514

 Excited State   3:      Singlet-A      2.8399 eV  436.57 nm  f=0.6496  <S**2>=0.000
     175 ->177         0.33212
     176 ->178         0.47895
     176 ->179         0.33516

 Excited State   4:      Singlet-A      2.9220 eV  424.32 nm  f=0.0155  <S**2>=0.000
     168 ->177         0.30741
     168 ->178         0.25196
     168 ->179         0.40105
     168 ->180        -0.20072
     168 ->181         0.12479
     168 ->183         0.11877
     168 ->186         0.20897
     168 ->201        -0.11834

 Excited State   5:      Singlet-A      2.9869 eV  415.09 nm  f=0.0059  <S**2>=0.000
     169 ->177         0.22709
     169 ->179        -0.23583
     169 ->180        -0.33710
     169 ->181         0.11482
     169 ->186        -0.16319
     169 ->187         0.19451
     170 ->177         0.13303
     170 ->179        -0.11686
     170 ->180        -0.19154
     173 ->177         0.13140
     176 ->179        -0.13986

 The electronic state is 1-A.
 Alpha  occ. eigenvalues --   -1.84854  -1.81451  -1.77136  -1.72416  -1.72281
 Alpha  occ. eigenvalues --   -1.69116  -1.67629  -1.63960  -1.62583  -1.59487
 Alpha  occ. eigenvalues --   -1.55502  -1.51647  -1.48319  -1.47673  -1.45613
 Alpha  occ. eigenvalues --   -1.44878  -1.43047  -1.39503  -1.38349  -1.37827
 Alpha  occ. eigenvalues --   -1.35732  -1.35056  -1.34102  -1.32940  -1.27388
 Alpha  occ. eigenvalues --   -1.26909  -1.24125  -1.22434  -1.19895  -1.17886
 Alpha  occ. eigenvalues --   -1.16400  -1.16207  -1.15603  -1.14594  -1.14290
 Alpha  occ. eigenvalues --   -1.11577  -1.10636  -1.10416  -1.03970  -1.03295
 Alpha  occ. eigenvalues --   -1.02235  -1.00645  -1.00085  -0.97366  -0.96663
 Alpha  occ. eigenvalues --   -0.95428  -0.94544  -0.93603  -0.93130  -0.91744
 Alpha  occ. eigenvalues --   -0.91073  -0.90249  -0.89531  -0.88153  -0.87221
 Alpha  occ. eigenvalues --   -0.86163  -0.83514  -0.82902  -0.82198  -0.80547
 Alpha  occ. eigenvalues --   -0.80234  -0.79100  -0.77537  -0.76556  -0.76174
 Alpha  occ. eigenvalues --   -0.75334  -0.75320  -0.74445  -0.73919  -0.72920
 Alpha  occ. eigenvalues --   -0.72881  -0.72569  -0.72016  -0.71261  -0.70422
 Alpha  occ. eigenvalues --   -0.70068  -0.69802  -0.69424  -0.68712  -0.68395
 Alpha  occ. eigenvalues --   -0.67913  -0.67702  -0.67323  -0.67075  -0.65870
 Alpha  occ. eigenvalues --   -0.65564  -0.65444  -0.64992  -0.64311  -0.63502
 Alpha  occ. eigenvalues --   -0.63339  -0.63067  -0.62737  -0.62247  -0.61783
 Alpha  occ. eigenvalues --   -0.61253  -0.60565  -0.60226  -0.60102  -0.59884
 Alpha  occ. eigenvalues --   -0.59534  -0.59219  -0.58576  -0.58357  -0.57954
 Alpha  occ. eigenvalues --   -0.57576  -0.57239  -0.56669  -0.56613  -0.56500
 Alpha  occ. eigenvalues --   -0.56041  -0.55738  -0.55364  -0.55221  -0.54504
 Alpha  occ. eigenvalues --   -0.54390  -0.54221  -0.53305  -0.52781  -0.52580
 Alpha  occ. eigenvalues --   -0.52361  -0.52111  -0.51789  -0.51661  -0.51413
 Alpha  occ. eigenvalues --   -0.51288  -0.50984  -0.50905  -0.50792  -0.49878
 Alpha  occ. eigenvalues --   -0.49732  -0.49431  -0.49113  -0.49032  -0.48634
 Alpha  occ. eigenvalues --   -0.48567  -0.48070  -0.48058  -0.47980  -0.47738
 Alpha  occ. eigenvalues --   -0.47613  -0.47329  -0.47102  -0.46725  -0.46398
 Alpha  occ. eigenvalues --   -0.46265  -0.45907  -0.45730  -0.45667  -0.45479
 Alpha  occ. eigenvalues --   -0.45432  -0.45322  -0.45178  -0.44909  -0.44578
 Alpha  occ. eigenvalues --   -0.44158  -0.43430  -0.43116  -0.42877  -0.42395
 Alpha  occ. eigenvalues --   -0.41928  -0.41242  -0.40793  -0.38737  -0.38503
 Alpha  occ. eigenvalues --   -0.37968  -0.37235  -0.35331  -0.34853  -0.34346
 Alpha  occ. eigenvalues --   -0.33269  -0.32766  -0.32358  -0.32013  -0.26338
 Alpha  occ. eigenvalues --   -0.21524
 Alpha virt. eigenvalues --   -0.08319  -0.02408  -0.00221   0.01627   0.02403
 Alpha virt. eigenvalues --    0.02713   0.03017   0.03403   0.03765   0.04648
 Alpha virt. eigenvalues --    0.06248   0.07009   0.07435   0.07655   0.08144

 Mulliken charges:
               1
     1  Mg   0.428040
     2  C   -0.027180
     3  C   -0.068879
     4  C   -0.086277
     5  C   -0.087984
     6  N   -0.242024
     7  C    0.078212
     8  C   -0.001217
     9  C    0.003991
    10  C    0.142954
    11  C   -0.045794
    12  C   -0.010408
    13  C    0.009757
    14  C    0.466879
    15  O   -0.509635
    16  O   -0.292657
    17  N   -0.341272
    18  C    0.123659
    19  C   -0.000157
    20  C   -0.050307
    21  C    0.143381
    22  C   -0.044980
    23  C    0.345186
    24  O   -0.513353
    25  C   -0.023216
    26  N   -0.284802
    27  C    0.147749
    28  C   -0.004672
    29  C    0.006795
    30  C    0.099346
    31  C   -0.059141
    32  C   -0.032974
    33  C   -0.060534
    34  N   -0.324028
    35  C    0.107883
    36  C    0.037133
    37  C   -0.034833
    38  C    0.093855
    39  C   -0.047078
    40  C    0.334322
    41  O   -0.509922
    42  C    0.055454
    43  C    0.497975
    44  O   -0.521866
    45  O   -0.264402
    46  C    0.076712
    47  C    0.101388
    48  C   -0.090145
    49  C   -0.004855
    50  C   -0.056779
    51  C   -0.013094
    52  C   -0.024484
    53  C   -0.038485
    54  C   -0.002500
    55  C   -0.053380
    56  C   -0.031068
    57  C   -0.046753
    58  C   -0.036748
    59  C   -0.006329
    60  C   -0.047571
    61  C   -0.047110
    62  C   -0.041780
    63  C   -0.024133
    64  C   -0.015310
    65  C   -0.070913
    66  C   -0.059613
    67  H    0.019161
    68  H    0.042878
    69  H    0.027291
    70  H    0.038753
    71  H    0.018816
    72  H    0.023109
    73  H    0.025925
    74  H    0.028995
    75  H    0.045768
    76  H    0.015446
    77  H    0.034830
    78  H    0.036301
    79  H    0.035456
    80  H    0.034847
    81  H    0.014845
    82  H    0.030235
    83  H    0.034940
    84  H    0.033109
    85  H    0.031796
    86  H    0.048195
    87  H    0.039213
    88  H    0.023431
    89  H    0.015943
    90  H    0.023687
    91  H    0.027246
    92  H    0.019768
    93  H    0.018925
    94  H    0.025663
    95  H    0.034100
    96  H    0.041487
    97  H    0.026358
    98  H    0.042028
    99  H    0.037878
   100  H    0.050166
   101  H    0.034553
   102  H    0.033696
   103  H    0.068637
   104  H    0.031548
   105  H    0.027106
   106  H    0.028603
   107  H    0.014885
   108  H    0.036166
   109  H    0.011671
   110  H    0.015994
   111  H    0.024152
   112  H    0.011435
   113  H    0.019154
   114  H    0.019058
   115  H    0.009804
   116  H    0.016787
   117  H    0.020533
   118  H    0.017112
   119  H    0.021364
   120  H    0.024210
   121  H    0.014928
   122  H    0.007467
   123  H    0.019998
   124  H    0.024819
   125  H    0.022339
   126  H    0.012748
   127  H    0.012975
   128  H    0.016167
   129  H    0.021506
   130  H    0.028015
   131  H    0.013244
   132  H    0.018284
   133  H    0.019147
   134  H    0.027451
   135  H    0.016827
   136  H    0.021738
   137  H    0.015035
   138  H    0.014741
   139  H    0.012450
   140  H    0.027036
 Sum of Mulliken charges =  -0.00000

 Dipole moment (field-independent basis, Debye):
    X=              6.2375    Y=              4.7175    Z=             -5.5616  Tot=              9.5965
 N-N= 4.399588394524D+03 E-N= 0.000000000000D+00  KE=-9.473538848557D+03
 Leave Link  601 at Thu Apr 28 11:14:07 2022, MaxMem=  6710886400 cpu:               0.7 elap:               0.0
 (Enter /sw/apps/gaussian-16.0/g16/l9999.exe)
 1\1\GINC-BP1-COMPUTE068\SP\RZINDO CIS\STO-3G\C55H74Mg1N4O6\OF15641\28-
 Apr-2022\0\\#p ZINDO=(nstates=5)\\step_151_chromophore_27 ZINDO\\0,1\M
 g,0,-5.319,24.552,27.519\C,0,-4.204,26.622,29.985\C,0,-6.146,22.175,29
 .96\C,0,-6.426,22.524,25.096\C,0,-4.016,26.842,25.117\N,0,-5.263,24.39
 3,29.717\C,0,-4.968,25.511,30.48\C,0,-5.263,25.243,32.005\C,0,-5.431,2
 3.682,31.962\C,0,-5.648,23.401,30.446\C,0,-4.336,22.83,32.578\C,0,-6.4
 79,26.1,32.559\C,0,-6.145,26.855,33.798\C,0,-6.162,25.998,35.071\O,0,-

 Normal termination of Gaussian 16 at Thu Apr 28 11:14:08 2022.
