 Gaussian 16, Revision A.03,
 Gaussian 16:  ES64L-G16RevA.03 25-Dec-2016

 ------------------------------
 #p blyp/Def2SVP td=(nstates=5)
 ------------------------------

 --------------------------------------------------
 step_151_chromophore_20 TDDFT with blyp functional
 --------------------------------------------------
 Symbolic Z-matrix:
 Charge =  0 Multiplicity = 1

                         Standard orientation:
 ---------------------------------------------------------------------
 Center     Atomic      Atomic             Coordinates (Angstroms)
 Number     Number       Type             X           Y           Z
 ---------------------------------------------------------------------
      1         12           0       -3.701504    1.703643    0.710654
      2          6           0       -4.852603   -1.653809    0.598837
      3          6           0       -1.618921    0.899709    3.316112
      4          6           0       -2.312339    4.759747    0.391340
      5          6           0       -5.934951    2.326816   -2.058228
      6          7           0       -3.286551   -0.209677    1.756800
      7          6           0       -3.819561   -1.447654    1.538849
      8          6           0       -3.154054   -2.476470    2.410236
      9          6           0       -2.441160   -1.599623    3.483463
     10          6           0       -2.443162   -0.178892    2.859689
     11          6           0       -3.058869   -1.651070    4.918051
     12          6           0       -2.299486   -3.566535    1.660181
     13          6           0       -1.089710   -4.155019    2.405189
     14          6           0       -0.419303   -5.314139    1.637570
     15          8           0       -1.060230   -6.274272    1.195955
     16          8           0        0.934545   -5.100435    1.388325
     17          7           0       -2.156319    2.623246    1.665727
     18          6           0       -1.472800    2.127812    2.735591
     19          6           0       -0.495592    3.074190    3.181102
     20          6           0       -0.694468    4.281904    2.378685
     21          6           0       -1.720833    3.976114    1.409667
     22          6           0        0.679034    2.650029    3.990889
     23          6           0        0.152424    5.541044    2.541873
     24          8           0        0.976401    5.641680    3.470963
     25          6           0        0.021919    6.848514    1.690273
     26          7           0       -3.885251    3.233865   -0.819876
     27          6           0       -3.293429    4.472433   -0.633336
     28          6           0       -3.857395    5.409923   -1.676954
     29          6           0       -4.855188    4.639373   -2.595395
     30          6           0       -4.952031    3.316904   -1.774540
     31          6           0       -4.392169    6.712539   -1.084655
     32          6           0       -4.375300    4.460012   -4.053699
     33          6           0       -5.490093    4.298226   -5.065714
     34          7           0       -5.136043    0.672205   -0.474765
     35          6           0       -5.967855    1.044647   -1.592514
     36          6           0       -6.900990   -0.028488   -1.915681
     37          6           0       -6.478241   -1.097861   -1.117456
     38          6           0       -5.414076   -0.606080   -0.243686
     39          6           0       -8.019210    0.184801   -2.947395
     40          6           0       -6.812639   -2.450764   -0.752642
     41          8           0       -7.748453   -3.161796   -1.116797
     42          6           0       -5.640218   -2.916283    0.215074
     43          6           0       -4.880294   -3.834102   -0.654597
     44          8           0       -4.228245   -3.641235   -1.649764
     45          8           0       -5.006931   -5.046765   -0.090599
     46          6           0       -4.492544   -6.189904   -0.832194
     47          6           0        1.616465   -6.255658    0.832196
     48          6           0        2.840160   -5.723724    0.036487
     49          6           0        3.103780   -5.403804   -1.265707
     50          6           0        2.049676   -5.449079   -2.290832
     51          6           0        4.509471   -4.856839   -1.716085
     52          6           0        4.542045   -3.397635   -2.259023
     53          6           0        5.969462   -2.845070   -2.516957
     54          6           0        6.364995   -1.643541   -1.565560
     55          6           0        5.561216   -0.413952   -2.005187
     56          6           0        7.822830   -1.327978   -1.606447
     57          6           0        8.686243   -2.149408   -0.577892
     58          6           0        9.517652   -1.152900    0.331541
     59          6           0       10.645595   -0.339539   -0.392224
     60          6           0       11.997187   -1.098780   -0.421799
     61          6           0       10.678565    1.229577   -0.097739
     62          6           0       10.308128    2.155988   -1.216919
     63          6           0        8.930299    2.887422   -0.898809
     64          6           0        9.052696    4.255755   -0.166380
     65          6           0        8.623778    4.185092    1.314174
     66          6           0        8.241398    5.394189   -0.962657
     67          1           0       -1.017223    0.617732    4.182363
     68          1           0       -2.057216    5.819672    0.455068
     69          1           0       -6.696317    2.575411   -2.799820
     70          1           0       -4.011483   -3.039160    2.778972
     71          1           0       -1.397135   -1.889313    3.603533
     72          1           0       -3.711451   -0.781544    4.992634
     73          1           0       -2.248309   -1.570819    5.643235
     74          1           0       -3.733396   -2.506351    4.874686
     75          1           0       -1.967463   -3.252959    0.670262
     76          1           0       -2.899814   -4.456421    1.468861
     77          1           0       -1.356431   -4.503053    3.403839
     78          1           0       -0.358586   -3.348741    2.466594
     79          1           0        1.457300    3.400580    3.857961
     80          1           0        0.996533    1.628580    3.780790
     81          1           0        0.308673    2.750005    5.011455
     82          1           0       -0.946799    7.302072    1.900611
     83          1           0        0.080697    6.455187    0.674853
     84          1           0        0.852606    7.553081    1.723677
     85          1           0       -2.993946    5.698360   -2.276047
     86          1           0       -5.853369    5.075596   -2.642919
     87          1           0       -3.953336    7.419058   -1.789271
     88          1           0       -3.968468    6.951407   -0.109041
     89          1           0       -5.473402    6.806347   -1.180660
     90          1           0       -3.678752    3.621842   -4.018635
     91          1           0       -3.724780    5.263089   -4.397597
     92          1           0       -5.574337    5.207787   -5.661216
     93          1           0       -6.461432    4.046171   -4.639667
     94          1           0       -5.283373    3.446129   -5.712687
     95          1           0       -7.502443    0.010284   -3.891130
     96          1           0       -8.407158    1.184085   -2.746604
     97          1           0       -8.765008   -0.582034   -2.736508
     98          1           0       -6.170094   -3.300830    1.086881
     99          1           0       -5.336810   -6.880608   -0.839667
    100          1           0       -3.627013   -6.557385   -0.281740
    101          1           0       -4.216298   -5.987687   -1.866181
    102          1           0        1.056417   -7.010183    0.280759
    103          1           0        1.973662   -6.815098    1.696831
    104          1           0        3.721726   -5.767512    0.675200
    105          1           0        1.167390   -4.917185   -1.934002
    106          1           0        1.746893   -6.461737   -2.559228
    107          1           0        2.464062   -5.053843   -3.217838
    108          1           0        4.881243   -5.602605   -2.418770
    109          1           0        5.274130   -4.848711   -0.940479
    110          1           0        4.024399   -2.698219   -1.602741
    111          1           0        3.882979   -3.324976   -3.124403
    112          1           0        5.904319   -2.555759   -3.565985
    113          1           0        6.771577   -3.577283   -2.604765
    114          1           0        6.042950   -1.898818   -0.555575
    115          1           0        4.909544   -0.750119   -2.811698
    116          1           0        6.114140    0.442492   -2.391660
    117          1           0        4.942447   -0.088665   -1.169085
    118          1           0        7.993054   -0.253451   -1.542575
    119          1           0        8.247671   -1.596795   -2.573361
    120          1           0        9.378139   -2.864985   -1.022264
    121          1           0        8.098060   -2.715893    0.144841
    122          1           0        9.976227   -1.684377    1.164940
    123          1           0        8.917523   -0.389834    0.827425
    124          1           0       10.248069   -0.298129   -1.405815
    125          1           0       12.002968   -1.679736   -1.343808
    126          1           0       12.331408   -1.777328    0.364056
    127          1           0       12.849469   -0.427515   -0.522599
    128          1           0       11.675502    1.574791    0.176757
    129          1           0       10.092518    1.401910    0.804869
    130          1           0       10.239060    1.739277   -2.221922
    131          1           0       11.030456    2.964361   -1.331148
    132          1           0        8.378916    2.195794   -0.261668
    133          1           0        8.490831    2.893553   -1.895991
    134          1           0       10.105337    4.485322   -0.003504
    135          1           0        8.069650    5.096192    1.538252
    136          1           0        9.529371    4.254436    1.917294
    137          1           0        8.042077    3.267068    1.402551
    138          1           0        7.398596    5.840384   -0.435335
    139          1           0        7.898381    5.058658   -1.941449
    140          1           0        8.962009    6.201361   -1.099703
 ---------------------------------------------------------------------

 SCF Done:  E(RB-LYP) =  -3007.36553018     A.U. after   22 cycles

 Excitation energies and oscillator strengths:

 Excited State   1:      Singlet-A      1.7015 eV  728.67 nm  f=0.0112  <S**2>=0.000
     244 -> 247        0.68738
     245 -> 247       -0.10045
     246 -> 247       -0.12750
 This state for optimization and/or second-order correction.
 Total Energy, E(TD-HF/TD-DFT) =  -3007.30300090
 Copying the excited state density for this state as the 1-particle RhoCI density.

 Excited State   2:      Singlet-A      1.7543 eV  706.76 nm  f=0.2688  <S**2>=0.000
     244 -> 247        0.13063
     245 -> 248        0.19219
     246 -> 247        0.67817
     246 <- 247       -0.15138

 Excited State   3:      Singlet-A      1.9365 eV  640.23 nm  f=0.0204  <S**2>=0.000
     243 -> 247        0.55122
     245 -> 247       -0.40535
     246 -> 248        0.15003

 Excited State   4:      Singlet-A      2.0086 eV  617.28 nm  f=0.0319  <S**2>=0.000
     243 -> 247        0.43873
     245 -> 247        0.48119
     246 -> 248       -0.24509

 Excited State   5:      Singlet-A      2.2912 eV  541.13 nm  f=0.0005  <S**2>=0.000
     241 -> 247        0.70338

 The electronic state is 1-A.
 Alpha  occ. eigenvalues --  -46.27007 -18.82857 -18.80992 -18.77586 -18.75964
 Alpha  occ. eigenvalues --  -18.75941 -18.75179 -14.03527 -14.03470 -14.01177
 Alpha  occ. eigenvalues --  -14.01037 -10.04836 -10.03121 -10.00189  -9.99550
 Alpha  occ. eigenvalues --   -9.98039  -9.97427  -9.97172  -9.97151  -9.96958
 Alpha  occ. eigenvalues --   -9.96904  -9.96197  -9.95225  -9.95121  -9.95104
 Alpha  occ. eigenvalues --   -9.94393  -9.94290  -9.94228  -9.94139  -9.94111
 Alpha  occ. eigenvalues --   -9.94001  -9.93956  -9.93883  -9.93739  -9.93683
 Alpha  occ. eigenvalues --   -9.93474  -9.93426  -9.93198  -9.93158  -9.93155
 Alpha  occ. eigenvalues --   -9.93109  -9.92947  -9.92844  -9.92598  -9.92543
 Alpha  occ. eigenvalues --   -9.92295  -9.92208  -9.91983  -9.91975  -9.91974
 Alpha  occ. eigenvalues --   -9.91753  -9.91671  -9.91635  -9.91628  -9.91587
 Alpha  occ. eigenvalues --   -9.91542  -9.91350  -9.91034  -9.90892  -9.90870
 Alpha  occ. eigenvalues --   -9.90770  -9.90713  -9.90646  -9.90643  -9.90519
 Alpha  occ. eigenvalues --   -9.90431  -2.91572  -1.72002  -1.71445  -1.71293
 Alpha  occ. eigenvalues --   -0.98219  -0.97752  -0.90959  -0.90119  -0.90099
 Alpha  occ. eigenvalues --   -0.89638  -0.85838  -0.84842  -0.84459  -0.83684
 Alpha  occ. eigenvalues --   -0.74805  -0.73289  -0.72736  -0.72602  -0.72216
 Alpha  occ. eigenvalues --   -0.71856  -0.71693  -0.70969  -0.70428  -0.70018
 Alpha  occ. eigenvalues --   -0.69469  -0.69252  -0.68189  -0.67869  -0.67420
 Alpha  occ. eigenvalues --   -0.66313  -0.65780  -0.65213  -0.64973  -0.64448
 Alpha  occ. eigenvalues --   -0.63769  -0.62657  -0.62382  -0.61610  -0.60432
 Alpha  occ. eigenvalues --   -0.60086  -0.59696  -0.59566  -0.59318  -0.58743
 Alpha  occ. eigenvalues --   -0.58007  -0.57417  -0.57102  -0.55801  -0.54767
 Alpha  occ. eigenvalues --   -0.54305  -0.53741  -0.52689  -0.52464  -0.51393
 Alpha  occ. eigenvalues --   -0.51270  -0.51089  -0.50717  -0.50316  -0.50077
 Alpha  occ. eigenvalues --   -0.49639  -0.48667  -0.48342  -0.48020  -0.46325
 Alpha  occ. eigenvalues --   -0.46079  -0.45672  -0.45391  -0.45288  -0.45064
 Alpha  occ. eigenvalues --   -0.44145  -0.43648  -0.42889  -0.42694  -0.42397
 Alpha  occ. eigenvalues --   -0.42203  -0.41890  -0.41468  -0.41189  -0.40683
 Alpha  occ. eigenvalues --   -0.40626  -0.40256  -0.40097  -0.39866  -0.39682
 Alpha  occ. eigenvalues --   -0.39644  -0.39491  -0.39226  -0.39109  -0.39027
 Alpha  occ. eigenvalues --   -0.38852  -0.38758  -0.38560  -0.38400  -0.38381
 Alpha  occ. eigenvalues --   -0.38081  -0.37944  -0.37623  -0.37371  -0.37084
 Alpha  occ. eigenvalues --   -0.36967  -0.36565  -0.36415  -0.36378  -0.36168
 Alpha  occ. eigenvalues --   -0.35931  -0.35823  -0.35796  -0.35710  -0.35564
 Alpha  occ. eigenvalues --   -0.35502  -0.35265  -0.35126  -0.35009  -0.34664
 Alpha  occ. eigenvalues --   -0.34525  -0.34219  -0.34028  -0.33974  -0.33890
 Alpha  occ. eigenvalues --   -0.33844  -0.33479  -0.33406  -0.33321  -0.33032
 Alpha  occ. eigenvalues --   -0.32933  -0.32853  -0.32722  -0.32608  -0.32453
 Alpha  occ. eigenvalues --   -0.31926  -0.31798  -0.31579  -0.31460  -0.31388
 Alpha  occ. eigenvalues --   -0.31169  -0.31030  -0.30983  -0.30910  -0.30488
 Alpha  occ. eigenvalues --   -0.30379  -0.30355  -0.30152  -0.30029  -0.29820
 Alpha  occ. eigenvalues --   -0.29472  -0.29370  -0.29259  -0.28801  -0.28605
 Alpha  occ. eigenvalues --   -0.28516  -0.28443  -0.28246  -0.28182  -0.27841
 Alpha  occ. eigenvalues --   -0.27738  -0.27326  -0.26714  -0.26235  -0.26197
 Alpha  occ. eigenvalues --   -0.25723  -0.25518  -0.25369  -0.25328  -0.25030
 Alpha  occ. eigenvalues --   -0.24899  -0.24338  -0.24242  -0.24212  -0.23697
 Alpha  occ. eigenvalues --   -0.23418  -0.22755  -0.22284  -0.21520  -0.20802
 Alpha  occ. eigenvalues --   -0.20166  -0.20067  -0.18835  -0.17943  -0.17581
 Alpha  occ. eigenvalues --   -0.15841
 Alpha virt. eigenvalues --   -0.11747  -0.07533  -0.06427  -0.05030  -0.03958
 Alpha virt. eigenvalues --   -0.02802  -0.02280  -0.02142  -0.00942  -0.00380
 Alpha virt. eigenvalues --    0.01294   0.01651   0.02279   0.02982   0.03037

 Mulliken charges:
               1
     1  Mg   0.681717
     2  C    0.015306
     3  C   -0.083708
     4  C   -0.064079
     5  C   -0.073017
     6  N   -0.223661
     7  C   -0.102203
     8  C    0.077371
     9  C   -0.047555
    10  C    0.034216
    11  C    0.156779
    12  C    0.054543
    13  C    0.131360
    14  C    0.090595
    15  O   -0.205081
    16  O   -0.257410
    17  N   -0.347296
    18  C    0.201829
    19  C   -0.170317
    20  C    0.051181
    21  C    0.140063
    22  C    0.201452
    23  C   -0.082068
    24  O   -0.193573
    25  C    0.132734
    26  N   -0.258664
    27  C    0.039828
    28  C    0.026630
    29  C    0.011976
    30  C    0.033595
    31  C    0.133754
    32  C    0.104068
    33  C    0.075216
    34  N   -0.257699
    35  C    0.120853
    36  C   -0.194075
    37  C    0.091985
    38  C    0.073964
    39  C    0.184172
    40  C   -0.089503
    41  O   -0.140190
    42  C    0.066829
    43  C    0.125025
    44  O   -0.163104
    45  O   -0.256542
    46  C    0.191316
    47  C    0.318663
    48  C   -0.101141
    49  C   -0.142793
    50  C    0.141355
    51  C    0.136276
    52  C    0.064712
    53  C    0.096404
    54  C   -0.068278
    55  C    0.108999
    56  C    0.112441
    57  C    0.080028
    58  C    0.069809
    59  C   -0.053209
    60  C    0.110374
    61  C    0.112211
    62  C    0.044563
    63  C    0.055890
    64  C   -0.083980
    65  C    0.111902
    66  C    0.090404
    67  H   -0.062712
    68  H   -0.077685
    69  H   -0.066561
    70  H   -0.032265
    71  H   -0.023616
    72  H   -0.013896
    73  H    0.009578
    74  H   -0.008900
    75  H   -0.006780
    76  H    0.004787
    77  H    0.003564
    78  H   -0.002144
    79  H    0.008060
    80  H    0.004727
    81  H   -0.005001
    82  H    0.026946
    83  H   -0.004952
    84  H   -0.004934
    85  H   -0.023573
    86  H   -0.030796
    87  H   -0.020371
    88  H   -0.002322
    89  H   -0.003167
    90  H   -0.023276
    91  H   -0.025865
    92  H   -0.002618
    93  H   -0.009094
    94  H   -0.006697
    95  H    0.022402
    96  H    0.013012
    97  H    0.012430
    98  H   -0.007931
    99  H    0.014577
   100  H    0.030977
   101  H    0.021535
   102  H    0.003702
   103  H   -0.026009
   104  H   -0.041081
   105  H    0.021047
   106  H    0.000490
   107  H   -0.019045
   108  H   -0.020998
   109  H   -0.034192
   110  H   -0.029031
   111  H   -0.033989
   112  H   -0.041039
   113  H   -0.038862
   114  H   -0.028692
   115  H   -0.023323
   116  H   -0.011336
   117  H   -0.014461
   118  H   -0.014780
   119  H   -0.037099
   120  H   -0.026146
   121  H   -0.025138
   122  H   -0.044425
   123  H   -0.045517
   124  H   -0.041265
   125  H   -0.022804
   126  H   -0.013183
   127  H   -0.030027
   128  H   -0.048653
   129  H   -0.033379
   130  H   -0.030673
   131  H   -0.037160
   132  H   -0.017893
   133  H   -0.030632
   134  H   -0.031304
   135  H   -0.022739
   136  H   -0.016286
   137  H   -0.007777
   138  H   -0.009136
   139  H   -0.012781
   140  H   -0.015061
 Sum of Mulliken charges =  -0.00000

 Dipole moment (field-independent basis, Debye):
    X=              1.0564    Y=              2.3188    Z=             -1.1331  Tot=              2.7887
 Quadrupole moment (field-independent basis, Debye-Ang):
   XX=           -415.4143   YY=           -399.8624   ZZ=           -396.6105
   XY=            -43.0733   XZ=            -10.9636   YZ=            -28.1136

 Normal termination of Gaussian 16 at Thu Apr 28 10:20:35 2022.
