 Gaussian 16, Revision A.03,
 Gaussian 16:  ES64L-G16RevA.03 25-Dec-2016

 -----------------------------------
 #p cam-b3lyp/Def2SVP td=(nstates=5)
 -----------------------------------

 -------------------------------------------------------
 step_151_chromophore_20 TDDFT with cam-b3lyp functional
 -------------------------------------------------------
 Symbolic Z-matrix:
 Charge =  0 Multiplicity = 1

                         Standard orientation:
 ---------------------------------------------------------------------
 Center     Atomic      Atomic             Coordinates (Angstroms)
 Number     Number       Type             X           Y           Z
 ---------------------------------------------------------------------
      1         12           0       -3.701504    1.703643    0.710654
      2          6           0       -4.852603   -1.653809    0.598837
      3          6           0       -1.618921    0.899709    3.316112
      4          6           0       -2.312339    4.759747    0.391340
      5          6           0       -5.934951    2.326816   -2.058228
      6          7           0       -3.286551   -0.209677    1.756800
      7          6           0       -3.819561   -1.447654    1.538849
      8          6           0       -3.154054   -2.476470    2.410236
      9          6           0       -2.441160   -1.599623    3.483463
     10          6           0       -2.443162   -0.178892    2.859689
     11          6           0       -3.058869   -1.651070    4.918051
     12          6           0       -2.299486   -3.566535    1.660181
     13          6           0       -1.089710   -4.155019    2.405189
     14          6           0       -0.419303   -5.314139    1.637570
     15          8           0       -1.060230   -6.274272    1.195955
     16          8           0        0.934545   -5.100435    1.388325
     17          7           0       -2.156319    2.623246    1.665727
     18          6           0       -1.472800    2.127812    2.735591
     19          6           0       -0.495592    3.074190    3.181102
     20          6           0       -0.694468    4.281904    2.378685
     21          6           0       -1.720833    3.976114    1.409667
     22          6           0        0.679034    2.650029    3.990889
     23          6           0        0.152424    5.541044    2.541873
     24          8           0        0.976401    5.641680    3.470963
     25          6           0        0.021919    6.848514    1.690273
     26          7           0       -3.885251    3.233865   -0.819876
     27          6           0       -3.293429    4.472433   -0.633336
     28          6           0       -3.857395    5.409923   -1.676954
     29          6           0       -4.855188    4.639373   -2.595395
     30          6           0       -4.952031    3.316904   -1.774540
     31          6           0       -4.392169    6.712539   -1.084655
     32          6           0       -4.375300    4.460012   -4.053699
     33          6           0       -5.490093    4.298226   -5.065714
     34          7           0       -5.136043    0.672205   -0.474765
     35          6           0       -5.967855    1.044647   -1.592514
     36          6           0       -6.900990   -0.028488   -1.915681
     37          6           0       -6.478241   -1.097861   -1.117456
     38          6           0       -5.414076   -0.606080   -0.243686
     39          6           0       -8.019210    0.184801   -2.947395
     40          6           0       -6.812639   -2.450764   -0.752642
     41          8           0       -7.748453   -3.161796   -1.116797
     42          6           0       -5.640218   -2.916283    0.215074
     43          6           0       -4.880294   -3.834102   -0.654597
     44          8           0       -4.228245   -3.641235   -1.649764
     45          8           0       -5.006931   -5.046765   -0.090599
     46          6           0       -4.492544   -6.189904   -0.832194
     47          6           0        1.616465   -6.255658    0.832196
     48          6           0        2.840160   -5.723724    0.036487
     49          6           0        3.103780   -5.403804   -1.265707
     50          6           0        2.049676   -5.449079   -2.290832
     51          6           0        4.509471   -4.856839   -1.716085
     52          6           0        4.542045   -3.397635   -2.259023
     53          6           0        5.969462   -2.845070   -2.516957
     54          6           0        6.364995   -1.643541   -1.565560
     55          6           0        5.561216   -0.413952   -2.005187
     56          6           0        7.822830   -1.327978   -1.606447
     57          6           0        8.686243   -2.149408   -0.577892
     58          6           0        9.517652   -1.152900    0.331541
     59          6           0       10.645595   -0.339539   -0.392224
     60          6           0       11.997187   -1.098780   -0.421799
     61          6           0       10.678565    1.229577   -0.097739
     62          6           0       10.308128    2.155988   -1.216919
     63          6           0        8.930299    2.887422   -0.898809
     64          6           0        9.052696    4.255755   -0.166380
     65          6           0        8.623778    4.185092    1.314174
     66          6           0        8.241398    5.394189   -0.962657
     67          1           0       -1.017223    0.617732    4.182363
     68          1           0       -2.057216    5.819672    0.455068
     69          1           0       -6.696317    2.575411   -2.799820
     70          1           0       -4.011483   -3.039160    2.778972
     71          1           0       -1.397135   -1.889313    3.603533
     72          1           0       -3.711451   -0.781544    4.992634
     73          1           0       -2.248309   -1.570819    5.643235
     74          1           0       -3.733396   -2.506351    4.874686
     75          1           0       -1.967463   -3.252959    0.670262
     76          1           0       -2.899814   -4.456421    1.468861
     77          1           0       -1.356431   -4.503053    3.403839
     78          1           0       -0.358586   -3.348741    2.466594
     79          1           0        1.457300    3.400580    3.857961
     80          1           0        0.996533    1.628580    3.780790
     81          1           0        0.308673    2.750005    5.011455
     82          1           0       -0.946799    7.302072    1.900611
     83          1           0        0.080697    6.455187    0.674853
     84          1           0        0.852606    7.553081    1.723677
     85          1           0       -2.993946    5.698360   -2.276047
     86          1           0       -5.853369    5.075596   -2.642919
     87          1           0       -3.953336    7.419058   -1.789271
     88          1           0       -3.968468    6.951407   -0.109041
     89          1           0       -5.473402    6.806347   -1.180660
     90          1           0       -3.678752    3.621842   -4.018635
     91          1           0       -3.724780    5.263089   -4.397597
     92          1           0       -5.574337    5.207787   -5.661216
     93          1           0       -6.461432    4.046171   -4.639667
     94          1           0       -5.283373    3.446129   -5.712687
     95          1           0       -7.502443    0.010284   -3.891130
     96          1           0       -8.407158    1.184085   -2.746604
     97          1           0       -8.765008   -0.582034   -2.736508
     98          1           0       -6.170094   -3.300830    1.086881
     99          1           0       -5.336810   -6.880608   -0.839667
    100          1           0       -3.627013   -6.557385   -0.281740
    101          1           0       -4.216298   -5.987687   -1.866181
    102          1           0        1.056417   -7.010183    0.280759
    103          1           0        1.973662   -6.815098    1.696831
    104          1           0        3.721726   -5.767512    0.675200
    105          1           0        1.167390   -4.917185   -1.934002
    106          1           0        1.746893   -6.461737   -2.559228
    107          1           0        2.464062   -5.053843   -3.217838
    108          1           0        4.881243   -5.602605   -2.418770
    109          1           0        5.274130   -4.848711   -0.940479
    110          1           0        4.024399   -2.698219   -1.602741
    111          1           0        3.882979   -3.324976   -3.124403
    112          1           0        5.904319   -2.555759   -3.565985
    113          1           0        6.771577   -3.577283   -2.604765
    114          1           0        6.042950   -1.898818   -0.555575
    115          1           0        4.909544   -0.750119   -2.811698
    116          1           0        6.114140    0.442492   -2.391660
    117          1           0        4.942447   -0.088665   -1.169085
    118          1           0        7.993054   -0.253451   -1.542575
    119          1           0        8.247671   -1.596795   -2.573361
    120          1           0        9.378139   -2.864985   -1.022264
    121          1           0        8.098060   -2.715893    0.144841
    122          1           0        9.976227   -1.684377    1.164940
    123          1           0        8.917523   -0.389834    0.827425
    124          1           0       10.248069   -0.298129   -1.405815
    125          1           0       12.002968   -1.679736   -1.343808
    126          1           0       12.331408   -1.777328    0.364056
    127          1           0       12.849469   -0.427515   -0.522599
    128          1           0       11.675502    1.574791    0.176757
    129          1           0       10.092518    1.401910    0.804869
    130          1           0       10.239060    1.739277   -2.221922
    131          1           0       11.030456    2.964361   -1.331148
    132          1           0        8.378916    2.195794   -0.261668
    133          1           0        8.490831    2.893553   -1.895991
    134          1           0       10.105337    4.485322   -0.003504
    135          1           0        8.069650    5.096192    1.538252
    136          1           0        9.529371    4.254436    1.917294
    137          1           0        8.042077    3.267068    1.402551
    138          1           0        7.398596    5.840384   -0.435335
    139          1           0        7.898381    5.058658   -1.941449
    140          1           0        8.962009    6.201361   -1.099703
 ---------------------------------------------------------------------

 SCF Done:  E(RCAM-B3LYP) =  -3007.14209063     A.U. after   19 cycles

 Excitation energies and oscillator strengths:

 Excited State   1:      Singlet-A      1.6420 eV  755.09 nm  f=0.3493  <S**2>=0.000
     245 -> 248       -0.18412
     246 -> 247        0.68473
     245 <- 248       -0.11129
 This state for optimization and/or second-order correction.
 Total Energy, E(TD-HF/TD-DFT) =  -3007.08174915
 Copying the excited state density for this state as the 1-particle RhoCI density.

 Excited State   2:      Singlet-A      2.2129 eV  560.28 nm  f=0.0516  <S**2>=0.000
     245 -> 247        0.60913
     246 -> 248        0.34812

 Excited State   3:      Singlet-A      3.2429 eV  382.33 nm  f=0.0420  <S**2>=0.000
     244 -> 247        0.64424
     246 -> 248        0.23013

 Excited State   4:      Singlet-A      3.3718 eV  367.71 nm  f=0.3496  <S**2>=0.000
     240 -> 247        0.14968
     241 -> 247        0.32429
     241 -> 248        0.10050
     241 -> 249        0.20503
     241 -> 250       -0.14415
     242 -> 247        0.13239
     244 -> 247       -0.12539
     245 -> 247       -0.23746
     246 -> 248        0.42546

 Excited State   5:      Singlet-A      3.3931 eV  365.40 nm  f=0.1758  <S**2>=0.000
     240 -> 249        0.12806
     241 -> 247        0.37936
     241 -> 248        0.11227
     241 -> 249        0.20371
     241 -> 250       -0.16904
     242 -> 247       -0.29464
     244 -> 247        0.15724
     245 -> 247        0.17074
     246 -> 248       -0.29431

 The electronic state is 1-A.
 Alpha  occ. eigenvalues --  -46.88591 -19.25695 -19.23855 -19.20569 -19.18989
 Alpha  occ. eigenvalues --  -19.18972 -19.18551 -14.42595 -14.42305 -14.39738
 Alpha  occ. eigenvalues --  -14.39478 -10.40228 -10.38444 -10.35592 -10.34817
 Alpha  occ. eigenvalues --  -10.32097 -10.32082 -10.31957 -10.31613 -10.31457
 Alpha  occ. eigenvalues --  -10.31432 -10.30094 -10.29637 -10.29444 -10.29244
 Alpha  occ. eigenvalues --  -10.28511 -10.28435 -10.28425 -10.28328 -10.28304
 Alpha  occ. eigenvalues --  -10.28240 -10.28204 -10.28141 -10.28065 -10.28046
 Alpha  occ. eigenvalues --  -10.27887 -10.27560 -10.27333 -10.27256 -10.27128
 Alpha  occ. eigenvalues --  -10.26807 -10.26720 -10.26546 -10.26468 -10.26318
 Alpha  occ. eigenvalues --  -10.26267 -10.25770 -10.25735 -10.25643 -10.25621
 Alpha  occ. eigenvalues --  -10.25537 -10.25529 -10.25451 -10.25321 -10.25296
 Alpha  occ. eigenvalues --  -10.25239 -10.25190 -10.24665 -10.24604 -10.24516
 Alpha  occ. eigenvalues --  -10.24440 -10.24433 -10.24321 -10.24234 -10.24053
 Alpha  occ. eigenvalues --  -10.24038  -3.17057  -1.91964  -1.91497  -1.91371
 Alpha  occ. eigenvalues --   -1.16780  -1.16147  -1.09211  -1.08622  -1.07943
 Alpha  occ. eigenvalues --   -1.07546  -1.03567  -1.02371  -1.02145  -1.01215
 Alpha  occ. eigenvalues --   -0.91862  -0.90088  -0.89519  -0.89291  -0.88959
 Alpha  occ. eigenvalues --   -0.88578  -0.88370  -0.87519  -0.86967  -0.86550
 Alpha  occ. eigenvalues --   -0.86127  -0.85695  -0.84387  -0.84072  -0.83616
 Alpha  occ. eigenvalues --   -0.82356  -0.81811  -0.81146  -0.80809  -0.80441
 Alpha  occ. eigenvalues --   -0.79538  -0.78275  -0.77993  -0.77253  -0.75810
 Alpha  occ. eigenvalues --   -0.75361  -0.75051  -0.74849  -0.74588  -0.73998
 Alpha  occ. eigenvalues --   -0.73029  -0.72415  -0.72067  -0.70653  -0.69323
 Alpha  occ. eigenvalues --   -0.68953  -0.68421  -0.67174  -0.66840  -0.65447
 Alpha  occ. eigenvalues --   -0.65409  -0.65332  -0.64797  -0.64220  -0.64075
 Alpha  occ. eigenvalues --   -0.63377  -0.62601  -0.62181  -0.61735  -0.59980
 Alpha  occ. eigenvalues --   -0.59682  -0.59124  -0.58880  -0.58812  -0.58499
 Alpha  occ. eigenvalues --   -0.57522  -0.57020  -0.56095  -0.55946  -0.55549
 Alpha  occ. eigenvalues --   -0.55295  -0.54707  -0.54487  -0.54085  -0.53698
 Alpha  occ. eigenvalues --   -0.53402  -0.53044  -0.52835  -0.52678  -0.52636
 Alpha  occ. eigenvalues --   -0.52249  -0.52073  -0.51947  -0.51671  -0.51441
 Alpha  occ. eigenvalues --   -0.51273  -0.51093  -0.50909  -0.50882  -0.50856
 Alpha  occ. eigenvalues --   -0.50686  -0.50302  -0.50036  -0.49633  -0.49431
 Alpha  occ. eigenvalues --   -0.49301  -0.49185  -0.49082  -0.48559  -0.48354
 Alpha  occ. eigenvalues --   -0.48224  -0.47912  -0.47834  -0.47787  -0.47611
 Alpha  occ. eigenvalues --   -0.47524  -0.47332  -0.47102  -0.47006  -0.46694
 Alpha  occ. eigenvalues --   -0.46547  -0.46313  -0.46116  -0.45834  -0.45617
 Alpha  occ. eigenvalues --   -0.45591  -0.45294  -0.45155  -0.45062  -0.44847
 Alpha  occ. eigenvalues --   -0.44680  -0.44501  -0.44407  -0.44303  -0.44055
 Alpha  occ. eigenvalues --   -0.43678  -0.43521  -0.43309  -0.43084  -0.42835
 Alpha  occ. eigenvalues --   -0.42773  -0.42407  -0.42374  -0.42185  -0.42059
 Alpha  occ. eigenvalues --   -0.41874  -0.41687  -0.41600  -0.41244  -0.40980
 Alpha  occ. eigenvalues --   -0.40862  -0.40745  -0.40458  -0.40139  -0.39816
 Alpha  occ. eigenvalues --   -0.39637  -0.39409  -0.39332  -0.39200  -0.38745
 Alpha  occ. eigenvalues --   -0.38612  -0.38152  -0.37736  -0.37255  -0.36947
 Alpha  occ. eigenvalues --   -0.36672  -0.36412  -0.36211  -0.36055  -0.35923
 Alpha  occ. eigenvalues --   -0.35710  -0.35441  -0.34840  -0.34802  -0.34477
 Alpha  occ. eigenvalues --   -0.34232  -0.34159  -0.33703  -0.31100  -0.30510
 Alpha  occ. eigenvalues --   -0.30378  -0.30000  -0.29800  -0.29464  -0.24482
 Alpha  occ. eigenvalues --   -0.21011
 Alpha virt. eigenvalues --   -0.08819  -0.02608   0.00039   0.01925   0.02657
 Alpha virt. eigenvalues --    0.03858   0.04757   0.05079   0.06299   0.06905
 Alpha virt. eigenvalues --    0.07643   0.08634   0.08886   0.09032   0.09181

 Mulliken charges:
               1
     1  Mg   0.813833
     2  C   -0.019557
     3  C   -0.102162
     4  C   -0.082156
     5  C   -0.080542
     6  N   -0.297471
     7  C   -0.051790
     8  C    0.028190
     9  C   -0.106325
    10  C    0.058526
    11  C    0.100015
    12  C    0.005214
    13  C    0.058347
    14  C    0.174979
    15  O   -0.247477
    16  O   -0.321696
    17  N   -0.436463
    18  C    0.208447
    19  C   -0.156069
    20  C   -0.021828
    21  C    0.166671
    22  C    0.128922
    23  C   -0.008591
    24  O   -0.232443
    25  C    0.058133
    26  N   -0.322462
    27  C    0.063341
    28  C   -0.033003
    29  C   -0.038592
    30  C    0.047299
    31  C    0.073198
    32  C    0.049231
    33  C    0.011004
    34  N   -0.342039
    35  C    0.117348
    36  C   -0.182571
    37  C    0.013251
    38  C    0.113613
    39  C    0.133774
    40  C    0.004652
    41  O   -0.180660
    42  C   -0.011285
    43  C    0.213369
    44  O   -0.201237
    45  O   -0.318709
    46  C    0.155579
    47  C    0.285853
    48  C   -0.125142
    49  C   -0.163083
    50  C    0.075023
    51  C    0.083841
    52  C    0.011605
    53  C    0.037655
    54  C   -0.121471
    55  C    0.049543
    56  C    0.058110
    57  C    0.029164
    58  C    0.022048
    59  C   -0.113765
    60  C    0.053753
    61  C    0.060357
    62  C   -0.011789
    63  C    0.006602
    64  C   -0.142308
    65  C    0.054599
    66  C    0.032034
    67  H   -0.025004
    68  H   -0.043599
    69  H   -0.031665
    70  H    0.004221
    71  H    0.010471
    72  H    0.012776
    73  H    0.032512
    74  H    0.016227
    75  H    0.024528
    76  H    0.034049
    77  H    0.034180
    78  H    0.031682
    79  H    0.040761
    80  H    0.032398
    81  H    0.022702
    82  H    0.051513
    83  H    0.021425
    84  H    0.030716
    85  H    0.011706
    86  H    0.003853
    87  H    0.004773
    88  H    0.021122
    89  H    0.022256
    90  H    0.006995
    91  H    0.002587
    92  H    0.021233
    93  H    0.010458
    94  H    0.018331
    95  H    0.048248
    96  H    0.034855
    97  H    0.040142
    98  H    0.037709
    99  H    0.036785
   100  H    0.050503
   101  H    0.047483
   102  H    0.035475
   103  H    0.003776
   104  H   -0.010656
   105  H    0.045105
   106  H    0.026222
   107  H    0.005732
   108  H    0.007154
   109  H   -0.005392
   110  H    0.000322
   111  H   -0.006661
   112  H   -0.010246
   113  H   -0.009741
   114  H    0.002278
   115  H    0.000591
   116  H    0.012412
   117  H    0.010006
   118  H    0.007522
   119  H   -0.007889
   120  H    0.000834
   121  H    0.002441
   122  H   -0.015085
   123  H   -0.017699
   124  H   -0.010377
   125  H    0.000625
   126  H    0.010658
   127  H   -0.004800
   128  H   -0.017408
   129  H   -0.006569
   130  H   -0.001279
   131  H   -0.007208
   132  H    0.003055
   133  H   -0.002726
   134  H   -0.000384
   135  H    0.002240
   136  H    0.007211
   137  H    0.014160
   138  H    0.013620
   139  H    0.010722
   140  H    0.008594
 Sum of Mulliken charges =  -0.00000

 Dipole moment (field-independent basis, Debye):
    X=              1.3549    Y=              2.8006    Z=             -0.8424  Tot=              3.2232
 Quadrupole moment (field-independent basis, Debye-Ang):
   XX=           -416.7368   YY=           -395.3380   ZZ=           -395.2840
   XY=            -44.0304   XZ=            -11.0961   YZ=            -29.0972

 Normal termination of Gaussian 16 at Thu Apr 28 09:23:04 2022.
