 Gaussian 16, Revision A.03,
 Gaussian 16:  ES64L-G16RevA.03 25-Dec-2016

 ---------------------------------
 #p PBE1PBE/Def2SVP td=(nstates=5)
 ---------------------------------

 -----------------------------------------------------
 step_151_chromophore_20 TDDFT with PBE1PBE functional
 -----------------------------------------------------
 Symbolic Z-matrix:
 Charge =  0 Multiplicity = 1

                         Standard orientation:
 ---------------------------------------------------------------------
 Center     Atomic      Atomic             Coordinates (Angstroms)
 Number     Number       Type             X           Y           Z
 ---------------------------------------------------------------------
      1         12           0       -3.701504    1.703643    0.710654
      2          6           0       -4.852603   -1.653809    0.598837
      3          6           0       -1.618921    0.899709    3.316112
      4          6           0       -2.312339    4.759747    0.391340
      5          6           0       -5.934951    2.326816   -2.058228
      6          7           0       -3.286551   -0.209677    1.756800
      7          6           0       -3.819561   -1.447654    1.538849
      8          6           0       -3.154054   -2.476470    2.410236
      9          6           0       -2.441160   -1.599623    3.483463
     10          6           0       -2.443162   -0.178892    2.859689
     11          6           0       -3.058869   -1.651070    4.918051
     12          6           0       -2.299486   -3.566535    1.660181
     13          6           0       -1.089710   -4.155019    2.405189
     14          6           0       -0.419303   -5.314139    1.637570
     15          8           0       -1.060230   -6.274272    1.195955
     16          8           0        0.934545   -5.100435    1.388325
     17          7           0       -2.156319    2.623246    1.665727
     18          6           0       -1.472800    2.127812    2.735591
     19          6           0       -0.495592    3.074190    3.181102
     20          6           0       -0.694468    4.281904    2.378685
     21          6           0       -1.720833    3.976114    1.409667
     22          6           0        0.679034    2.650029    3.990889
     23          6           0        0.152424    5.541044    2.541873
     24          8           0        0.976401    5.641680    3.470963
     25          6           0        0.021919    6.848514    1.690273
     26          7           0       -3.885251    3.233865   -0.819876
     27          6           0       -3.293429    4.472433   -0.633336
     28          6           0       -3.857395    5.409923   -1.676954
     29          6           0       -4.855188    4.639373   -2.595395
     30          6           0       -4.952031    3.316904   -1.774540
     31          6           0       -4.392169    6.712539   -1.084655
     32          6           0       -4.375300    4.460012   -4.053699
     33          6           0       -5.490093    4.298226   -5.065714
     34          7           0       -5.136043    0.672205   -0.474765
     35          6           0       -5.967855    1.044647   -1.592514
     36          6           0       -6.900990   -0.028488   -1.915681
     37          6           0       -6.478241   -1.097861   -1.117456
     38          6           0       -5.414076   -0.606080   -0.243686
     39          6           0       -8.019210    0.184801   -2.947395
     40          6           0       -6.812639   -2.450764   -0.752642
     41          8           0       -7.748453   -3.161796   -1.116797
     42          6           0       -5.640218   -2.916283    0.215074
     43          6           0       -4.880294   -3.834102   -0.654597
     44          8           0       -4.228245   -3.641235   -1.649764
     45          8           0       -5.006931   -5.046765   -0.090599
     46          6           0       -4.492544   -6.189904   -0.832194
     47          6           0        1.616465   -6.255658    0.832196
     48          6           0        2.840160   -5.723724    0.036487
     49          6           0        3.103780   -5.403804   -1.265707
     50          6           0        2.049676   -5.449079   -2.290832
     51          6           0        4.509471   -4.856839   -1.716085
     52          6           0        4.542045   -3.397635   -2.259023
     53          6           0        5.969462   -2.845070   -2.516957
     54          6           0        6.364995   -1.643541   -1.565560
     55          6           0        5.561216   -0.413952   -2.005187
     56          6           0        7.822830   -1.327978   -1.606447
     57          6           0        8.686243   -2.149408   -0.577892
     58          6           0        9.517652   -1.152900    0.331541
     59          6           0       10.645595   -0.339539   -0.392224
     60          6           0       11.997187   -1.098780   -0.421799
     61          6           0       10.678565    1.229577   -0.097739
     62          6           0       10.308128    2.155988   -1.216919
     63          6           0        8.930299    2.887422   -0.898809
     64          6           0        9.052696    4.255755   -0.166380
     65          6           0        8.623778    4.185092    1.314174
     66          6           0        8.241398    5.394189   -0.962657
     67          1           0       -1.017223    0.617732    4.182363
     68          1           0       -2.057216    5.819672    0.455068
     69          1           0       -6.696317    2.575411   -2.799820
     70          1           0       -4.011483   -3.039160    2.778972
     71          1           0       -1.397135   -1.889313    3.603533
     72          1           0       -3.711451   -0.781544    4.992634
     73          1           0       -2.248309   -1.570819    5.643235
     74          1           0       -3.733396   -2.506351    4.874686
     75          1           0       -1.967463   -3.252959    0.670262
     76          1           0       -2.899814   -4.456421    1.468861
     77          1           0       -1.356431   -4.503053    3.403839
     78          1           0       -0.358586   -3.348741    2.466594
     79          1           0        1.457300    3.400580    3.857961
     80          1           0        0.996533    1.628580    3.780790
     81          1           0        0.308673    2.750005    5.011455
     82          1           0       -0.946799    7.302072    1.900611
     83          1           0        0.080697    6.455187    0.674853
     84          1           0        0.852606    7.553081    1.723677
     85          1           0       -2.993946    5.698360   -2.276047
     86          1           0       -5.853369    5.075596   -2.642919
     87          1           0       -3.953336    7.419058   -1.789271
     88          1           0       -3.968468    6.951407   -0.109041
     89          1           0       -5.473402    6.806347   -1.180660
     90          1           0       -3.678752    3.621842   -4.018635
     91          1           0       -3.724780    5.263089   -4.397597
     92          1           0       -5.574337    5.207787   -5.661216
     93          1           0       -6.461432    4.046171   -4.639667
     94          1           0       -5.283373    3.446129   -5.712687
     95          1           0       -7.502443    0.010284   -3.891130
     96          1           0       -8.407158    1.184085   -2.746604
     97          1           0       -8.765008   -0.582034   -2.736508
     98          1           0       -6.170094   -3.300830    1.086881
     99          1           0       -5.336810   -6.880608   -0.839667
    100          1           0       -3.627013   -6.557385   -0.281740
    101          1           0       -4.216298   -5.987687   -1.866181
    102          1           0        1.056417   -7.010183    0.280759
    103          1           0        1.973662   -6.815098    1.696831
    104          1           0        3.721726   -5.767512    0.675200
    105          1           0        1.167390   -4.917185   -1.934002
    106          1           0        1.746893   -6.461737   -2.559228
    107          1           0        2.464062   -5.053843   -3.217838
    108          1           0        4.881243   -5.602605   -2.418770
    109          1           0        5.274130   -4.848711   -0.940479
    110          1           0        4.024399   -2.698219   -1.602741
    111          1           0        3.882979   -3.324976   -3.124403
    112          1           0        5.904319   -2.555759   -3.565985
    113          1           0        6.771577   -3.577283   -2.604765
    114          1           0        6.042950   -1.898818   -0.555575
    115          1           0        4.909544   -0.750119   -2.811698
    116          1           0        6.114140    0.442492   -2.391660
    117          1           0        4.942447   -0.088665   -1.169085
    118          1           0        7.993054   -0.253451   -1.542575
    119          1           0        8.247671   -1.596795   -2.573361
    120          1           0        9.378139   -2.864985   -1.022264
    121          1           0        8.098060   -2.715893    0.144841
    122          1           0        9.976227   -1.684377    1.164940
    123          1           0        8.917523   -0.389834    0.827425
    124          1           0       10.248069   -0.298129   -1.405815
    125          1           0       12.002968   -1.679736   -1.343808
    126          1           0       12.331408   -1.777328    0.364056
    127          1           0       12.849469   -0.427515   -0.522599
    128          1           0       11.675502    1.574791    0.176757
    129          1           0       10.092518    1.401910    0.804869
    130          1           0       10.239060    1.739277   -2.221922
    131          1           0       11.030456    2.964361   -1.331148
    132          1           0        8.378916    2.195794   -0.261668
    133          1           0        8.490831    2.893553   -1.895991
    134          1           0       10.105337    4.485322   -0.003504
    135          1           0        8.069650    5.096192    1.538252
    136          1           0        9.529371    4.254436    1.917294
    137          1           0        8.042077    3.267068    1.402551
    138          1           0        7.398596    5.840384   -0.435335
    139          1           0        7.898381    5.058658   -1.941449
    140          1           0        8.962009    6.201361   -1.099703
 ---------------------------------------------------------------------

 SCF Done:  E(RPBE1PBE) =  -3005.33160718     A.U. after   15 cycles

 Excitation energies and oscillator strengths:

 Excited State   1:      Singlet-A      1.7986 eV  689.34 nm  f=0.3403  <S**2>=0.000
     245 -> 248       -0.17628
     246 -> 247        0.69251
     246 <- 247       -0.10951
 This state for optimization and/or second-order correction.
 Total Energy, E(TD-HF/TD-DFT) =  -3005.26551023
 Copying the excited state density for this state as the 1-particle RhoCI density.

 Excited State   2:      Singlet-A      2.2129 eV  560.28 nm  f=0.0585  <S**2>=0.000
     245 -> 247        0.62730
     246 -> 248        0.31440

 Excited State   3:      Singlet-A      2.8495 eV  435.10 nm  f=0.0002  <S**2>=0.000
     242 -> 247        0.22761
     242 -> 249        0.10024
     244 -> 247        0.63010
     244 -> 249        0.11374

 Excited State   4:      Singlet-A      2.9402 eV  421.69 nm  f=0.0004  <S**2>=0.000
     241 -> 247       -0.31561
     242 -> 247        0.56591
     244 -> 247       -0.21456

 Excited State   5:      Singlet-A      2.9741 eV  416.88 nm  f=0.0029  <S**2>=0.000
     241 -> 247        0.58089
     241 -> 249       -0.13127
     242 -> 247        0.27203
     244 -> 247       -0.13753
     246 -> 248        0.13425

 The electronic state is 1-A.
 Alpha  occ. eigenvalues --  -46.91972 -19.26401 -19.24542 -19.20854 -19.19333
 Alpha  occ. eigenvalues --  -19.19235 -19.18690 -14.42089 -14.41885 -14.39369
 Alpha  occ. eigenvalues --  -14.39178 -10.37288 -10.35451 -10.32691 -10.32078
 Alpha  occ. eigenvalues --  -10.29776 -10.29576 -10.29486 -10.29446 -10.29203
 Alpha  occ. eigenvalues --  -10.29191 -10.27352 -10.27213 -10.27172 -10.27111
 Alpha  occ. eigenvalues --  -10.26242 -10.26240 -10.26202 -10.26103 -10.26103
 Alpha  occ. eigenvalues --  -10.26040 -10.25805 -10.25743 -10.25694 -10.25671
 Alpha  occ. eigenvalues --  -10.25636 -10.25226 -10.24923 -10.24899 -10.24741
 Alpha  occ. eigenvalues --  -10.24309 -10.24164 -10.24139 -10.23874 -10.23768
 Alpha  occ. eigenvalues --  -10.23741 -10.23423 -10.23305 -10.23246 -10.23240
 Alpha  occ. eigenvalues --  -10.23200 -10.23184 -10.23034 -10.22895 -10.22871
 Alpha  occ. eigenvalues --  -10.22838 -10.22549 -10.22211 -10.22169 -10.22025
 Alpha  occ. eigenvalues --  -10.21989 -10.21917 -10.21871 -10.21610 -10.21441
 Alpha  occ. eigenvalues --  -10.21420  -3.14021  -1.86869  -1.86380  -1.86258
 Alpha  occ. eigenvalues --   -1.11586  -1.10958  -1.04058  -1.03254  -1.02808
 Alpha  occ. eigenvalues --   -1.02395  -0.98152  -0.97058  -0.96690  -0.95816
 Alpha  occ. eigenvalues --   -0.86245  -0.84174  -0.83719  -0.83589  -0.83061
 Alpha  occ. eigenvalues --   -0.82882  -0.82478  -0.81868  -0.81328  -0.80640
 Alpha  occ. eigenvalues --   -0.80355  -0.79927  -0.78684  -0.78349  -0.77820
 Alpha  occ. eigenvalues --   -0.76531  -0.76074  -0.75367  -0.75102  -0.74656
 Alpha  occ. eigenvalues --   -0.73674  -0.72592  -0.72306  -0.71525  -0.70163
 Alpha  occ. eigenvalues --   -0.69533  -0.69205  -0.69128  -0.68701  -0.68145
 Alpha  occ. eigenvalues --   -0.67372  -0.66844  -0.66483  -0.64938  -0.63698
 Alpha  occ. eigenvalues --   -0.63157  -0.62852  -0.61613  -0.61061  -0.59909
 Alpha  occ. eigenvalues --   -0.59847  -0.59557  -0.59347  -0.58830  -0.58206
 Alpha  occ. eigenvalues --   -0.57892  -0.56772  -0.56358  -0.56329  -0.54400
 Alpha  occ. eigenvalues --   -0.54224  -0.53704  -0.53408  -0.53266  -0.53128
 Alpha  occ. eigenvalues --   -0.52143  -0.51495  -0.50605  -0.50330  -0.50025
 Alpha  occ. eigenvalues --   -0.49873  -0.49244  -0.49012  -0.48677  -0.48307
 Alpha  occ. eigenvalues --   -0.47837  -0.47632  -0.47426  -0.47216  -0.47161
 Alpha  occ. eigenvalues --   -0.46764  -0.46557  -0.46334  -0.46230  -0.45950
 Alpha  occ. eigenvalues --   -0.45844  -0.45772  -0.45571  -0.45440  -0.45373
 Alpha  occ. eigenvalues --   -0.45207  -0.44844  -0.44604  -0.44174  -0.44018
 Alpha  occ. eigenvalues --   -0.43877  -0.43738  -0.43703  -0.43186  -0.42955
 Alpha  occ. eigenvalues --   -0.42866  -0.42612  -0.42416  -0.42356  -0.42230
 Alpha  occ. eigenvalues --   -0.42171  -0.42008  -0.41773  -0.41606  -0.41400
 Alpha  occ. eigenvalues --   -0.41280  -0.41008  -0.40802  -0.40568  -0.40231
 Alpha  occ. eigenvalues --   -0.40127  -0.40028  -0.39910  -0.39709  -0.39561
 Alpha  occ. eigenvalues --   -0.39455  -0.39160  -0.39140  -0.39101  -0.38783
 Alpha  occ. eigenvalues --   -0.38416  -0.38293  -0.38092  -0.37941  -0.37619
 Alpha  occ. eigenvalues --   -0.37509  -0.37332  -0.37110  -0.37066  -0.36908
 Alpha  occ. eigenvalues --   -0.36626  -0.36539  -0.36338  -0.35965  -0.35858
 Alpha  occ. eigenvalues --   -0.35854  -0.35671  -0.35155  -0.35038  -0.34755
 Alpha  occ. eigenvalues --   -0.34443  -0.34185  -0.34139  -0.33955  -0.33544
 Alpha  occ. eigenvalues --   -0.33441  -0.33133  -0.32763  -0.32292  -0.31795
 Alpha  occ. eigenvalues --   -0.31568  -0.31437  -0.31021  -0.30970  -0.30778
 Alpha  occ. eigenvalues --   -0.30667  -0.30336  -0.29705  -0.29673  -0.29556
 Alpha  occ. eigenvalues --   -0.29325  -0.29083  -0.29070  -0.26727  -0.25759
 Alpha  occ. eigenvalues --   -0.25552  -0.25156  -0.25105  -0.24875  -0.21366
 Alpha  occ. eigenvalues --   -0.18724
 Alpha virt. eigenvalues --   -0.11330  -0.06015  -0.04185  -0.02482  -0.00759
 Alpha virt. eigenvalues --   -0.00048   0.00244   0.00643   0.02192   0.02522
 Alpha virt. eigenvalues --    0.04126   0.04608   0.05128   0.05799   0.05998

 Mulliken charges:
               1
     1  Mg   0.961374
     2  C   -0.026507
     3  C   -0.085111
     4  C   -0.084290
     5  C   -0.085020
     6  N   -0.400261
     7  C    0.022800
     8  C   -0.035031
     9  C   -0.189013
    10  C    0.095440
    11  C    0.041931
    12  C   -0.045087
    13  C   -0.025658
    14  C    0.244429
    15  O   -0.279388
    16  O   -0.351822
    17  N   -0.550813
    18  C    0.223552
    19  C   -0.169511
    20  C   -0.074407
    21  C    0.190273
    22  C    0.058383
    23  C    0.041128
    24  O   -0.265258
    25  C   -0.017711
    26  N   -0.418475
    27  C    0.104830
    28  C   -0.115536
    29  C   -0.113361
    30  C    0.084248
    31  C    0.015015
    32  C   -0.006531
    33  C   -0.062441
    34  N   -0.461739
    35  C    0.135758
    36  C   -0.186104
    37  C   -0.032523
    38  C    0.171459
    39  C    0.074603
    40  C    0.087026
    41  O   -0.224663
    42  C   -0.122851
    43  C    0.310139
    44  O   -0.238737
    45  O   -0.351191
    46  C    0.100928
    47  C    0.243638
    48  C   -0.135957
    49  C   -0.208966
    50  C    0.014512
    51  C    0.021047
    52  C   -0.048084
    53  C   -0.018094
    54  C   -0.209824
    55  C   -0.008187
    56  C   -0.001838
    57  C   -0.033066
    58  C   -0.034340
    59  C   -0.201195
    60  C   -0.003816
    61  C    0.009682
    62  C   -0.077246
    63  C   -0.050787
    64  C   -0.228079
    65  C   -0.005973
    66  C   -0.030466
    67  H    0.006483
    68  H   -0.007886
    69  H    0.001239
    70  H    0.042509
    71  H    0.048212
    72  H    0.041705
    73  H    0.058266
    74  H    0.044067
    75  H    0.056145
    76  H    0.070445
    77  H    0.066472
    78  H    0.065300
    79  H    0.069063
    80  H    0.058623
    81  H    0.052505
    82  H    0.076586
    83  H    0.048176
    84  H    0.057691
    85  H    0.049988
    86  H    0.041044
    87  H    0.032807
    88  H    0.048842
    89  H    0.049424
    90  H    0.040270
    91  H    0.035534
    92  H    0.049228
    93  H    0.037316
    94  H    0.046457
    95  H    0.076727
    96  H    0.060517
    97  H    0.068935
    98  H    0.073310
    99  H    0.059087
   100  H    0.072843
   101  H    0.068329
   102  H    0.060830
   103  H    0.031813
   104  H    0.019435
   105  H    0.071943
   106  H    0.054050
   107  H    0.032839
   108  H    0.040795
   109  H    0.026777
   110  H    0.033370
   111  H    0.024956
   112  H    0.023311
   113  H    0.022115
   114  H    0.039790
   115  H    0.028866
   116  H    0.038929
   117  H    0.037771
   118  H    0.044944
   119  H    0.024748
   120  H    0.032965
   121  H    0.034386
   122  H    0.018218
   123  H    0.015924
   124  H    0.033259
   125  H    0.027996
   126  H    0.036514
   127  H    0.023028
   128  H    0.015289
   129  H    0.026810
   130  H    0.028788
   131  H    0.026258
   132  H    0.036060
   133  H    0.028829
   134  H    0.036008
   135  H    0.030438
   136  H    0.034469
   137  H    0.040224
   138  H    0.039912
   139  H    0.037380
   140  H    0.036466
 Sum of Mulliken charges =  -0.00000

 Dipole moment (field-independent basis, Debye):
    X=              1.2123    Y=              2.7174    Z=             -1.0878  Tot=              3.1681
 Quadrupole moment (field-independent basis, Debye-Ang):
   XX=           -412.0511   YY=           -392.3927   ZZ=           -391.6898
   XY=            -44.3521   XZ=             -9.8741   YZ=            -30.4877

 Normal termination of Gaussian 16 at Thu Apr 28 09:41:11 2022.
