 Gaussian 16, Revision A.03,
 Gaussian 16:  ES64L-G16RevA.03 25-Dec-2016

 --------------------------------
 #p wB97XD/Def2SVP td=(nstates=5)
 --------------------------------

 ----------------------------------------------------
 step_151_chromophore_20 TDDFT with wB97XD functional
 ----------------------------------------------------
 Symbolic Z-matrix:
 Charge =  0 Multiplicity = 1

                         Standard orientation:
 ---------------------------------------------------------------------
 Center     Atomic      Atomic             Coordinates (Angstroms)
 Number     Number       Type             X           Y           Z
 ---------------------------------------------------------------------
      1         12           0       -3.701504    1.703643    0.710654
      2          6           0       -4.852603   -1.653809    0.598837
      3          6           0       -1.618921    0.899709    3.316112
      4          6           0       -2.312339    4.759747    0.391340
      5          6           0       -5.934951    2.326816   -2.058228
      6          7           0       -3.286551   -0.209677    1.756800
      7          6           0       -3.819561   -1.447654    1.538849
      8          6           0       -3.154054   -2.476470    2.410236
      9          6           0       -2.441160   -1.599623    3.483463
     10          6           0       -2.443162   -0.178892    2.859689
     11          6           0       -3.058869   -1.651070    4.918051
     12          6           0       -2.299486   -3.566535    1.660181
     13          6           0       -1.089710   -4.155019    2.405189
     14          6           0       -0.419303   -5.314139    1.637570
     15          8           0       -1.060230   -6.274272    1.195955
     16          8           0        0.934545   -5.100435    1.388325
     17          7           0       -2.156319    2.623246    1.665727
     18          6           0       -1.472800    2.127812    2.735591
     19          6           0       -0.495592    3.074190    3.181102
     20          6           0       -0.694468    4.281904    2.378685
     21          6           0       -1.720833    3.976114    1.409667
     22          6           0        0.679034    2.650029    3.990889
     23          6           0        0.152424    5.541044    2.541873
     24          8           0        0.976401    5.641680    3.470963
     25          6           0        0.021919    6.848514    1.690273
     26          7           0       -3.885251    3.233865   -0.819876
     27          6           0       -3.293429    4.472433   -0.633336
     28          6           0       -3.857395    5.409923   -1.676954
     29          6           0       -4.855188    4.639373   -2.595395
     30          6           0       -4.952031    3.316904   -1.774540
     31          6           0       -4.392169    6.712539   -1.084655
     32          6           0       -4.375300    4.460012   -4.053699
     33          6           0       -5.490093    4.298226   -5.065714
     34          7           0       -5.136043    0.672205   -0.474765
     35          6           0       -5.967855    1.044647   -1.592514
     36          6           0       -6.900990   -0.028488   -1.915681
     37          6           0       -6.478241   -1.097861   -1.117456
     38          6           0       -5.414076   -0.606080   -0.243686
     39          6           0       -8.019210    0.184801   -2.947395
     40          6           0       -6.812639   -2.450764   -0.752642
     41          8           0       -7.748453   -3.161796   -1.116797
     42          6           0       -5.640218   -2.916283    0.215074
     43          6           0       -4.880294   -3.834102   -0.654597
     44          8           0       -4.228245   -3.641235   -1.649764
     45          8           0       -5.006931   -5.046765   -0.090599
     46          6           0       -4.492544   -6.189904   -0.832194
     47          6           0        1.616465   -6.255658    0.832196
     48          6           0        2.840160   -5.723724    0.036487
     49          6           0        3.103780   -5.403804   -1.265707
     50          6           0        2.049676   -5.449079   -2.290832
     51          6           0        4.509471   -4.856839   -1.716085
     52          6           0        4.542045   -3.397635   -2.259023
     53          6           0        5.969462   -2.845070   -2.516957
     54          6           0        6.364995   -1.643541   -1.565560
     55          6           0        5.561216   -0.413952   -2.005187
     56          6           0        7.822830   -1.327978   -1.606447
     57          6           0        8.686243   -2.149408   -0.577892
     58          6           0        9.517652   -1.152900    0.331541
     59          6           0       10.645595   -0.339539   -0.392224
     60          6           0       11.997187   -1.098780   -0.421799
     61          6           0       10.678565    1.229577   -0.097739
     62          6           0       10.308128    2.155988   -1.216919
     63          6           0        8.930299    2.887422   -0.898809
     64          6           0        9.052696    4.255755   -0.166380
     65          6           0        8.623778    4.185092    1.314174
     66          6           0        8.241398    5.394189   -0.962657
     67          1           0       -1.017223    0.617732    4.182363
     68          1           0       -2.057216    5.819672    0.455068
     69          1           0       -6.696317    2.575411   -2.799820
     70          1           0       -4.011483   -3.039160    2.778972
     71          1           0       -1.397135   -1.889313    3.603533
     72          1           0       -3.711451   -0.781544    4.992634
     73          1           0       -2.248309   -1.570819    5.643235
     74          1           0       -3.733396   -2.506351    4.874686
     75          1           0       -1.967463   -3.252959    0.670262
     76          1           0       -2.899814   -4.456421    1.468861
     77          1           0       -1.356431   -4.503053    3.403839
     78          1           0       -0.358586   -3.348741    2.466594
     79          1           0        1.457300    3.400580    3.857961
     80          1           0        0.996533    1.628580    3.780790
     81          1           0        0.308673    2.750005    5.011455
     82          1           0       -0.946799    7.302072    1.900611
     83          1           0        0.080697    6.455187    0.674853
     84          1           0        0.852606    7.553081    1.723677
     85          1           0       -2.993946    5.698360   -2.276047
     86          1           0       -5.853369    5.075596   -2.642919
     87          1           0       -3.953336    7.419058   -1.789271
     88          1           0       -3.968468    6.951407   -0.109041
     89          1           0       -5.473402    6.806347   -1.180660
     90          1           0       -3.678752    3.621842   -4.018635
     91          1           0       -3.724780    5.263089   -4.397597
     92          1           0       -5.574337    5.207787   -5.661216
     93          1           0       -6.461432    4.046171   -4.639667
     94          1           0       -5.283373    3.446129   -5.712687
     95          1           0       -7.502443    0.010284   -3.891130
     96          1           0       -8.407158    1.184085   -2.746604
     97          1           0       -8.765008   -0.582034   -2.736508
     98          1           0       -6.170094   -3.300830    1.086881
     99          1           0       -5.336810   -6.880608   -0.839667
    100          1           0       -3.627013   -6.557385   -0.281740
    101          1           0       -4.216298   -5.987687   -1.866181
    102          1           0        1.056417   -7.010183    0.280759
    103          1           0        1.973662   -6.815098    1.696831
    104          1           0        3.721726   -5.767512    0.675200
    105          1           0        1.167390   -4.917185   -1.934002
    106          1           0        1.746893   -6.461737   -2.559228
    107          1           0        2.464062   -5.053843   -3.217838
    108          1           0        4.881243   -5.602605   -2.418770
    109          1           0        5.274130   -4.848711   -0.940479
    110          1           0        4.024399   -2.698219   -1.602741
    111          1           0        3.882979   -3.324976   -3.124403
    112          1           0        5.904319   -2.555759   -3.565985
    113          1           0        6.771577   -3.577283   -2.604765
    114          1           0        6.042950   -1.898818   -0.555575
    115          1           0        4.909544   -0.750119   -2.811698
    116          1           0        6.114140    0.442492   -2.391660
    117          1           0        4.942447   -0.088665   -1.169085
    118          1           0        7.993054   -0.253451   -1.542575
    119          1           0        8.247671   -1.596795   -2.573361
    120          1           0        9.378139   -2.864985   -1.022264
    121          1           0        8.098060   -2.715893    0.144841
    122          1           0        9.976227   -1.684377    1.164940
    123          1           0        8.917523   -0.389834    0.827425
    124          1           0       10.248069   -0.298129   -1.405815
    125          1           0       12.002968   -1.679736   -1.343808
    126          1           0       12.331408   -1.777328    0.364056
    127          1           0       12.849469   -0.427515   -0.522599
    128          1           0       11.675502    1.574791    0.176757
    129          1           0       10.092518    1.401910    0.804869
    130          1           0       10.239060    1.739277   -2.221922
    131          1           0       11.030456    2.964361   -1.331148
    132          1           0        8.378916    2.195794   -0.261668
    133          1           0        8.490831    2.893553   -1.895991
    134          1           0       10.105337    4.485322   -0.003504
    135          1           0        8.069650    5.096192    1.538252
    136          1           0        9.529371    4.254436    1.917294
    137          1           0        8.042077    3.267068    1.402551
    138          1           0        7.398596    5.840384   -0.435335
    139          1           0        7.898381    5.058658   -1.941449
    140          1           0        8.962009    6.201361   -1.099703
 ---------------------------------------------------------------------

 SCF Done:  E(RwB97XD) =  -3007.84011375     A.U. after   20 cycles

 Excitation energies and oscillator strengths:

 Excited State   1:      Singlet-A      1.5838 eV  782.81 nm  f=0.3478  <S**2>=0.000
     245 -> 248       -0.18969
     246 -> 247        0.68245
     245 <- 248       -0.12100
 This state for optimization and/or second-order correction.
 Total Energy, E(TD-HF/TD-DFT) =  -3007.78190906
 Copying the excited state density for this state as the 1-particle RhoCI density.

 Excited State   2:      Singlet-A      2.1564 eV  574.96 nm  f=0.0503  <S**2>=0.000
     245 -> 247        0.60780
     246 -> 248        0.34851

 Excited State   3:      Singlet-A      3.2552 eV  380.88 nm  f=0.0610  <S**2>=0.000
     244 -> 247        0.62570
     244 -> 249        0.10458
     246 -> 248        0.25908

 Excited State   4:      Singlet-A      3.3799 eV  366.83 nm  f=0.2057  <S**2>=0.000
     241 -> 247        0.41477
     241 -> 248        0.12675
     241 -> 249        0.26353
     241 -> 250       -0.19984
     244 -> 247       -0.11505
     245 -> 247       -0.17956
     246 -> 248        0.32308

 Excited State   5:      Singlet-A      3.4081 eV  363.80 nm  f=0.3331  <S**2>=0.000
     241 -> 247       -0.23382
     241 -> 249       -0.16678
     241 -> 250        0.12217
     242 -> 247        0.34273
     244 -> 247       -0.20447
     245 -> 247       -0.23263
     246 -> 248        0.39678

 The electronic state is 1-A.
 Alpha  occ. eigenvalues --  -46.94941 -19.30940 -19.29071 -19.25503 -19.24011
 Alpha  occ. eigenvalues --  -19.23911 -19.23620 -14.47240 -14.46903 -14.44409
 Alpha  occ. eigenvalues --  -14.44078 -10.44053 -10.42261 -10.39621 -10.38827
 Alpha  occ. eigenvalues --  -10.36149 -10.36047 -10.35982 -10.35742 -10.35468
 Alpha  occ. eigenvalues --  -10.35447 -10.33817 -10.33703 -10.33427 -10.33216
 Alpha  occ. eigenvalues --  -10.32709 -10.32526 -10.32487 -10.32444 -10.32390
 Alpha  occ. eigenvalues --  -10.32377 -10.32247 -10.32231 -10.32080 -10.32063
 Alpha  occ. eigenvalues --  -10.31917 -10.31567 -10.31352 -10.31311 -10.31106
 Alpha  occ. eigenvalues --  -10.30673 -10.30591 -10.30444 -10.30372 -10.30258
 Alpha  occ. eigenvalues --  -10.30132 -10.29695 -10.29590 -10.29581 -10.29580
 Alpha  occ. eigenvalues --  -10.29533 -10.29491 -10.29410 -10.29312 -10.29247
 Alpha  occ. eigenvalues --  -10.29186 -10.28987 -10.28593 -10.28536 -10.28362
 Alpha  occ. eigenvalues --  -10.28346 -10.28341 -10.28241 -10.28054 -10.27864
 Alpha  occ. eigenvalues --  -10.27849  -3.20853  -1.94449  -1.93958  -1.93837
 Alpha  occ. eigenvalues --   -1.18940  -1.18326  -1.11430  -1.10870  -1.10140
 Alpha  occ. eigenvalues --   -1.09724  -1.05560  -1.04368  -1.04204  -1.03243
 Alpha  occ. eigenvalues --   -0.93814  -0.91849  -0.91362  -0.91173  -0.90738
 Alpha  occ. eigenvalues --   -0.90523  -0.90145  -0.89445  -0.88896  -0.88316
 Alpha  occ. eigenvalues --   -0.88133  -0.87586  -0.86270  -0.85973  -0.85481
 Alpha  occ. eigenvalues --   -0.84193  -0.83736  -0.83067  -0.82764  -0.82357
 Alpha  occ. eigenvalues --   -0.81347  -0.80191  -0.79939  -0.79205  -0.77759
 Alpha  occ. eigenvalues --   -0.77198  -0.76843  -0.76797  -0.76389  -0.75820
 Alpha  occ. eigenvalues --   -0.74963  -0.74397  -0.74043  -0.72574  -0.71218
 Alpha  occ. eigenvalues --   -0.70808  -0.70422  -0.69208  -0.68705  -0.67388
 Alpha  occ. eigenvalues --   -0.67351  -0.67198  -0.66820  -0.66231  -0.65880
 Alpha  occ. eigenvalues --   -0.65350  -0.64423  -0.63998  -0.63719  -0.61910
 Alpha  occ. eigenvalues --   -0.61685  -0.61105  -0.60857  -0.60747  -0.60497
 Alpha  occ. eigenvalues --   -0.59524  -0.58947  -0.58085  -0.57830  -0.57449
 Alpha  occ. eigenvalues --   -0.57243  -0.56613  -0.56412  -0.56023  -0.55633
 Alpha  occ. eigenvalues --   -0.55271  -0.54943  -0.54773  -0.54587  -0.54565
 Alpha  occ. eigenvalues --   -0.54143  -0.53918  -0.53897  -0.53594  -0.53324
 Alpha  occ. eigenvalues --   -0.53188  -0.53004  -0.52843  -0.52826  -0.52741
 Alpha  occ. eigenvalues --   -0.52581  -0.52242  -0.51979  -0.51521  -0.51327
 Alpha  occ. eigenvalues --   -0.51291  -0.51082  -0.50990  -0.50503  -0.50227
 Alpha  occ. eigenvalues --   -0.50123  -0.49809  -0.49701  -0.49652  -0.49503
 Alpha  occ. eigenvalues --   -0.49425  -0.49293  -0.49038  -0.48872  -0.48639
 Alpha  occ. eigenvalues --   -0.48521  -0.48250  -0.48059  -0.47751  -0.47471
 Alpha  occ. eigenvalues --   -0.47418  -0.47209  -0.47094  -0.46926  -0.46761
 Alpha  occ. eigenvalues --   -0.46616  -0.46364  -0.46318  -0.46222  -0.45926
 Alpha  occ. eigenvalues --   -0.45628  -0.45423  -0.45272  -0.44999  -0.44803
 Alpha  occ. eigenvalues --   -0.44629  -0.44329  -0.44235  -0.44108  -0.43977
 Alpha  occ. eigenvalues --   -0.43883  -0.43640  -0.43461  -0.43099  -0.42919
 Alpha  occ. eigenvalues --   -0.42809  -0.42682  -0.42286  -0.42053  -0.41716
 Alpha  occ. eigenvalues --   -0.41500  -0.41252  -0.41206  -0.41044  -0.40585
 Alpha  occ. eigenvalues --   -0.40456  -0.40074  -0.39725  -0.39319  -0.38847
 Alpha  occ. eigenvalues --   -0.38595  -0.38355  -0.38052  -0.37916  -0.37773
 Alpha  occ. eigenvalues --   -0.37704  -0.37282  -0.36757  -0.36646  -0.36455
 Alpha  occ. eigenvalues --   -0.36183  -0.36003  -0.35951  -0.33296  -0.32500
 Alpha  occ. eigenvalues --   -0.32360  -0.32151  -0.31841  -0.31686  -0.26415
 Alpha  occ. eigenvalues --   -0.22806
 Alpha virt. eigenvalues --   -0.07177  -0.00720   0.02093   0.04049   0.05740
 Alpha virt. eigenvalues --    0.06085   0.06983   0.07429   0.08982   0.09045
 Alpha virt. eigenvalues --    0.10581   0.11489   0.11808   0.12448   0.12699

 Mulliken charges:
               1
     1  Mg   0.952090
     2  C   -0.034612
     3  C   -0.111307
     4  C   -0.093117
     5  C   -0.089331
     6  N   -0.368160
     7  C   -0.009146
     8  C   -0.012698
     9  C   -0.158501
    10  C    0.083459
    11  C    0.052021
    12  C   -0.030798
    13  C   -0.006198
    14  C    0.234231
    15  O   -0.277653
    16  O   -0.351551
    17  N   -0.520778
    18  C    0.222243
    19  C   -0.162733
    20  C   -0.066870
    21  C    0.188814
    22  C    0.073086
    23  C    0.034901
    24  O   -0.260680
    25  C   -0.002384
    26  N   -0.388973
    27  C    0.090967
    28  C   -0.087516
    29  C   -0.083586
    30  C    0.067405
    31  C    0.025416
    32  C    0.003213
    33  C   -0.046095
    34  N   -0.426809
    35  C    0.126263
    36  C   -0.186507
    37  C   -0.031804
    38  C    0.151537
    39  C    0.087238
    40  C    0.074031
    41  O   -0.216436
    42  C   -0.080055
    43  C    0.280175
    44  O   -0.232105
    45  O   -0.348368
    46  C    0.115898
    47  C    0.257040
    48  C   -0.145478
    49  C   -0.194146
    50  C    0.024259
    51  C    0.040789
    52  C   -0.033648
    53  C   -0.002729
    54  C   -0.178691
    55  C    0.002149
    56  C    0.021473
    57  C   -0.017989
    58  C   -0.015489
    59  C   -0.167428
    60  C    0.006739
    61  C    0.023029
    62  C   -0.059256
    63  C   -0.027933
    64  C   -0.203803
    65  C    0.007343
    66  C   -0.015850
    67  H    0.001754
    68  H   -0.022046
    69  H   -0.008799
    70  H    0.030730
    71  H    0.035085
    72  H    0.035160
    73  H    0.054342
    74  H    0.038412
    75  H    0.050287
    76  H    0.054808
    77  H    0.060727
    78  H    0.057525
    79  H    0.065127
    80  H    0.054710
    81  H    0.047183
    82  H    0.072655
    83  H    0.041001
    84  H    0.057514
    85  H    0.038555
    86  H    0.028840
    87  H    0.026937
    88  H    0.042102
    89  H    0.044643
    90  H    0.031903
    91  H    0.027374
    92  H    0.044147
    93  H    0.029122
    94  H    0.041099
    95  H    0.071690
    96  H    0.054791
    97  H    0.065270
    98  H    0.068786
    99  H    0.055141
   100  H    0.070151
   101  H    0.064483
   102  H    0.056680
   103  H    0.027909
   104  H    0.014969
   105  H    0.067449
   106  H    0.049295
   107  H    0.026484
   108  H    0.032904
   109  H    0.017772
   110  H    0.023428
   111  H    0.016027
   112  H    0.013919
   113  H    0.013729
   114  H    0.026806
   115  H    0.020774
   116  H    0.034256
   117  H    0.032768
   118  H    0.024102
   119  H    0.016219
   120  H    0.025455
   121  H    0.026119
   122  H    0.010131
   123  H    0.004635
   124  H    0.011350
   125  H    0.021956
   126  H    0.031479
   127  H    0.016920
   128  H    0.008084
   129  H    0.013445
   130  H    0.022252
   131  H    0.017324
   132  H    0.018433
   133  H    0.020481
   134  H    0.024193
   135  H    0.023954
   136  H    0.029341
   137  H    0.033686
   138  H    0.033787
   139  H    0.031330
   140  H    0.030348
 Sum of Mulliken charges =  -0.00000

 Dipole moment (field-independent basis, Debye):
    X=              1.4367    Y=              2.9024    Z=             -0.8080  Tot=              3.3378
 Quadrupole moment (field-independent basis, Debye-Ang):
   XX=           -413.3769   YY=           -390.8669   ZZ=           -391.3639
   XY=            -44.1271   XZ=            -10.5218   YZ=            -29.5174

 Normal termination of Gaussian 16 at Thu Apr 28 10:07:57 2022.
