 Gaussian 16, Revision A.03,
 Gaussian 16:  ES64L-G16RevA.03 25-Dec-2016

 --------------------
 #p ZINDO=(nstates=5)
 --------------------

 -----------------------------
 step_151_chromophore_20 ZINDO
 -----------------------------
 Symbolic Z-matrix:
 Charge =  0 Multiplicity = 1

                         Standard orientation:
 ---------------------------------------------------------------------
 Center     Atomic      Atomic             Coordinates (Angstroms)
 Number     Number       Type             X           Y           Z
 ---------------------------------------------------------------------
      1         12           0       -3.701504    1.703643    0.710654
      2          6           0       -4.852603   -1.653809    0.598837
      3          6           0       -1.618921    0.899709    3.316112
      4          6           0       -2.312339    4.759747    0.391340
      5          6           0       -5.934951    2.326816   -2.058228
      6          7           0       -3.286551   -0.209677    1.756800
      7          6           0       -3.819561   -1.447654    1.538849
      8          6           0       -3.154054   -2.476470    2.410236
      9          6           0       -2.441160   -1.599623    3.483463
     10          6           0       -2.443162   -0.178892    2.859689
     11          6           0       -3.058869   -1.651070    4.918051
     12          6           0       -2.299486   -3.566535    1.660181
     13          6           0       -1.089710   -4.155019    2.405189
     14          6           0       -0.419303   -5.314139    1.637570
     15          8           0       -1.060230   -6.274272    1.195955
     16          8           0        0.934545   -5.100435    1.388325
     17          7           0       -2.156319    2.623246    1.665727
     18          6           0       -1.472800    2.127812    2.735591
     19          6           0       -0.495592    3.074190    3.181102
     20          6           0       -0.694468    4.281904    2.378685
     21          6           0       -1.720833    3.976114    1.409667
     22          6           0        0.679034    2.650029    3.990889
     23          6           0        0.152424    5.541044    2.541873
     24          8           0        0.976401    5.641680    3.470963
     25          6           0        0.021919    6.848514    1.690273
     26          7           0       -3.885251    3.233865   -0.819876
     27          6           0       -3.293429    4.472433   -0.633336
     28          6           0       -3.857395    5.409923   -1.676954
     29          6           0       -4.855188    4.639373   -2.595395
     30          6           0       -4.952031    3.316904   -1.774540
     31          6           0       -4.392169    6.712539   -1.084655
     32          6           0       -4.375300    4.460012   -4.053699
     33          6           0       -5.490093    4.298226   -5.065714
     34          7           0       -5.136043    0.672205   -0.474765
     35          6           0       -5.967855    1.044647   -1.592514
     36          6           0       -6.900990   -0.028488   -1.915681
     37          6           0       -6.478241   -1.097861   -1.117456
     38          6           0       -5.414076   -0.606080   -0.243686
     39          6           0       -8.019210    0.184801   -2.947395
     40          6           0       -6.812639   -2.450764   -0.752642
     41          8           0       -7.748453   -3.161796   -1.116797
     42          6           0       -5.640218   -2.916283    0.215074
     43          6           0       -4.880294   -3.834102   -0.654597
     44          8           0       -4.228245   -3.641235   -1.649764
     45          8           0       -5.006931   -5.046765   -0.090599
     46          6           0       -4.492544   -6.189904   -0.832194
     47          6           0        1.616465   -6.255658    0.832196
     48          6           0        2.840160   -5.723724    0.036487
     49          6           0        3.103780   -5.403804   -1.265707
     50          6           0        2.049676   -5.449079   -2.290832
     51          6           0        4.509471   -4.856839   -1.716085
     52          6           0        4.542045   -3.397635   -2.259023
     53          6           0        5.969462   -2.845070   -2.516957
     54          6           0        6.364995   -1.643541   -1.565560
     55          6           0        5.561216   -0.413952   -2.005187
     56          6           0        7.822830   -1.327978   -1.606447
     57          6           0        8.686243   -2.149408   -0.577892
     58          6           0        9.517652   -1.152900    0.331541
     59          6           0       10.645595   -0.339539   -0.392224
     60          6           0       11.997187   -1.098780   -0.421799
     61          6           0       10.678565    1.229577   -0.097739
     62          6           0       10.308128    2.155988   -1.216919
     63          6           0        8.930299    2.887422   -0.898809
     64          6           0        9.052696    4.255755   -0.166380
     65          6           0        8.623778    4.185092    1.314174
     66          6           0        8.241398    5.394189   -0.962657
     67          1           0       -1.017223    0.617732    4.182363
     68          1           0       -2.057216    5.819672    0.455068
     69          1           0       -6.696317    2.575411   -2.799820
     70          1           0       -4.011483   -3.039160    2.778972
     71          1           0       -1.397135   -1.889313    3.603533
     72          1           0       -3.711451   -0.781544    4.992634
     73          1           0       -2.248309   -1.570819    5.643235
     74          1           0       -3.733396   -2.506351    4.874686
     75          1           0       -1.967463   -3.252959    0.670262
     76          1           0       -2.899814   -4.456421    1.468861
     77          1           0       -1.356431   -4.503053    3.403839
     78          1           0       -0.358586   -3.348741    2.466594
     79          1           0        1.457300    3.400580    3.857961
     80          1           0        0.996533    1.628580    3.780790
     81          1           0        0.308673    2.750005    5.011455
     82          1           0       -0.946799    7.302072    1.900611
     83          1           0        0.080697    6.455187    0.674853
     84          1           0        0.852606    7.553081    1.723677
     85          1           0       -2.993946    5.698360   -2.276047
     86          1           0       -5.853369    5.075596   -2.642919
     87          1           0       -3.953336    7.419058   -1.789271
     88          1           0       -3.968468    6.951407   -0.109041
     89          1           0       -5.473402    6.806347   -1.180660
     90          1           0       -3.678752    3.621842   -4.018635
     91          1           0       -3.724780    5.263089   -4.397597
     92          1           0       -5.574337    5.207787   -5.661216
     93          1           0       -6.461432    4.046171   -4.639667
     94          1           0       -5.283373    3.446129   -5.712687
     95          1           0       -7.502443    0.010284   -3.891130
     96          1           0       -8.407158    1.184085   -2.746604
     97          1           0       -8.765008   -0.582034   -2.736508
     98          1           0       -6.170094   -3.300830    1.086881
     99          1           0       -5.336810   -6.880608   -0.839667
    100          1           0       -3.627013   -6.557385   -0.281740
    101          1           0       -4.216298   -5.987687   -1.866181
    102          1           0        1.056417   -7.010183    0.280759
    103          1           0        1.973662   -6.815098    1.696831
    104          1           0        3.721726   -5.767512    0.675200
    105          1           0        1.167390   -4.917185   -1.934002
    106          1           0        1.746893   -6.461737   -2.559228
    107          1           0        2.464062   -5.053843   -3.217838
    108          1           0        4.881243   -5.602605   -2.418770
    109          1           0        5.274130   -4.848711   -0.940479
    110          1           0        4.024399   -2.698219   -1.602741
    111          1           0        3.882979   -3.324976   -3.124403
    112          1           0        5.904319   -2.555759   -3.565985
    113          1           0        6.771577   -3.577283   -2.604765
    114          1           0        6.042950   -1.898818   -0.555575
    115          1           0        4.909544   -0.750119   -2.811698
    116          1           0        6.114140    0.442492   -2.391660
    117          1           0        4.942447   -0.088665   -1.169085
    118          1           0        7.993054   -0.253451   -1.542575
    119          1           0        8.247671   -1.596795   -2.573361
    120          1           0        9.378139   -2.864985   -1.022264
    121          1           0        8.098060   -2.715893    0.144841
    122          1           0        9.976227   -1.684377    1.164940
    123          1           0        8.917523   -0.389834    0.827425
    124          1           0       10.248069   -0.298129   -1.405815
    125          1           0       12.002968   -1.679736   -1.343808
    126          1           0       12.331408   -1.777328    0.364056
    127          1           0       12.849469   -0.427515   -0.522599
    128          1           0       11.675502    1.574791    0.176757
    129          1           0       10.092518    1.401910    0.804869
    130          1           0       10.239060    1.739277   -2.221922
    131          1           0       11.030456    2.964361   -1.331148
    132          1           0        8.378916    2.195794   -0.261668
    133          1           0        8.490831    2.893553   -1.895991
    134          1           0       10.105337    4.485322   -0.003504
    135          1           0        8.069650    5.096192    1.538252
    136          1           0        9.529371    4.254436    1.917294
    137          1           0        8.042077    3.267068    1.402551
    138          1           0        7.398596    5.840384   -0.435335
    139          1           0        7.898381    5.058658   -1.941449
    140          1           0        8.962009    6.201361   -1.099703
 ---------------------------------------------------------------------

 SCF Done:  E(RZINDO/S) =  -473.894132200     A.U. after   19 cycles

 Excitation energies and oscillator strengths:

 Excited State   1:      Singlet-A      1.1948 eV 1037.72 nm  f=0.5784  <S**2>=0.000
     175 ->178         0.19352
     176 ->177         0.66186
 This state for optimization and/or second-order correction.
 Total Energy, E(CIS/TDA) =  -473.850225127
 Copying the excited state density for this state as the 1-particle RhoCI density.

 Excited State   2:      Singlet-A      1.8867 eV  657.14 nm  f=0.0036  <S**2>=0.000
     175 ->177         0.49497
     176 ->178        -0.48461

 Excited State   3:      Singlet-A      2.8641 eV  432.89 nm  f=0.0195  <S**2>=0.000
     169 ->177         0.28775
     169 ->178         0.16415
     169 ->179        -0.34765
     169 ->180         0.35010
     169 ->184        -0.16468
     169 ->185        -0.24039
     169 ->193        -0.11964

 Excited State   4:      Singlet-A      2.9197 eV  424.65 nm  f=0.2743  <S**2>=0.000
     175 ->177         0.24901
     176 ->178         0.26367
     176 ->179         0.54799
     176 ->180         0.10759

 Excited State   5:      Singlet-A      2.9458 eV  420.89 nm  f=0.8972  <S**2>=0.000
     175 ->177         0.36331
     176 ->178         0.38837
     176 ->179        -0.36905

 The electronic state is 1-A.
 Alpha  occ. eigenvalues --   -1.81818  -1.79220  -1.77611  -1.74304  -1.71707
 Alpha  occ. eigenvalues --   -1.69455  -1.64547  -1.59813  -1.57568  -1.56931
 Alpha  occ. eigenvalues --   -1.53055  -1.50860  -1.47925  -1.47392  -1.46911
 Alpha  occ. eigenvalues --   -1.43599  -1.42372  -1.39512  -1.39366  -1.37635
 Alpha  occ. eigenvalues --   -1.35650  -1.34025  -1.32276  -1.31555  -1.28366
 Alpha  occ. eigenvalues --   -1.26466  -1.26238  -1.22023  -1.20824  -1.18075
 Alpha  occ. eigenvalues --   -1.17228  -1.15459  -1.15160  -1.13094  -1.12405
 Alpha  occ. eigenvalues --   -1.11891  -1.11103  -1.09345  -1.03857  -1.03457
 Alpha  occ. eigenvalues --   -1.02184  -1.00514  -0.99741  -0.98546  -0.97463
 Alpha  occ. eigenvalues --   -0.97006  -0.94380  -0.93179  -0.91966  -0.91667
 Alpha  occ. eigenvalues --   -0.90369  -0.90242  -0.88439  -0.88285  -0.86982
 Alpha  occ. eigenvalues --   -0.85774  -0.83966  -0.83153  -0.81746  -0.80187
 Alpha  occ. eigenvalues --   -0.79552  -0.78789  -0.76751  -0.76528  -0.76105
 Alpha  occ. eigenvalues --   -0.75811  -0.75102  -0.74815  -0.74180  -0.73834
 Alpha  occ. eigenvalues --   -0.72501  -0.72450  -0.71876  -0.71761  -0.71278
 Alpha  occ. eigenvalues --   -0.69792  -0.69275  -0.69094  -0.68255  -0.67422
 Alpha  occ. eigenvalues --   -0.67248  -0.66783  -0.66080  -0.65807  -0.65284
 Alpha  occ. eigenvalues --   -0.65121  -0.64789  -0.64356  -0.63880  -0.63804
 Alpha  occ. eigenvalues --   -0.63146  -0.62910  -0.62730  -0.62282  -0.61921
 Alpha  occ. eigenvalues --   -0.61665  -0.61393  -0.60997  -0.60626  -0.60349
 Alpha  occ. eigenvalues --   -0.59572  -0.59225  -0.59059  -0.58976  -0.58736
 Alpha  occ. eigenvalues --   -0.58276  -0.57848  -0.56969  -0.56929  -0.56746
 Alpha  occ. eigenvalues --   -0.56272  -0.56113  -0.55399  -0.55361  -0.54995
 Alpha  occ. eigenvalues --   -0.53952  -0.53773  -0.53546  -0.53280  -0.53185
 Alpha  occ. eigenvalues --   -0.52766  -0.52500  -0.52391  -0.51773  -0.51656
 Alpha  occ. eigenvalues --   -0.51418  -0.50888  -0.50561  -0.50255  -0.50167
 Alpha  occ. eigenvalues --   -0.49708  -0.49327  -0.49112  -0.48929  -0.48628
 Alpha  occ. eigenvalues --   -0.48502  -0.48330  -0.48289  -0.48068  -0.47738
 Alpha  occ. eigenvalues --   -0.47519  -0.47060  -0.46983  -0.46396  -0.46340
 Alpha  occ. eigenvalues --   -0.45768  -0.45391  -0.45092  -0.44927  -0.44734
 Alpha  occ. eigenvalues --   -0.44601  -0.44415  -0.44295  -0.44177  -0.43553
 Alpha  occ. eigenvalues --   -0.43141  -0.43015  -0.42623  -0.42522  -0.42431
 Alpha  occ. eigenvalues --   -0.42075  -0.41819  -0.40865  -0.39223  -0.39102
 Alpha  occ. eigenvalues --   -0.38114  -0.37334  -0.35491  -0.35243  -0.34547
 Alpha  occ. eigenvalues --   -0.33063  -0.32639  -0.32203  -0.31935  -0.27068
 Alpha  occ. eigenvalues --   -0.21509
 Alpha virt. eigenvalues --   -0.08576  -0.02756  -0.00828   0.00827   0.01356
 Alpha virt. eigenvalues --    0.02175   0.02258   0.03771   0.04627   0.04668
 Alpha virt. eigenvalues --    0.05966   0.06673   0.06903   0.07641   0.08170

 Mulliken charges:
               1
     1  Mg   0.426050
     2  C   -0.062331
     3  C   -0.080926
     4  C   -0.078517
     5  C   -0.037545
     6  N   -0.293477
     7  C    0.131618
     8  C    0.008662
     9  C   -0.000013
    10  C    0.134875
    11  C   -0.055688
    12  C   -0.020650
    13  C    0.009180
    14  C    0.460545
    15  O   -0.517534
    16  O   -0.257140
    17  N   -0.345512
    18  C    0.143731
    19  C    0.036301
    20  C   -0.043691
    21  C    0.118808
    22  C   -0.035569
    23  C    0.314314
    24  O   -0.532915
    25  C   -0.026919
    26  N   -0.276829
    27  C    0.142338
    28  C    0.016898
    29  C    0.004362
    30  C    0.080015
    31  C   -0.055863
    32  C   -0.022673
    33  C   -0.053622
    34  N   -0.321522
    35  C    0.065093
    36  C    0.040296
    37  C   -0.058333
    38  C    0.129582
    39  C   -0.039709
    40  C    0.330652
    41  O   -0.530869
    42  C    0.059446
    43  C    0.507617
    44  O   -0.526958
    45  O   -0.273865
    46  C    0.072144
    47  C    0.109607
    48  C   -0.103654
    49  C    0.007503
    50  C   -0.038751
    51  C   -0.018838
    52  C   -0.030104
    53  C   -0.037153
    54  C   -0.000525
    55  C   -0.060492
    56  C   -0.025711
    57  C   -0.037682
    58  C   -0.039989
    59  C   -0.018945
    60  C   -0.055328
    61  C   -0.027626
    62  C   -0.037414
    63  C   -0.044787
    64  C   -0.018773
    65  C   -0.063820
    66  C   -0.061201
    67  H    0.029405
    68  H    0.022445
    69  H    0.027801
    70  H    0.026658
    71  H    0.024894
    72  H    0.021259
    73  H    0.035371
    74  H    0.032506
    75  H    0.036411
    76  H    0.031847
    77  H    0.045485
    78  H    0.027926
    79  H    0.045477
    80  H    0.033670
    81  H    0.034949
    82  H    0.043054
    83  H    0.022117
    84  H    0.045840
    85  H    0.027043
    86  H    0.028579
    87  H    0.010330
    88  H    0.030090
    89  H    0.030082
    90  H    0.021852
    91  H    0.016813
    92  H    0.021167
    93  H    0.020033
    94  H    0.017787
    95  H    0.046578
    96  H    0.035595
    97  H    0.036903
    98  H    0.056824
    99  H    0.033589
   100  H    0.044690
   101  H    0.052940
   102  H    0.059874
   103  H    0.029295
   104  H    0.012181
   105  H    0.037577
   106  H    0.028937
   107  H    0.017135
   108  H    0.025353
   109  H    0.017881
   110  H    0.020290
   111  H    0.017270
   112  H    0.012012
   113  H    0.018624
   114  H    0.024899
   115  H    0.015553
   116  H    0.022923
   117  H    0.015166
   118  H    0.025331
   119  H    0.013383
   120  H    0.024834
   121  H    0.017154
   122  H    0.008968
   123  H    0.016603
   124  H    0.014739
   125  H    0.011928
   126  H    0.026985
   127  H    0.010679
   128  H    0.010214
   129  H    0.020413
   130  H    0.020891
   131  H    0.013084
   132  H    0.019808
   133  H    0.017357
   134  H    0.026350
   135  H    0.019014
   136  H    0.019497
   137  H    0.030227
   138  H    0.025057
   139  H    0.021374
   140  H    0.012953
 Sum of Mulliken charges =  -0.00000

 Dipole moment (field-independent basis, Debye):
    X=              0.8950    Y=              4.3606    Z=              0.6296  Tot=              4.4958
 N-N= 4.458083415561D+03 E-N= 0.000000000000D+00  KE=-9.590381940671D+03
 Leave Link  601 at Thu Apr 28 10:20:41 2022, MaxMem=  6710886400 cpu:               0.8 elap:               0.0
 (Enter /sw/apps/gaussian-16.0/g16/l9999.exe)
 1\1\GINC-BP1-COMPUTE070\SP\RZINDO CIS\STO-3G\C55H74Mg1N4O6\OF15641\28-
 Apr-2022\0\\#p ZINDO=(nstates=5)\\step_151_chromophore_20 ZINDO\\0,1\M
 g,0,7.729,57.116,41.167\C,0,6.553,53.77,40.99\C,0,10.909,56.032,40.471
 \C,0,8.636,60.348,40.846\C,0,4.307,58.047,41.85\N,0,8.56,55.105,40.728
 \C,0,7.921,53.9,40.666\C,0,8.864,52.818,40.218\C,0,10.26,53.477,40.432
 \C,0,9.936,54.987,40.582\C,0,11.106,52.901,41.613\C,0,8.558,52.175,38.
 813\C,0,9.752,51.649,37.999\C,0,9.322,50.91,36.714\O,0,8.477,50.008,36

 Normal termination of Gaussian 16 at Thu Apr 28 10:20:41 2022.
