 Gaussian 16, Revision A.03,
 Gaussian 16:  ES64L-G16RevA.03 25-Dec-2016

 ------------------------------
 #p blyp/Def2SVP td=(nstates=5)
 ------------------------------

 --------------------------------------------------
 step_451_chromophore_17 TDDFT with blyp functional
 --------------------------------------------------
 Symbolic Z-matrix:
 Charge =  0 Multiplicity = 1

                         Standard orientation:
 ---------------------------------------------------------------------
 Center     Atomic      Atomic             Coordinates (Angstroms)
 Number     Number       Type             X           Y           Z
 ---------------------------------------------------------------------
      1         12           0        3.387631    1.709869   -0.608642
      2          6           0        4.390886   -1.680646   -0.422232
      3          6           0        0.781102    0.723957   -2.475399
      4          6           0        2.278771    4.850478   -0.080012
      5          6           0        5.921263    2.379111    1.863665
      6          7           0        2.577844   -0.299163   -1.234044
      7          6           0        3.217408   -1.508481   -1.188160
      8          6           0        2.468534   -2.617748   -1.898187
      9          6           0        1.462033   -1.749967   -2.788419
     10          6           0        1.651792   -0.318128   -2.228277
     11          6           0        1.764779   -1.881128   -4.352024
     12          6           0        1.713702   -3.491328   -0.912382
     13          6           0        1.929075   -5.029948   -1.009142
     14          6           0        0.713795   -5.876218   -0.950832
     15          8           0        0.351070   -6.689062   -1.728202
     16          8           0        0.048238   -5.635187    0.220582
     17          7           0        1.752618    2.776582   -1.261555
     18          6           0        0.772858    2.139396   -1.964723
     19          6           0       -0.216024    3.160639   -2.283771
     20          6           0        0.220641    4.439267   -1.665109
     21          6           0        1.444603    4.042434   -0.937206
     22          6           0       -1.380210    2.961334   -3.222389
     23          6           0       -0.442533    5.856764   -1.716909
     24          8           0       -1.367080    6.023734   -2.532279
     25          6           0        0.157237    7.064269   -1.003123
     26          7           0        4.120563    3.387112    0.683275
     27          6           0        3.402880    4.494718    0.665307
     28          6           0        4.050552    5.494352    1.697598
     29          6           0        5.157171    4.669101    2.357489
     30          6           0        5.112347    3.427596    1.545031
     31          6           0        4.534689    6.886151    1.178491
     32          6           0        5.070112    4.455297    3.936869
     33          6           0        6.387105    4.406328    4.657113
     34          7           0        4.954213    0.606825    0.413414
     35          6           0        5.906022    1.071352    1.328831
     36          6           0        6.755869    0.008532    1.624374
     37          6           0        6.195501   -1.073595    0.952656
     38          6           0        5.054984   -0.697435    0.331105
     39          6           0        7.876554   -0.002359    2.669079
     40          6           0        6.393665   -2.506709    0.655177
     41          8           0        7.308517   -3.216003    1.081890
     42          6           0        5.173440   -3.001445   -0.152378
     43          6           0        5.636400   -3.592110   -1.416657
     44          8           0        5.654795   -3.017727   -2.512623
     45          8           0        6.115940   -4.835066   -1.198658
     46          6           0        6.700707   -5.655162   -2.284013
     47          6           0       -1.340426   -6.192019    0.151705
     48          6           0       -2.093674   -5.659281    1.326934
     49          6           0       -3.445152   -5.627509    1.464948
     50          6           0       -4.545636   -6.396919    0.571799
     51          6           0       -4.038517   -4.839749    2.678951
     52          6           0       -5.418927   -4.226122    2.473575
     53          6           0       -5.538613   -2.797221    3.047245
     54          6           0       -7.016876   -2.283493    3.092049
     55          6           0       -7.353849   -1.625542    4.444725
     56          6           0       -7.307754   -1.249746    1.938929
     57          6           0       -8.852586   -1.038533    1.813099
     58          6           0       -9.528985   -1.299153    0.421723
     59          6           0      -10.043203   -0.067342   -0.302170
     60          6           0      -10.928840   -0.484335   -1.542387
     61          6           0       -8.772484    0.740131   -0.730565
     62          6           0       -8.603121    2.152385   -0.029766
     63          6           0       -7.900890    3.171758   -0.927352
     64          6           0       -8.741225    4.551449   -0.986745
     65          6           0       -8.348996    5.301429   -2.355543
     66          6           0       -8.444968    5.428297    0.276998
     67          1           0       -0.136909    0.544074   -3.038126
     68          1           0        1.833953    5.814667    0.174006
     69          1           0        6.755887    2.526241    2.551787
     70          1           0        3.116811   -3.209177   -2.544389
     71          1           0        0.422223   -2.058431   -2.678337
     72          1           0        1.954016   -2.901829   -4.684728
     73          1           0        2.733896   -1.412772   -4.525966
     74          1           0        0.995587   -1.429087   -4.978608
     75          1           0        0.634813   -3.341375   -0.868949
     76          1           0        2.002364   -3.207161    0.099763
     77          1           0        2.527816   -5.336492   -0.151747
     78          1           0        2.439573   -5.182141   -1.960650
     79          1           0       -1.854154    1.990801   -3.078957
     80          1           0       -1.027849    2.896747   -4.251914
     81          1           0       -2.180749    3.701193   -3.234146
     82          1           0        0.396905    7.036790    0.060133
     83          1           0       -0.602689    7.842714   -1.059001
     84          1           0        1.050957    7.445284   -1.497578
     85          1           0        3.279759    5.626668    2.457687
     86          1           0        6.057136    5.266038    2.208159
     87          1           0        4.103552    7.134903    0.209041
     88          1           0        5.596050    6.860504    0.934962
     89          1           0        4.235486    7.621325    1.925344
     90          1           0        4.662510    3.468737    4.158088
     91          1           0        4.468842    5.248020    4.381540
     92          1           0        6.618739    3.370636    4.907025
     93          1           0        6.319154    4.969359    5.587457
     94          1           0        7.201919    4.742639    4.015683
     95          1           0        8.642758    0.752229    2.489571
     96          1           0        8.179050   -1.048808    2.707161
     97          1           0        7.329213    0.290759    3.565408
     98          1           0        4.553417   -3.752811    0.335132
     99          1           0        6.499711   -5.289966   -3.291721
    100          1           0        6.425080   -6.710017   -2.298132
    101          1           0        7.771128   -5.502757   -2.148848
    102          1           0       -1.311090   -7.247235    0.424861
    103          1           0       -1.929603   -5.921983   -0.724146
    104          1           0       -1.546888   -5.068382    2.062225
    105          1           0       -5.241988   -6.789749    1.313440
    106          1           0       -4.163190   -7.330377    0.157915
    107          1           0       -4.867190   -5.715627   -0.215728
    108          1           0       -3.464006   -3.946314    2.926210
    109          1           0       -4.088705   -5.554729    3.499665
    110          1           0       -6.079754   -4.859697    3.065728
    111          1           0       -5.849253   -4.235163    1.472457
    112          1           0       -4.882643   -2.068620    2.571760
    113          1           0       -5.052801   -2.808515    4.022794
    114          1           0       -7.768780   -3.052690    2.917642
    115          1           0       -8.043981   -0.796902    4.290285
    116          1           0       -6.424008   -1.262139    4.882834
    117          1           0       -7.728782   -2.343520    5.175144
    118          1           0       -7.007608   -1.702094    0.992701
    119          1           0       -6.831229   -0.308358    2.212041
    120          1           0       -9.027460    0.008477    2.057534
    121          1           0       -9.415670   -1.694099    2.476922
    122          1           0      -10.193290   -2.163618    0.436791
    123          1           0       -8.801287   -1.705929   -0.281308
    124          1           0      -10.490944    0.576385    0.454219
    125          1           0      -11.746896    0.234109   -1.571681
    126          1           0      -11.322060   -1.457835   -1.248956
    127          1           0      -10.339304   -0.559456   -2.456772
    128          1           0       -8.697295    0.910216   -1.804604
    129          1           0       -7.837928    0.272360   -0.418953
    130          1           0       -8.091964    1.991713    0.919616
    131          1           0       -9.578063    2.548479    0.256236
    132          1           0       -7.762349    2.765283   -1.929843
    133          1           0       -6.956405    3.468049   -0.472377
    134          1           0       -9.781418    4.277876   -1.160662
    135          1           0       -7.849684    4.555169   -2.973626
    136          1           0       -7.695543    6.167630   -2.255375
    137          1           0       -9.256798    5.705853   -2.802526
    138          1           0       -7.494972    5.347470    0.806142
    139          1           0       -9.358052    5.203251    0.826480
    140          1           0       -8.365084    6.486842    0.031590
 ---------------------------------------------------------------------

 SCF Done:  E(RB-LYP) =  -3007.34427173     A.U. after   21 cycles

 Excitation energies and oscillator strengths:

 Excited State   1:      Singlet-A      1.8105 eV  684.83 nm  f=0.1638  <S**2>=0.000
     244 -> 247        0.46243
     245 -> 247       -0.11522
     245 -> 248       -0.11074
     246 -> 247        0.51203
     246 <- 247       -0.10495
 This state for optimization and/or second-order correction.
 Total Energy, E(TD-HF/TD-DFT) =  -3007.27773891
 Copying the excited state density for this state as the 1-particle RhoCI density.

 Excited State   2:      Singlet-A      1.8863 eV  657.30 nm  f=0.1651  <S**2>=0.000
     244 -> 247        0.49040
     245 -> 247       -0.14942
     245 -> 248        0.11643
     246 -> 247       -0.46059
     246 <- 247        0.10342

 Excited State   3:      Singlet-A      1.9059 eV  650.53 nm  f=0.0051  <S**2>=0.000
     243 -> 247        0.68461
     244 -> 247        0.11805
     245 -> 247        0.10912

 Excited State   4:      Singlet-A      2.0246 eV  612.37 nm  f=0.0908  <S**2>=0.000
     240 -> 247        0.15023
     243 -> 247       -0.14227
     244 -> 247        0.16282
     245 -> 247        0.61873
     246 -> 248        0.16906
     246 -> 249       -0.12582

 Excited State   5:      Singlet-A      2.0877 eV  593.87 nm  f=0.0002  <S**2>=0.000
     242 -> 247        0.70686

 The electronic state is 1-A.
 Alpha  occ. eigenvalues --  -46.28573 -18.82460 -18.81896 -18.76833 -18.76559
 Alpha  occ. eigenvalues --  -18.75891 -18.75799 -14.03664 -14.03107 -14.01545
 Alpha  occ. eigenvalues --  -14.00099 -10.04226 -10.03521 -10.00817  -9.99953
 Alpha  occ. eigenvalues --   -9.98244  -9.97978  -9.96900  -9.96774  -9.96554
 Alpha  occ. eigenvalues --   -9.96480  -9.96292  -9.95838  -9.94760  -9.94736
 Alpha  occ. eigenvalues --   -9.94612  -9.94191  -9.94158  -9.93769  -9.93753
 Alpha  occ. eigenvalues --   -9.93590  -9.93589  -9.93499  -9.93280  -9.93271
 Alpha  occ. eigenvalues --   -9.93153  -9.93146  -9.93076  -9.93031  -9.92902
 Alpha  occ. eigenvalues --   -9.92849  -9.92824  -9.92682  -9.92466  -9.92458
 Alpha  occ. eigenvalues --   -9.92443  -9.92320  -9.91961  -9.91927  -9.91926
 Alpha  occ. eigenvalues --   -9.91723  -9.91541  -9.91346  -9.91332  -9.91311
 Alpha  occ. eigenvalues --   -9.91293  -9.91164  -9.91127  -9.90851  -9.90689
 Alpha  occ. eigenvalues --   -9.90681  -9.90586  -9.90551  -9.90515  -9.90356
 Alpha  occ. eigenvalues --   -9.90142  -2.92944  -1.73377  -1.72852  -1.72629
 Alpha  occ. eigenvalues --   -0.98929  -0.97875  -0.90930  -0.90725  -0.90539
 Alpha  occ. eigenvalues --   -0.89394  -0.88266  -0.87045  -0.86250  -0.85563
 Alpha  occ. eigenvalues --   -0.75730  -0.73447  -0.73043  -0.72975  -0.72349
 Alpha  occ. eigenvalues --   -0.71879  -0.71263  -0.70641  -0.70174  -0.69983
 Alpha  occ. eigenvalues --   -0.69229  -0.68514  -0.68241  -0.68012  -0.67665
 Alpha  occ. eigenvalues --   -0.66633  -0.65676  -0.65398  -0.64931  -0.64495
 Alpha  occ. eigenvalues --   -0.63595  -0.62558  -0.62432  -0.61747  -0.61205
 Alpha  occ. eigenvalues --   -0.60259  -0.60030  -0.59523  -0.59141  -0.58368
 Alpha  occ. eigenvalues --   -0.58209  -0.57518  -0.57027  -0.56016  -0.54367
 Alpha  occ. eigenvalues --   -0.53787  -0.53039  -0.52738  -0.52167  -0.51615
 Alpha  occ. eigenvalues --   -0.51480  -0.51307  -0.51007  -0.50523  -0.49734
 Alpha  occ. eigenvalues --   -0.49688  -0.48966  -0.48912  -0.48509  -0.46755
 Alpha  occ. eigenvalues --   -0.46375  -0.46120  -0.45599  -0.45540  -0.44803
 Alpha  occ. eigenvalues --   -0.44688  -0.43967  -0.43531  -0.43232  -0.42837
 Alpha  occ. eigenvalues --   -0.42540  -0.41857  -0.41529  -0.41227  -0.41095
 Alpha  occ. eigenvalues --   -0.40783  -0.40721  -0.40561  -0.40526  -0.40191
 Alpha  occ. eigenvalues --   -0.39972  -0.39734  -0.39241  -0.38963  -0.38866
 Alpha  occ. eigenvalues --   -0.38759  -0.38637  -0.38617  -0.38425  -0.38162
 Alpha  occ. eigenvalues --   -0.37963  -0.37685  -0.37514  -0.37424  -0.37059
 Alpha  occ. eigenvalues --   -0.36919  -0.36744  -0.36557  -0.36448  -0.36294
 Alpha  occ. eigenvalues --   -0.36232  -0.36048  -0.35929  -0.35814  -0.35617
 Alpha  occ. eigenvalues --   -0.35213  -0.35031  -0.34912  -0.34892  -0.34853
 Alpha  occ. eigenvalues --   -0.34669  -0.34632  -0.34343  -0.34276  -0.34096
 Alpha  occ. eigenvalues --   -0.33940  -0.33827  -0.33491  -0.33319  -0.33179
 Alpha  occ. eigenvalues --   -0.33133  -0.32782  -0.32759  -0.32544  -0.32152
 Alpha  occ. eigenvalues --   -0.31948  -0.31620  -0.31473  -0.31371  -0.31334
 Alpha  occ. eigenvalues --   -0.31259  -0.31094  -0.30888  -0.30784  -0.30570
 Alpha  occ. eigenvalues --   -0.30285  -0.30260  -0.30004  -0.29897  -0.29564
 Alpha  occ. eigenvalues --   -0.29518  -0.29367  -0.29315  -0.29137  -0.29050
 Alpha  occ. eigenvalues --   -0.28681  -0.28587  -0.28346  -0.27862  -0.27730
 Alpha  occ. eigenvalues --   -0.27722  -0.27270  -0.26838  -0.26566  -0.26060
 Alpha  occ. eigenvalues --   -0.25867  -0.25838  -0.25794  -0.25431  -0.25225
 Alpha  occ. eigenvalues --   -0.25159  -0.25096  -0.24412  -0.24037  -0.23482
 Alpha  occ. eigenvalues --   -0.23124  -0.22511  -0.22000  -0.21900  -0.20210
 Alpha  occ. eigenvalues --   -0.19873  -0.19670  -0.18937  -0.18701  -0.17437
 Alpha  occ. eigenvalues --   -0.16388
 Alpha virt. eigenvalues --   -0.11998  -0.06860  -0.06184  -0.05253  -0.02835
 Alpha virt. eigenvalues --   -0.02612  -0.02304  -0.01712  -0.01274  -0.00212
 Alpha virt. eigenvalues --    0.00884   0.01464   0.02525   0.02669   0.03048

 Mulliken charges:
               1
     1  Mg   0.675694
     2  C    0.003430
     3  C   -0.061619
     4  C   -0.029346
     5  C   -0.093405
     6  N   -0.212125
     7  C   -0.082148
     8  C    0.034416
     9  C   -0.013315
    10  C    0.113729
    11  C    0.099329
    12  C    0.120271
    13  C    0.159460
    14  C    0.018741
    15  O   -0.142456
    16  O   -0.298197
    17  N   -0.303640
    18  C    0.095637
    19  C   -0.130026
    20  C    0.012851
    21  C    0.077108
    22  C    0.157148
    23  C   -0.026208
    24  O   -0.181612
    25  C    0.106080
    26  N   -0.127663
    27  C    0.006275
    28  C   -0.008120
    29  C    0.038013
    30  C    0.028192
    31  C    0.141640
    32  C    0.085592
    33  C    0.067628
    34  N   -0.230975
    35  C    0.108163
    36  C   -0.219533
    37  C    0.098304
    38  C    0.060527
    39  C    0.188550
    40  C   -0.048438
    41  O   -0.138225
    42  C    0.093528
    43  C    0.085860
    44  O   -0.202848
    45  O   -0.252809
    46  C    0.210959
    47  C    0.350876
    48  C   -0.135039
    49  C   -0.188251
    50  C    0.129784
    51  C    0.132828
    52  C    0.041850
    53  C    0.113085
    54  C   -0.080829
    55  C    0.108139
    56  C    0.085344
    57  C    0.064496
    58  C    0.062328
    59  C   -0.064566
    60  C    0.137175
    61  C    0.068305
    62  C    0.039518
    63  C    0.095893
    64  C   -0.124899
    65  C    0.083783
    66  C    0.111782
    67  H   -0.054937
    68  H   -0.088752
    69  H   -0.078283
    70  H   -0.007029
    71  H   -0.019801
    72  H   -0.003431
    73  H   -0.006015
    74  H    0.000199
    75  H   -0.019414
    76  H   -0.022038
    77  H    0.011060
    78  H   -0.011457
    79  H   -0.017757
    80  H   -0.003945
    81  H    0.007828
    82  H    0.019574
    83  H   -0.011207
    84  H    0.022436
    85  H   -0.029592
    86  H   -0.034913
    87  H   -0.016808
    88  H   -0.011602
    89  H    0.002150
    90  H   -0.015748
    91  H   -0.019281
    92  H   -0.006547
    93  H   -0.008770
    94  H   -0.009624
    95  H    0.002509
    96  H    0.016977
    97  H   -0.001491
    98  H    0.011724
    99  H    0.013450
   100  H    0.029706
   101  H    0.023094
   102  H    0.010514
   103  H    0.020314
   104  H   -0.031848
   105  H    0.000137
   106  H   -0.013052
   107  H    0.028779
   108  H   -0.017914
   109  H   -0.009672
   110  H   -0.038663
   111  H   -0.024331
   112  H   -0.035261
   113  H   -0.045929
   114  H   -0.039365
   115  H   -0.013059
   116  H   -0.023539
   117  H   -0.015973
   118  H   -0.020662
   119  H   -0.022055
   120  H   -0.023513
   121  H   -0.018990
   122  H   -0.048758
   123  H   -0.052671
   124  H   -0.034074
   125  H   -0.009003
   126  H   -0.021846
   127  H   -0.000598
   128  H   -0.035613
   129  H   -0.022083
   130  H   -0.029195
   131  H   -0.032183
   132  H   -0.022982
   133  H   -0.029036
   134  H   -0.023855
   135  H   -0.018644
   136  H   -0.016856
   137  H   -0.016440
   138  H   -0.007283
   139  H   -0.000998
   140  H   -0.022082
 Sum of Mulliken charges =  -0.00000

 Dipole moment (field-independent basis, Debye):
    X=             -0.4123    Y=              1.3866    Z=              2.4302  Tot=              2.8282
 Quadrupole moment (field-independent basis, Debye-Ang):
   XX=           -412.7812   YY=           -400.3987   ZZ=           -404.4514
   XY=             36.8846   XZ=             -5.1939   YZ=             21.6767

 Normal termination of Gaussian 16 at Wed May  4 22:05:51 2022.
