 Gaussian 16, Revision A.03,
 Gaussian 16:  ES64L-G16RevA.03 25-Dec-2016

 -----------------------------------
 #p cam-b3lyp/Def2SVP td=(nstates=5)
 -----------------------------------

 -------------------------------------------------------
 step_451_chromophore_17 TDDFT with cam-b3lyp functional
 -------------------------------------------------------
 Symbolic Z-matrix:
 Charge =  0 Multiplicity = 1

                         Standard orientation:
 ---------------------------------------------------------------------
 Center     Atomic      Atomic             Coordinates (Angstroms)
 Number     Number       Type             X           Y           Z
 ---------------------------------------------------------------------
      1         12           0        3.387631    1.709869   -0.608642
      2          6           0        4.390886   -1.680646   -0.422232
      3          6           0        0.781102    0.723957   -2.475399
      4          6           0        2.278771    4.850478   -0.080012
      5          6           0        5.921263    2.379111    1.863665
      6          7           0        2.577844   -0.299163   -1.234044
      7          6           0        3.217408   -1.508481   -1.188160
      8          6           0        2.468534   -2.617748   -1.898187
      9          6           0        1.462033   -1.749967   -2.788419
     10          6           0        1.651792   -0.318128   -2.228277
     11          6           0        1.764779   -1.881128   -4.352024
     12          6           0        1.713702   -3.491328   -0.912382
     13          6           0        1.929075   -5.029948   -1.009142
     14          6           0        0.713795   -5.876218   -0.950832
     15          8           0        0.351070   -6.689062   -1.728202
     16          8           0        0.048238   -5.635187    0.220582
     17          7           0        1.752618    2.776582   -1.261555
     18          6           0        0.772858    2.139396   -1.964723
     19          6           0       -0.216024    3.160639   -2.283771
     20          6           0        0.220641    4.439267   -1.665109
     21          6           0        1.444603    4.042434   -0.937206
     22          6           0       -1.380210    2.961334   -3.222389
     23          6           0       -0.442533    5.856764   -1.716909
     24          8           0       -1.367080    6.023734   -2.532279
     25          6           0        0.157237    7.064269   -1.003123
     26          7           0        4.120563    3.387112    0.683275
     27          6           0        3.402880    4.494718    0.665307
     28          6           0        4.050552    5.494352    1.697598
     29          6           0        5.157171    4.669101    2.357489
     30          6           0        5.112347    3.427596    1.545031
     31          6           0        4.534689    6.886151    1.178491
     32          6           0        5.070112    4.455297    3.936869
     33          6           0        6.387105    4.406328    4.657113
     34          7           0        4.954213    0.606825    0.413414
     35          6           0        5.906022    1.071352    1.328831
     36          6           0        6.755869    0.008532    1.624374
     37          6           0        6.195501   -1.073595    0.952656
     38          6           0        5.054984   -0.697435    0.331105
     39          6           0        7.876554   -0.002359    2.669079
     40          6           0        6.393665   -2.506709    0.655177
     41          8           0        7.308517   -3.216003    1.081890
     42          6           0        5.173440   -3.001445   -0.152378
     43          6           0        5.636400   -3.592110   -1.416657
     44          8           0        5.654795   -3.017727   -2.512623
     45          8           0        6.115940   -4.835066   -1.198658
     46          6           0        6.700707   -5.655162   -2.284013
     47          6           0       -1.340426   -6.192019    0.151705
     48          6           0       -2.093674   -5.659281    1.326934
     49          6           0       -3.445152   -5.627509    1.464948
     50          6           0       -4.545636   -6.396919    0.571799
     51          6           0       -4.038517   -4.839749    2.678951
     52          6           0       -5.418927   -4.226122    2.473575
     53          6           0       -5.538613   -2.797221    3.047245
     54          6           0       -7.016876   -2.283493    3.092049
     55          6           0       -7.353849   -1.625542    4.444725
     56          6           0       -7.307754   -1.249746    1.938929
     57          6           0       -8.852586   -1.038533    1.813099
     58          6           0       -9.528985   -1.299153    0.421723
     59          6           0      -10.043203   -0.067342   -0.302170
     60          6           0      -10.928840   -0.484335   -1.542387
     61          6           0       -8.772484    0.740131   -0.730565
     62          6           0       -8.603121    2.152385   -0.029766
     63          6           0       -7.900890    3.171758   -0.927352
     64          6           0       -8.741225    4.551449   -0.986745
     65          6           0       -8.348996    5.301429   -2.355543
     66          6           0       -8.444968    5.428297    0.276998
     67          1           0       -0.136909    0.544074   -3.038126
     68          1           0        1.833953    5.814667    0.174006
     69          1           0        6.755887    2.526241    2.551787
     70          1           0        3.116811   -3.209177   -2.544389
     71          1           0        0.422223   -2.058431   -2.678337
     72          1           0        1.954016   -2.901829   -4.684728
     73          1           0        2.733896   -1.412772   -4.525966
     74          1           0        0.995587   -1.429087   -4.978608
     75          1           0        0.634813   -3.341375   -0.868949
     76          1           0        2.002364   -3.207161    0.099763
     77          1           0        2.527816   -5.336492   -0.151747
     78          1           0        2.439573   -5.182141   -1.960650
     79          1           0       -1.854154    1.990801   -3.078957
     80          1           0       -1.027849    2.896747   -4.251914
     81          1           0       -2.180749    3.701193   -3.234146
     82          1           0        0.396905    7.036790    0.060133
     83          1           0       -0.602689    7.842714   -1.059001
     84          1           0        1.050957    7.445284   -1.497578
     85          1           0        3.279759    5.626668    2.457687
     86          1           0        6.057136    5.266038    2.208159
     87          1           0        4.103552    7.134903    0.209041
     88          1           0        5.596050    6.860504    0.934962
     89          1           0        4.235486    7.621325    1.925344
     90          1           0        4.662510    3.468737    4.158088
     91          1           0        4.468842    5.248020    4.381540
     92          1           0        6.618739    3.370636    4.907025
     93          1           0        6.319154    4.969359    5.587457
     94          1           0        7.201919    4.742639    4.015683
     95          1           0        8.642758    0.752229    2.489571
     96          1           0        8.179050   -1.048808    2.707161
     97          1           0        7.329213    0.290759    3.565408
     98          1           0        4.553417   -3.752811    0.335132
     99          1           0        6.499711   -5.289966   -3.291721
    100          1           0        6.425080   -6.710017   -2.298132
    101          1           0        7.771128   -5.502757   -2.148848
    102          1           0       -1.311090   -7.247235    0.424861
    103          1           0       -1.929603   -5.921983   -0.724146
    104          1           0       -1.546888   -5.068382    2.062225
    105          1           0       -5.241988   -6.789749    1.313440
    106          1           0       -4.163190   -7.330377    0.157915
    107          1           0       -4.867190   -5.715627   -0.215728
    108          1           0       -3.464006   -3.946314    2.926210
    109          1           0       -4.088705   -5.554729    3.499665
    110          1           0       -6.079754   -4.859697    3.065728
    111          1           0       -5.849253   -4.235163    1.472457
    112          1           0       -4.882643   -2.068620    2.571760
    113          1           0       -5.052801   -2.808515    4.022794
    114          1           0       -7.768780   -3.052690    2.917642
    115          1           0       -8.043981   -0.796902    4.290285
    116          1           0       -6.424008   -1.262139    4.882834
    117          1           0       -7.728782   -2.343520    5.175144
    118          1           0       -7.007608   -1.702094    0.992701
    119          1           0       -6.831229   -0.308358    2.212041
    120          1           0       -9.027460    0.008477    2.057534
    121          1           0       -9.415670   -1.694099    2.476922
    122          1           0      -10.193290   -2.163618    0.436791
    123          1           0       -8.801287   -1.705929   -0.281308
    124          1           0      -10.490944    0.576385    0.454219
    125          1           0      -11.746896    0.234109   -1.571681
    126          1           0      -11.322060   -1.457835   -1.248956
    127          1           0      -10.339304   -0.559456   -2.456772
    128          1           0       -8.697295    0.910216   -1.804604
    129          1           0       -7.837928    0.272360   -0.418953
    130          1           0       -8.091964    1.991713    0.919616
    131          1           0       -9.578063    2.548479    0.256236
    132          1           0       -7.762349    2.765283   -1.929843
    133          1           0       -6.956405    3.468049   -0.472377
    134          1           0       -9.781418    4.277876   -1.160662
    135          1           0       -7.849684    4.555169   -2.973626
    136          1           0       -7.695543    6.167630   -2.255375
    137          1           0       -9.256798    5.705853   -2.802526
    138          1           0       -7.494972    5.347470    0.806142
    139          1           0       -9.358052    5.203251    0.826480
    140          1           0       -8.365084    6.486842    0.031590
 ---------------------------------------------------------------------

 SCF Done:  E(RCAM-B3LYP) =  -3007.13571120     A.U. after   18 cycles

 Excitation energies and oscillator strengths:

 Excited State   1:      Singlet-A      1.7315 eV  716.05 nm  f=0.3961  <S**2>=0.000
     245 -> 248        0.17785
     246 -> 247        0.68593
     245 <- 248        0.10755
 This state for optimization and/or second-order correction.
 Total Energy, E(TD-HF/TD-DFT) =  -3007.07208007
 Copying the excited state density for this state as the 1-particle RhoCI density.

 Excited State   2:      Singlet-A      2.1861 eV  567.15 nm  f=0.1672  <S**2>=0.000
     245 -> 247        0.65902
     246 -> 248       -0.23732

 Excited State   3:      Singlet-A      3.0956 eV  400.51 nm  f=0.0022  <S**2>=0.000
     243 -> 247        0.52471
     244 -> 247        0.44357

 Excited State   4:      Singlet-A      3.1594 eV  392.43 nm  f=0.0205  <S**2>=0.000
     243 -> 247       -0.42743
     244 -> 247        0.53213

 Excited State   5:      Singlet-A      3.4579 eV  358.56 nm  f=0.0005  <S**2>=0.000
     241 -> 247        0.58556
     241 -> 249        0.24993
     241 -> 250        0.15973

 The electronic state is 1-A.
 Alpha  occ. eigenvalues --  -46.90222 -19.25452 -19.24805 -19.19882 -19.19699
 Alpha  occ. eigenvalues --  -19.19156 -19.19045 -14.42531 -14.41946 -14.39981
 Alpha  occ. eigenvalues --  -14.38383 -10.39772 -10.38685 -10.36106 -10.35363
 Alpha  occ. eigenvalues --  -10.32302 -10.32032 -10.31457 -10.31202 -10.31007
 Alpha  occ. eigenvalues --  -10.30823 -10.30715 -10.30130 -10.29150 -10.28947
 Alpha  occ. eigenvalues --  -10.28695 -10.28664 -10.28257 -10.28030 -10.27901
 Alpha  occ. eigenvalues --  -10.27805 -10.27553 -10.27530 -10.27455 -10.27385
 Alpha  occ. eigenvalues --  -10.27267 -10.27204 -10.27171 -10.27166 -10.26788
 Alpha  occ. eigenvalues --  -10.26785 -10.26624 -10.26579 -10.26571 -10.26222
 Alpha  occ. eigenvalues --  -10.26188 -10.26151 -10.25729 -10.25656 -10.25553
 Alpha  occ. eigenvalues --  -10.25466 -10.25350 -10.25248 -10.25038 -10.25034
 Alpha  occ. eigenvalues --  -10.24979 -10.24847 -10.24786 -10.24447 -10.24399
 Alpha  occ. eigenvalues --  -10.24389 -10.24301 -10.24291 -10.24242 -10.24199
 Alpha  occ. eigenvalues --  -10.23780  -3.18483  -1.93396  -1.92949  -1.92757
 Alpha  occ. eigenvalues --   -1.17513  -1.16465  -1.09363  -1.08903  -1.08615
 Alpha  occ. eigenvalues --   -1.07390  -1.06068  -1.04742  -1.03887  -1.03076
 Alpha  occ. eigenvalues --   -0.92910  -0.90280  -0.89885  -0.89698  -0.89144
 Alpha  occ. eigenvalues --   -0.88542  -0.87929  -0.87198  -0.86698  -0.86537
 Alpha  occ. eigenvalues --   -0.85601  -0.84926  -0.84550  -0.84263  -0.83873
 Alpha  occ. eigenvalues --   -0.82718  -0.81723  -0.81409  -0.80858  -0.80361
 Alpha  occ. eigenvalues --   -0.79340  -0.78174  -0.78000  -0.77331  -0.76665
 Alpha  occ. eigenvalues --   -0.75615  -0.75341  -0.74862  -0.74406  -0.73496
 Alpha  occ. eigenvalues --   -0.73365  -0.72528  -0.71893  -0.70874  -0.68946
 Alpha  occ. eigenvalues --   -0.68381  -0.67573  -0.67127  -0.66328  -0.65844
 Alpha  occ. eigenvalues --   -0.65656  -0.65445  -0.65260  -0.64534  -0.63786
 Alpha  occ. eigenvalues --   -0.63554  -0.62938  -0.62601  -0.62418  -0.60473
 Alpha  occ. eigenvalues --   -0.60026  -0.59613  -0.59138  -0.58955  -0.58483
 Alpha  occ. eigenvalues --   -0.58177  -0.57336  -0.56838  -0.56472  -0.55933
 Alpha  occ. eigenvalues --   -0.55720  -0.54757  -0.54657  -0.54302  -0.54177
 Alpha  occ. eigenvalues --   -0.53760  -0.53640  -0.53257  -0.53223  -0.52941
 Alpha  occ. eigenvalues --   -0.52467  -0.52401  -0.51904  -0.51607  -0.51422
 Alpha  occ. eigenvalues --   -0.51363  -0.51264  -0.51023  -0.50994  -0.50444
 Alpha  occ. eigenvalues --   -0.50385  -0.49957  -0.49826  -0.49716  -0.49449
 Alpha  occ. eigenvalues --   -0.49168  -0.49085  -0.49020  -0.48950  -0.48694
 Alpha  occ. eigenvalues --   -0.48602  -0.48343  -0.48227  -0.47984  -0.47670
 Alpha  occ. eigenvalues --   -0.47317  -0.47091  -0.46874  -0.46853  -0.46808
 Alpha  occ. eigenvalues --   -0.46548  -0.46437  -0.46213  -0.46113  -0.45930
 Alpha  occ. eigenvalues --   -0.45796  -0.45580  -0.45511  -0.45120  -0.45004
 Alpha  occ. eigenvalues --   -0.44820  -0.44598  -0.44378  -0.44070  -0.43730
 Alpha  occ. eigenvalues --   -0.43561  -0.43291  -0.43167  -0.43096  -0.42929
 Alpha  occ. eigenvalues --   -0.42762  -0.42542  -0.42324  -0.42168  -0.41930
 Alpha  occ. eigenvalues --   -0.41857  -0.41726  -0.41332  -0.41262  -0.41101
 Alpha  occ. eigenvalues --   -0.40894  -0.40712  -0.40422  -0.40259  -0.40176
 Alpha  occ. eigenvalues --   -0.39712  -0.39664  -0.39440  -0.38843  -0.38700
 Alpha  occ. eigenvalues --   -0.38572  -0.38094  -0.37640  -0.37554  -0.37413
 Alpha  occ. eigenvalues --   -0.37019  -0.36717  -0.36662  -0.36547  -0.36083
 Alpha  occ. eigenvalues --   -0.35891  -0.35782  -0.34856  -0.34596  -0.34355
 Alpha  occ. eigenvalues --   -0.34068  -0.33864  -0.33185  -0.31659  -0.31265
 Alpha  occ. eigenvalues --   -0.30906  -0.29397  -0.29330  -0.29089  -0.24051
 Alpha  occ. eigenvalues --   -0.21847
 Alpha virt. eigenvalues --   -0.09305  -0.01495   0.00287   0.01698   0.02259
 Alpha virt. eigenvalues --    0.04784   0.04993   0.05588   0.06183   0.06809
 Alpha virt. eigenvalues --    0.07722   0.08344   0.08784   0.08963   0.09483

 Mulliken charges:
               1
     1  Mg   0.805812
     2  C   -0.023120
     3  C   -0.066868
     4  C   -0.044661
     5  C   -0.099741
     6  N   -0.278993
     7  C   -0.036406
     8  C   -0.023678
     9  C   -0.061831
    10  C    0.119661
    11  C    0.047935
    12  C    0.068128
    13  C    0.087227
    14  C    0.101583
    15  O   -0.183274
    16  O   -0.360722
    17  N   -0.393039
    18  C    0.103820
    19  C   -0.140359
    20  C   -0.050317
    21  C    0.107069
    22  C    0.098428
    23  C    0.047230
    24  O   -0.220583
    25  C    0.022306
    26  N   -0.202788
    27  C    0.029146
    28  C   -0.063865
    29  C   -0.017727
    30  C    0.052263
    31  C    0.081291
    32  C    0.029756
    33  C    0.003266
    34  N   -0.319494
    35  C    0.110934
    36  C   -0.207863
    37  C    0.011491
    38  C    0.098307
    39  C    0.135577
    40  C    0.051187
    41  O   -0.175365
    42  C    0.016410
    43  C    0.176778
    44  O   -0.240958
    45  O   -0.317250
    46  C    0.173804
    47  C    0.314412
    48  C   -0.153320
    49  C   -0.204750
    50  C    0.065560
    51  C    0.074440
    52  C   -0.011259
    53  C    0.056428
    54  C   -0.136617
    55  C    0.050201
    56  C    0.037623
    57  C    0.004874
    58  C    0.014082
    59  C   -0.122979
    60  C    0.079319
    61  C    0.017047
    62  C   -0.006578
    63  C    0.043073
    64  C   -0.182048
    65  C    0.028864
    66  C    0.050102
    67  H   -0.020359
    68  H   -0.055951
    69  H   -0.040856
    70  H    0.027567
    71  H    0.014351
    72  H    0.020122
    73  H    0.017710
    74  H    0.023966
    75  H    0.013651
    76  H    0.011795
    77  H    0.041335
    78  H    0.019970
    79  H    0.006225
    80  H    0.022788
    81  H    0.038524
    82  H    0.046755
    83  H    0.024785
    84  H    0.050861
    85  H    0.005193
    86  H    0.000279
    87  H    0.007849
    88  H    0.013469
    89  H    0.026138
    90  H    0.014828
    91  H    0.008949
    92  H    0.014708
    93  H    0.017410
    94  H    0.012800
    95  H    0.027392
    96  H    0.045059
    97  H    0.022614
    98  H    0.051862
    99  H    0.039370
   100  H    0.050792
   101  H    0.045854
   102  H    0.038985
   103  H    0.046519
   104  H    0.004232
   105  H    0.024740
   106  H    0.012945
   107  H    0.051303
   108  H    0.010085
   109  H    0.019600
   110  H   -0.009229
   111  H    0.002167
   112  H   -0.005957
   113  H   -0.015466
   114  H   -0.007819
   115  H    0.010788
   116  H    0.000673
   117  H    0.009167
   118  H    0.005295
   119  H    0.004621
   120  H    0.001837
   121  H    0.009619
   122  H   -0.017787
   123  H   -0.023655
   124  H   -0.002836
   125  H    0.015715
   126  H    0.002086
   127  H    0.021964
   128  H   -0.007779
   129  H    0.004982
   130  H   -0.004041
   131  H   -0.006558
   132  H    0.003231
   133  H   -0.000966
   134  H    0.006716
   135  H    0.004388
   136  H    0.006345
   137  H    0.007228
   138  H    0.016523
   139  H    0.021174
   140  H    0.002375
 Sum of Mulliken charges =  -0.00000

 Dipole moment (field-independent basis, Debye):
    X=             -0.4821    Y=              1.6199    Z=              2.4683  Tot=              2.9915
 Quadrupole moment (field-independent basis, Debye-Ang):
   XX=           -412.5215   YY=           -396.5126   ZZ=           -403.7649
   XY=             37.3972   XZ=             -4.7692   YZ=             23.3678

 Normal termination of Gaussian 16 at Wed May  4 21:01:21 2022.
