 Gaussian 16, Revision A.03,
 Gaussian 16:  ES64L-G16RevA.03 25-Dec-2016

 ---------------------------------
 #p PBE1PBE/Def2SVP td=(nstates=5)
 ---------------------------------

 -----------------------------------------------------
 step_451_chromophore_17 TDDFT with PBE1PBE functional
 -----------------------------------------------------
 Symbolic Z-matrix:
 Charge =  0 Multiplicity = 1

                         Standard orientation:
 ---------------------------------------------------------------------
 Center     Atomic      Atomic             Coordinates (Angstroms)
 Number     Number       Type             X           Y           Z
 ---------------------------------------------------------------------
      1         12           0        3.387631    1.709869   -0.608642
      2          6           0        4.390886   -1.680646   -0.422232
      3          6           0        0.781102    0.723957   -2.475399
      4          6           0        2.278771    4.850478   -0.080012
      5          6           0        5.921263    2.379111    1.863665
      6          7           0        2.577844   -0.299163   -1.234044
      7          6           0        3.217408   -1.508481   -1.188160
      8          6           0        2.468534   -2.617748   -1.898187
      9          6           0        1.462033   -1.749967   -2.788419
     10          6           0        1.651792   -0.318128   -2.228277
     11          6           0        1.764779   -1.881128   -4.352024
     12          6           0        1.713702   -3.491328   -0.912382
     13          6           0        1.929075   -5.029948   -1.009142
     14          6           0        0.713795   -5.876218   -0.950832
     15          8           0        0.351070   -6.689062   -1.728202
     16          8           0        0.048238   -5.635187    0.220582
     17          7           0        1.752618    2.776582   -1.261555
     18          6           0        0.772858    2.139396   -1.964723
     19          6           0       -0.216024    3.160639   -2.283771
     20          6           0        0.220641    4.439267   -1.665109
     21          6           0        1.444603    4.042434   -0.937206
     22          6           0       -1.380210    2.961334   -3.222389
     23          6           0       -0.442533    5.856764   -1.716909
     24          8           0       -1.367080    6.023734   -2.532279
     25          6           0        0.157237    7.064269   -1.003123
     26          7           0        4.120563    3.387112    0.683275
     27          6           0        3.402880    4.494718    0.665307
     28          6           0        4.050552    5.494352    1.697598
     29          6           0        5.157171    4.669101    2.357489
     30          6           0        5.112347    3.427596    1.545031
     31          6           0        4.534689    6.886151    1.178491
     32          6           0        5.070112    4.455297    3.936869
     33          6           0        6.387105    4.406328    4.657113
     34          7           0        4.954213    0.606825    0.413414
     35          6           0        5.906022    1.071352    1.328831
     36          6           0        6.755869    0.008532    1.624374
     37          6           0        6.195501   -1.073595    0.952656
     38          6           0        5.054984   -0.697435    0.331105
     39          6           0        7.876554   -0.002359    2.669079
     40          6           0        6.393665   -2.506709    0.655177
     41          8           0        7.308517   -3.216003    1.081890
     42          6           0        5.173440   -3.001445   -0.152378
     43          6           0        5.636400   -3.592110   -1.416657
     44          8           0        5.654795   -3.017727   -2.512623
     45          8           0        6.115940   -4.835066   -1.198658
     46          6           0        6.700707   -5.655162   -2.284013
     47          6           0       -1.340426   -6.192019    0.151705
     48          6           0       -2.093674   -5.659281    1.326934
     49          6           0       -3.445152   -5.627509    1.464948
     50          6           0       -4.545636   -6.396919    0.571799
     51          6           0       -4.038517   -4.839749    2.678951
     52          6           0       -5.418927   -4.226122    2.473575
     53          6           0       -5.538613   -2.797221    3.047245
     54          6           0       -7.016876   -2.283493    3.092049
     55          6           0       -7.353849   -1.625542    4.444725
     56          6           0       -7.307754   -1.249746    1.938929
     57          6           0       -8.852586   -1.038533    1.813099
     58          6           0       -9.528985   -1.299153    0.421723
     59          6           0      -10.043203   -0.067342   -0.302170
     60          6           0      -10.928840   -0.484335   -1.542387
     61          6           0       -8.772484    0.740131   -0.730565
     62          6           0       -8.603121    2.152385   -0.029766
     63          6           0       -7.900890    3.171758   -0.927352
     64          6           0       -8.741225    4.551449   -0.986745
     65          6           0       -8.348996    5.301429   -2.355543
     66          6           0       -8.444968    5.428297    0.276998
     67          1           0       -0.136909    0.544074   -3.038126
     68          1           0        1.833953    5.814667    0.174006
     69          1           0        6.755887    2.526241    2.551787
     70          1           0        3.116811   -3.209177   -2.544389
     71          1           0        0.422223   -2.058431   -2.678337
     72          1           0        1.954016   -2.901829   -4.684728
     73          1           0        2.733896   -1.412772   -4.525966
     74          1           0        0.995587   -1.429087   -4.978608
     75          1           0        0.634813   -3.341375   -0.868949
     76          1           0        2.002364   -3.207161    0.099763
     77          1           0        2.527816   -5.336492   -0.151747
     78          1           0        2.439573   -5.182141   -1.960650
     79          1           0       -1.854154    1.990801   -3.078957
     80          1           0       -1.027849    2.896747   -4.251914
     81          1           0       -2.180749    3.701193   -3.234146
     82          1           0        0.396905    7.036790    0.060133
     83          1           0       -0.602689    7.842714   -1.059001
     84          1           0        1.050957    7.445284   -1.497578
     85          1           0        3.279759    5.626668    2.457687
     86          1           0        6.057136    5.266038    2.208159
     87          1           0        4.103552    7.134903    0.209041
     88          1           0        5.596050    6.860504    0.934962
     89          1           0        4.235486    7.621325    1.925344
     90          1           0        4.662510    3.468737    4.158088
     91          1           0        4.468842    5.248020    4.381540
     92          1           0        6.618739    3.370636    4.907025
     93          1           0        6.319154    4.969359    5.587457
     94          1           0        7.201919    4.742639    4.015683
     95          1           0        8.642758    0.752229    2.489571
     96          1           0        8.179050   -1.048808    2.707161
     97          1           0        7.329213    0.290759    3.565408
     98          1           0        4.553417   -3.752811    0.335132
     99          1           0        6.499711   -5.289966   -3.291721
    100          1           0        6.425080   -6.710017   -2.298132
    101          1           0        7.771128   -5.502757   -2.148848
    102          1           0       -1.311090   -7.247235    0.424861
    103          1           0       -1.929603   -5.921983   -0.724146
    104          1           0       -1.546888   -5.068382    2.062225
    105          1           0       -5.241988   -6.789749    1.313440
    106          1           0       -4.163190   -7.330377    0.157915
    107          1           0       -4.867190   -5.715627   -0.215728
    108          1           0       -3.464006   -3.946314    2.926210
    109          1           0       -4.088705   -5.554729    3.499665
    110          1           0       -6.079754   -4.859697    3.065728
    111          1           0       -5.849253   -4.235163    1.472457
    112          1           0       -4.882643   -2.068620    2.571760
    113          1           0       -5.052801   -2.808515    4.022794
    114          1           0       -7.768780   -3.052690    2.917642
    115          1           0       -8.043981   -0.796902    4.290285
    116          1           0       -6.424008   -1.262139    4.882834
    117          1           0       -7.728782   -2.343520    5.175144
    118          1           0       -7.007608   -1.702094    0.992701
    119          1           0       -6.831229   -0.308358    2.212041
    120          1           0       -9.027460    0.008477    2.057534
    121          1           0       -9.415670   -1.694099    2.476922
    122          1           0      -10.193290   -2.163618    0.436791
    123          1           0       -8.801287   -1.705929   -0.281308
    124          1           0      -10.490944    0.576385    0.454219
    125          1           0      -11.746896    0.234109   -1.571681
    126          1           0      -11.322060   -1.457835   -1.248956
    127          1           0      -10.339304   -0.559456   -2.456772
    128          1           0       -8.697295    0.910216   -1.804604
    129          1           0       -7.837928    0.272360   -0.418953
    130          1           0       -8.091964    1.991713    0.919616
    131          1           0       -9.578063    2.548479    0.256236
    132          1           0       -7.762349    2.765283   -1.929843
    133          1           0       -6.956405    3.468049   -0.472377
    134          1           0       -9.781418    4.277876   -1.160662
    135          1           0       -7.849684    4.555169   -2.973626
    136          1           0       -7.695543    6.167630   -2.255375
    137          1           0       -9.256798    5.705853   -2.802526
    138          1           0       -7.494972    5.347470    0.806142
    139          1           0       -9.358052    5.203251    0.826480
    140          1           0       -8.365084    6.486842    0.031590
 ---------------------------------------------------------------------

 SCF Done:  E(RPBE1PBE) =  -3005.32411955     A.U. after   15 cycles

 Excitation energies and oscillator strengths:

 Excited State   1:      Singlet-A      1.8954 eV  654.13 nm  f=0.3839  <S**2>=0.000
     245 -> 248        0.16729
     246 -> 247        0.69248
     246 <- 247       -0.10629
 This state for optimization and/or second-order correction.
 Total Energy, E(TD-HF/TD-DFT) =  -3005.25446463
 Copying the excited state density for this state as the 1-particle RhoCI density.

 Excited State   2:      Singlet-A      2.2121 eV  560.47 nm  f=0.1458  <S**2>=0.000
     242 -> 247       -0.11091
     245 -> 247        0.66306
     246 -> 248       -0.21363

 Excited State   3:      Singlet-A      2.7527 eV  450.40 nm  f=0.0076  <S**2>=0.000
     241 -> 247        0.10693
     242 -> 247        0.56081
     243 -> 247        0.39095

 Excited State   4:      Singlet-A      2.8064 eV  441.80 nm  f=0.0177  <S**2>=0.000
     241 -> 247       -0.10076
     242 -> 247       -0.36910
     243 -> 247        0.58192

 Excited State   5:      Singlet-A      3.0050 eV  412.59 nm  f=0.0049  <S**2>=0.000
     241 -> 247        0.66540
     241 -> 249        0.10040
     242 -> 247       -0.15617

 The electronic state is 1-A.
 Alpha  occ. eigenvalues --  -46.93590 -19.26070 -19.25487 -19.20120 -19.19921
 Alpha  occ. eigenvalues --  -19.19341 -19.19275 -14.42054 -14.41377 -14.39627
 Alpha  occ. eigenvalues --  -14.38062 -10.36723 -10.35688 -10.33298 -10.32493
 Alpha  occ. eigenvalues --  -10.29501 -10.29440 -10.29178 -10.28920 -10.28705
 Alpha  occ. eigenvalues --  -10.28605 -10.28417 -10.27779 -10.26736 -10.26648
 Alpha  occ. eigenvalues --  -10.26506 -10.26461 -10.26075 -10.25889 -10.25604
 Alpha  occ. eigenvalues --  -10.25406 -10.25369 -10.25355 -10.25115 -10.24996
 Alpha  occ. eigenvalues --  -10.24939 -10.24911 -10.24863 -10.24793 -10.24264
 Alpha  occ. eigenvalues --  -10.24194 -10.24145 -10.24122 -10.24063 -10.23879
 Alpha  occ. eigenvalues --  -10.23676 -10.23651 -10.23451 -10.23217 -10.23181
 Alpha  occ. eigenvalues --  -10.22987 -10.22890 -10.22731 -10.22615 -10.22612
 Alpha  occ. eigenvalues --  -10.22516 -10.22431 -10.22201 -10.22103 -10.21973
 Alpha  occ. eigenvalues --  -10.21899 -10.21842 -10.21791 -10.21790 -10.21682
 Alpha  occ. eigenvalues --  -10.21200  -3.15441  -1.88292  -1.87824  -1.87636
 Alpha  occ. eigenvalues --   -1.12319  -1.11195  -1.04060  -1.03644  -1.03496
 Alpha  occ. eigenvalues --   -1.02157  -1.00699  -0.99427  -0.98545  -0.97791
 Alpha  occ. eigenvalues --   -0.87243  -0.84478  -0.84004  -0.83973  -0.83259
 Alpha  occ. eigenvalues --   -0.82859  -0.82059  -0.81545  -0.81041  -0.80640
 Alpha  occ. eigenvalues --   -0.79822  -0.79228  -0.78829  -0.78507  -0.78092
 Alpha  occ. eigenvalues --   -0.76982  -0.75870  -0.75671  -0.75144  -0.74562
 Alpha  occ. eigenvalues --   -0.73517  -0.72429  -0.72330  -0.71650  -0.70966
 Alpha  occ. eigenvalues --   -0.69824  -0.69652  -0.68949  -0.68556  -0.67871
 Alpha  occ. eigenvalues --   -0.67611  -0.66845  -0.66357  -0.65180  -0.63297
 Alpha  occ. eigenvalues --   -0.62836  -0.61814  -0.61590  -0.60741  -0.60216
 Alpha  occ. eigenvalues --   -0.60026  -0.59969  -0.59450  -0.59102  -0.58017
 Alpha  occ. eigenvalues --   -0.57890  -0.57181  -0.57136  -0.56615  -0.54973
 Alpha  occ. eigenvalues --   -0.54514  -0.54263  -0.53573  -0.53516  -0.52866
 Alpha  occ. eigenvalues --   -0.52764  -0.51711  -0.51344  -0.51040  -0.50472
 Alpha  occ. eigenvalues --   -0.50324  -0.49284  -0.49235  -0.48817  -0.48602
 Alpha  occ. eigenvalues --   -0.48285  -0.48137  -0.47717  -0.47639  -0.47575
 Alpha  occ. eigenvalues --   -0.47030  -0.46952  -0.46464  -0.46130  -0.45974
 Alpha  occ. eigenvalues --   -0.45855  -0.45693  -0.45588  -0.45503  -0.45052
 Alpha  occ. eigenvalues --   -0.44927  -0.44588  -0.44458  -0.44304  -0.44038
 Alpha  occ. eigenvalues --   -0.43761  -0.43669  -0.43630  -0.43557  -0.43382
 Alpha  occ. eigenvalues --   -0.43255  -0.42938  -0.42798  -0.42534  -0.42268
 Alpha  occ. eigenvalues --   -0.41950  -0.41826  -0.41595  -0.41492  -0.41450
 Alpha  occ. eigenvalues --   -0.41235  -0.41031  -0.40937  -0.40706  -0.40621
 Alpha  occ. eigenvalues --   -0.40508  -0.40281  -0.40173  -0.39855  -0.39818
 Alpha  occ. eigenvalues --   -0.39547  -0.39325  -0.39166  -0.38901  -0.38509
 Alpha  occ. eigenvalues --   -0.38379  -0.38050  -0.38014  -0.37911  -0.37758
 Alpha  occ. eigenvalues --   -0.37437  -0.37401  -0.37045  -0.37007  -0.36671
 Alpha  occ. eigenvalues --   -0.36666  -0.36516  -0.36200  -0.36024  -0.35996
 Alpha  occ. eigenvalues --   -0.35723  -0.35464  -0.35376  -0.35164  -0.34904
 Alpha  occ. eigenvalues --   -0.34513  -0.34445  -0.34332  -0.33685  -0.33584
 Alpha  occ. eigenvalues --   -0.33435  -0.32911  -0.32501  -0.32446  -0.32419
 Alpha  occ. eigenvalues --   -0.32055  -0.31704  -0.31533  -0.31505  -0.30914
 Alpha  occ. eigenvalues --   -0.30774  -0.30687  -0.29844  -0.29631  -0.29134
 Alpha  occ. eigenvalues --   -0.29001  -0.28839  -0.28768  -0.27301  -0.26037
 Alpha  occ. eigenvalues --   -0.25880  -0.24850  -0.24738  -0.24633  -0.21076
 Alpha  occ. eigenvalues --   -0.19427
 Alpha virt. eigenvalues --   -0.11681  -0.05059  -0.03937  -0.02660  -0.00525
 Alpha virt. eigenvalues --    0.00415   0.00687   0.01228   0.01828   0.02830
 Alpha virt. eigenvalues --    0.03655   0.04367   0.05375   0.05728   0.05949

 Mulliken charges:
               1
     1  Mg   0.943464
     2  C   -0.033407
     3  C   -0.053090
     4  C   -0.041049
     5  C   -0.089490
     6  N   -0.375657
     7  C    0.034172
     8  C   -0.098888
     9  C   -0.136044
    10  C    0.146002
    11  C   -0.009250
    12  C    0.029637
    13  C    0.007143
    14  C    0.170051
    15  O   -0.219098
    16  O   -0.388699
    17  N   -0.511674
    18  C    0.132260
    19  C   -0.177360
    20  C   -0.085487
    21  C    0.139243
    22  C    0.040833
    23  C    0.091055
    24  O   -0.252940
    25  C   -0.051567
    26  N   -0.317657
    27  C    0.070396
    28  C   -0.142523
    29  C   -0.087089
    30  C    0.094455
    31  C    0.020153
    32  C   -0.032517
    33  C   -0.069305
    34  N   -0.443460
    35  C    0.131818
    36  C   -0.218273
    37  C   -0.046109
    38  C    0.154896
    39  C    0.073168
    40  C    0.151910
    41  O   -0.220045
    42  C   -0.097931
    43  C    0.270117
    44  O   -0.274912
    45  O   -0.351244
    46  C    0.120620
    47  C    0.268708
    48  C   -0.168162
    49  C   -0.233888
    50  C   -0.003738
    51  C    0.007168
    52  C   -0.072233
    53  C    0.003026
    54  C   -0.223941
    55  C   -0.009131
    56  C   -0.019963
    57  C   -0.057730
    58  C   -0.037717
    59  C   -0.214203
    60  C    0.017336
    61  C   -0.032866
    62  C   -0.066285
    63  C   -0.013234
    64  C   -0.274601
    65  C   -0.030251
    66  C   -0.007605
    67  H    0.011267
    68  H   -0.019886
    69  H   -0.005731
    70  H    0.064989
    71  H    0.049936
    72  H    0.048028
    73  H    0.046060
    74  H    0.051175
    75  H    0.045306
    76  H    0.045260
    77  H    0.074037
    78  H    0.052386
    79  H    0.033959
    80  H    0.051592
    81  H    0.065807
    82  H    0.070331
    83  H    0.052987
    84  H    0.078045
    85  H    0.043897
    86  H    0.038910
    87  H    0.035672
    88  H    0.040200
    89  H    0.053423
    90  H    0.048593
    91  H    0.041400
    92  H    0.041889
    93  H    0.045800
    94  H    0.039401
    95  H    0.054596
    96  H    0.073525
    97  H    0.051436
    98  H    0.089084
    99  H    0.059545
   100  H    0.071390
   101  H    0.067797
   102  H    0.066960
   103  H    0.072596
   104  H    0.033884
   105  H    0.052743
   106  H    0.040994
   107  H    0.077455
   108  H    0.042321
   109  H    0.053011
   110  H    0.025037
   111  H    0.034664
   112  H    0.026076
   113  H    0.017212
   114  H    0.029735
   115  H    0.038797
   116  H    0.028803
   117  H    0.037410
   118  H    0.038212
   119  H    0.037135
   120  H    0.035381
   121  H    0.041431
   122  H    0.013685
   123  H    0.010589
   124  H    0.034983
   125  H    0.044112
   126  H    0.030133
   127  H    0.048036
   128  H    0.023988
   129  H    0.041285
   130  H    0.029105
   131  H    0.025433
   132  H    0.033274
   133  H    0.033015
   134  H    0.043623
   135  H    0.031550
   136  H    0.033497
   137  H    0.034832
   138  H    0.041659
   139  H    0.048172
   140  H    0.029748
 Sum of Mulliken charges =  -0.00000

 Dipole moment (field-independent basis, Debye):
    X=             -0.5243    Y=              1.7175    Z=              2.4788  Tot=              3.0609
 Quadrupole moment (field-independent basis, Debye-Ang):
   XX=           -409.5234   YY=           -393.2252   ZZ=           -399.9941
   XY=             38.4057   XZ=             -3.7283   YZ=             24.1790

 Normal termination of Gaussian 16 at Wed May  4 21:22:12 2022.
