 Gaussian 16, Revision A.03,
 Gaussian 16:  ES64L-G16RevA.03 25-Dec-2016

 --------------------------------
 #p wB97XD/Def2SVP td=(nstates=5)
 --------------------------------

 ----------------------------------------------------
 step_451_chromophore_17 TDDFT with wB97XD functional
 ----------------------------------------------------
 Symbolic Z-matrix:
 Charge =  0 Multiplicity = 1

                         Standard orientation:
 ---------------------------------------------------------------------
 Center     Atomic      Atomic             Coordinates (Angstroms)
 Number     Number       Type             X           Y           Z
 ---------------------------------------------------------------------
      1         12           0        3.387631    1.709869   -0.608642
      2          6           0        4.390886   -1.680646   -0.422232
      3          6           0        0.781102    0.723957   -2.475399
      4          6           0        2.278771    4.850478   -0.080012
      5          6           0        5.921263    2.379111    1.863665
      6          7           0        2.577844   -0.299163   -1.234044
      7          6           0        3.217408   -1.508481   -1.188160
      8          6           0        2.468534   -2.617748   -1.898187
      9          6           0        1.462033   -1.749967   -2.788419
     10          6           0        1.651792   -0.318128   -2.228277
     11          6           0        1.764779   -1.881128   -4.352024
     12          6           0        1.713702   -3.491328   -0.912382
     13          6           0        1.929075   -5.029948   -1.009142
     14          6           0        0.713795   -5.876218   -0.950832
     15          8           0        0.351070   -6.689062   -1.728202
     16          8           0        0.048238   -5.635187    0.220582
     17          7           0        1.752618    2.776582   -1.261555
     18          6           0        0.772858    2.139396   -1.964723
     19          6           0       -0.216024    3.160639   -2.283771
     20          6           0        0.220641    4.439267   -1.665109
     21          6           0        1.444603    4.042434   -0.937206
     22          6           0       -1.380210    2.961334   -3.222389
     23          6           0       -0.442533    5.856764   -1.716909
     24          8           0       -1.367080    6.023734   -2.532279
     25          6           0        0.157237    7.064269   -1.003123
     26          7           0        4.120563    3.387112    0.683275
     27          6           0        3.402880    4.494718    0.665307
     28          6           0        4.050552    5.494352    1.697598
     29          6           0        5.157171    4.669101    2.357489
     30          6           0        5.112347    3.427596    1.545031
     31          6           0        4.534689    6.886151    1.178491
     32          6           0        5.070112    4.455297    3.936869
     33          6           0        6.387105    4.406328    4.657113
     34          7           0        4.954213    0.606825    0.413414
     35          6           0        5.906022    1.071352    1.328831
     36          6           0        6.755869    0.008532    1.624374
     37          6           0        6.195501   -1.073595    0.952656
     38          6           0        5.054984   -0.697435    0.331105
     39          6           0        7.876554   -0.002359    2.669079
     40          6           0        6.393665   -2.506709    0.655177
     41          8           0        7.308517   -3.216003    1.081890
     42          6           0        5.173440   -3.001445   -0.152378
     43          6           0        5.636400   -3.592110   -1.416657
     44          8           0        5.654795   -3.017727   -2.512623
     45          8           0        6.115940   -4.835066   -1.198658
     46          6           0        6.700707   -5.655162   -2.284013
     47          6           0       -1.340426   -6.192019    0.151705
     48          6           0       -2.093674   -5.659281    1.326934
     49          6           0       -3.445152   -5.627509    1.464948
     50          6           0       -4.545636   -6.396919    0.571799
     51          6           0       -4.038517   -4.839749    2.678951
     52          6           0       -5.418927   -4.226122    2.473575
     53          6           0       -5.538613   -2.797221    3.047245
     54          6           0       -7.016876   -2.283493    3.092049
     55          6           0       -7.353849   -1.625542    4.444725
     56          6           0       -7.307754   -1.249746    1.938929
     57          6           0       -8.852586   -1.038533    1.813099
     58          6           0       -9.528985   -1.299153    0.421723
     59          6           0      -10.043203   -0.067342   -0.302170
     60          6           0      -10.928840   -0.484335   -1.542387
     61          6           0       -8.772484    0.740131   -0.730565
     62          6           0       -8.603121    2.152385   -0.029766
     63          6           0       -7.900890    3.171758   -0.927352
     64          6           0       -8.741225    4.551449   -0.986745
     65          6           0       -8.348996    5.301429   -2.355543
     66          6           0       -8.444968    5.428297    0.276998
     67          1           0       -0.136909    0.544074   -3.038126
     68          1           0        1.833953    5.814667    0.174006
     69          1           0        6.755887    2.526241    2.551787
     70          1           0        3.116811   -3.209177   -2.544389
     71          1           0        0.422223   -2.058431   -2.678337
     72          1           0        1.954016   -2.901829   -4.684728
     73          1           0        2.733896   -1.412772   -4.525966
     74          1           0        0.995587   -1.429087   -4.978608
     75          1           0        0.634813   -3.341375   -0.868949
     76          1           0        2.002364   -3.207161    0.099763
     77          1           0        2.527816   -5.336492   -0.151747
     78          1           0        2.439573   -5.182141   -1.960650
     79          1           0       -1.854154    1.990801   -3.078957
     80          1           0       -1.027849    2.896747   -4.251914
     81          1           0       -2.180749    3.701193   -3.234146
     82          1           0        0.396905    7.036790    0.060133
     83          1           0       -0.602689    7.842714   -1.059001
     84          1           0        1.050957    7.445284   -1.497578
     85          1           0        3.279759    5.626668    2.457687
     86          1           0        6.057136    5.266038    2.208159
     87          1           0        4.103552    7.134903    0.209041
     88          1           0        5.596050    6.860504    0.934962
     89          1           0        4.235486    7.621325    1.925344
     90          1           0        4.662510    3.468737    4.158088
     91          1           0        4.468842    5.248020    4.381540
     92          1           0        6.618739    3.370636    4.907025
     93          1           0        6.319154    4.969359    5.587457
     94          1           0        7.201919    4.742639    4.015683
     95          1           0        8.642758    0.752229    2.489571
     96          1           0        8.179050   -1.048808    2.707161
     97          1           0        7.329213    0.290759    3.565408
     98          1           0        4.553417   -3.752811    0.335132
     99          1           0        6.499711   -5.289966   -3.291721
    100          1           0        6.425080   -6.710017   -2.298132
    101          1           0        7.771128   -5.502757   -2.148848
    102          1           0       -1.311090   -7.247235    0.424861
    103          1           0       -1.929603   -5.921983   -0.724146
    104          1           0       -1.546888   -5.068382    2.062225
    105          1           0       -5.241988   -6.789749    1.313440
    106          1           0       -4.163190   -7.330377    0.157915
    107          1           0       -4.867190   -5.715627   -0.215728
    108          1           0       -3.464006   -3.946314    2.926210
    109          1           0       -4.088705   -5.554729    3.499665
    110          1           0       -6.079754   -4.859697    3.065728
    111          1           0       -5.849253   -4.235163    1.472457
    112          1           0       -4.882643   -2.068620    2.571760
    113          1           0       -5.052801   -2.808515    4.022794
    114          1           0       -7.768780   -3.052690    2.917642
    115          1           0       -8.043981   -0.796902    4.290285
    116          1           0       -6.424008   -1.262139    4.882834
    117          1           0       -7.728782   -2.343520    5.175144
    118          1           0       -7.007608   -1.702094    0.992701
    119          1           0       -6.831229   -0.308358    2.212041
    120          1           0       -9.027460    0.008477    2.057534
    121          1           0       -9.415670   -1.694099    2.476922
    122          1           0      -10.193290   -2.163618    0.436791
    123          1           0       -8.801287   -1.705929   -0.281308
    124          1           0      -10.490944    0.576385    0.454219
    125          1           0      -11.746896    0.234109   -1.571681
    126          1           0      -11.322060   -1.457835   -1.248956
    127          1           0      -10.339304   -0.559456   -2.456772
    128          1           0       -8.697295    0.910216   -1.804604
    129          1           0       -7.837928    0.272360   -0.418953
    130          1           0       -8.091964    1.991713    0.919616
    131          1           0       -9.578063    2.548479    0.256236
    132          1           0       -7.762349    2.765283   -1.929843
    133          1           0       -6.956405    3.468049   -0.472377
    134          1           0       -9.781418    4.277876   -1.160662
    135          1           0       -7.849684    4.555169   -2.973626
    136          1           0       -7.695543    6.167630   -2.255375
    137          1           0       -9.256798    5.705853   -2.802526
    138          1           0       -7.494972    5.347470    0.806142
    139          1           0       -9.358052    5.203251    0.826480
    140          1           0       -8.365084    6.486842    0.031590
 ---------------------------------------------------------------------

 SCF Done:  E(RwB97XD) =  -3007.83280359     A.U. after   19 cycles

 Excitation energies and oscillator strengths:

 Excited State   1:      Singlet-A      1.6725 eV  741.33 nm  f=0.3947  <S**2>=0.000
     245 -> 248        0.18424
     246 -> 247        0.68384
     245 <- 248        0.11742
 This state for optimization and/or second-order correction.
 Total Energy, E(TD-HF/TD-DFT) =  -3007.77134161
 Copying the excited state density for this state as the 1-particle RhoCI density.

 Excited State   2:      Singlet-A      2.1314 eV  581.70 nm  f=0.1629  <S**2>=0.000
     245 -> 247        0.65625
     246 -> 248       -0.24188

 Excited State   3:      Singlet-A      3.1092 eV  398.76 nm  f=0.0038  <S**2>=0.000
     242 -> 247        0.55861
     244 -> 247        0.37724

 Excited State   4:      Singlet-A      3.1989 eV  387.58 nm  f=0.0175  <S**2>=0.000
     242 -> 247       -0.35562
     244 -> 247        0.57322

 Excited State   5:      Singlet-A      3.4875 eV  355.51 nm  f=0.0007  <S**2>=0.000
     241 -> 247        0.57893
     241 -> 249        0.26688
     241 -> 250        0.18013

 The electronic state is 1-A.
 Alpha  occ. eigenvalues --  -46.96552 -19.30682 -19.30052 -19.24807 -19.24652
 Alpha  occ. eigenvalues --  -19.24207 -19.24079 -14.47133 -14.46512 -14.44558
 Alpha  occ. eigenvalues --  -14.42975 -10.43605 -10.42466 -10.40111 -10.39390
 Alpha  occ. eigenvalues --  -10.36038 -10.35934 -10.35492 -10.35237 -10.35021
 Alpha  occ. eigenvalues --  -10.34907 -10.34764 -10.34087 -10.33188 -10.32961
 Alpha  occ. eigenvalues --  -10.32877 -10.32740 -10.32346 -10.32169 -10.31989
 Alpha  occ. eigenvalues --  -10.31771 -10.31673 -10.31588 -10.31436 -10.31357
 Alpha  occ. eigenvalues --  -10.31347 -10.31312 -10.31202 -10.31148 -10.30673
 Alpha  occ. eigenvalues --  -10.30644 -10.30588 -10.30553 -10.30446 -10.30125
 Alpha  occ. eigenvalues --  -10.30122 -10.30060 -10.29728 -10.29594 -10.29448
 Alpha  occ. eigenvalues --  -10.29379 -10.29285 -10.29174 -10.28984 -10.28979
 Alpha  occ. eigenvalues --  -10.28904 -10.28797 -10.28622 -10.28428 -10.28317
 Alpha  occ. eigenvalues --  -10.28262 -10.28241 -10.28156 -10.28135 -10.28119
 Alpha  occ. eigenvalues --  -10.27603  -3.22293  -1.95889  -1.95419  -1.95229
 Alpha  occ. eigenvalues --   -1.19680  -1.18643  -1.11597  -1.11126  -1.10830
 Alpha  occ. eigenvalues --   -1.09574  -1.08070  -1.06784  -1.05918  -1.05127
 Alpha  occ. eigenvalues --   -0.94894  -0.92127  -0.91659  -0.91570  -0.90933
 Alpha  occ. eigenvalues --   -0.90451  -0.89729  -0.89141  -0.88648  -0.88312
 Alpha  occ. eigenvalues --   -0.87466  -0.86872  -0.86484  -0.86134  -0.85742
 Alpha  occ. eigenvalues --   -0.84648  -0.83543  -0.83351  -0.82786  -0.82226
 Alpha  occ. eigenvalues --   -0.81186  -0.80077  -0.79941  -0.79281  -0.78592
 Alpha  occ. eigenvalues --   -0.77476  -0.77276  -0.76647  -0.76235  -0.75415
 Alpha  occ. eigenvalues --   -0.75267  -0.74453  -0.73877  -0.72794  -0.70863
 Alpha  occ. eigenvalues --   -0.70380  -0.69451  -0.69119  -0.68244  -0.67760
 Alpha  occ. eigenvalues --   -0.67596  -0.67450  -0.67101  -0.66545  -0.65587
 Alpha  occ. eigenvalues --   -0.65512  -0.64786  -0.64591  -0.64252  -0.62448
 Alpha  occ. eigenvalues --   -0.61987  -0.61621  -0.61048  -0.60933  -0.60423
 Alpha  occ. eigenvalues --   -0.60192  -0.59214  -0.58766  -0.58452  -0.57868
 Alpha  occ. eigenvalues --   -0.57704  -0.56664  -0.56640  -0.56209  -0.56083
 Alpha  occ. eigenvalues --   -0.55682  -0.55534  -0.55132  -0.55081  -0.54865
 Alpha  occ. eigenvalues --   -0.54379  -0.54311  -0.53828  -0.53558  -0.53355
 Alpha  occ. eigenvalues --   -0.53242  -0.53196  -0.52926  -0.52882  -0.52374
 Alpha  occ. eigenvalues --   -0.52259  -0.51938  -0.51731  -0.51603  -0.51395
 Alpha  occ. eigenvalues --   -0.51093  -0.51016  -0.50978  -0.50879  -0.50628
 Alpha  occ. eigenvalues --   -0.50514  -0.50229  -0.50088  -0.49851  -0.49557
 Alpha  occ. eigenvalues --   -0.49234  -0.49006  -0.48787  -0.48741  -0.48729
 Alpha  occ. eigenvalues --   -0.48493  -0.48285  -0.48129  -0.47972  -0.47870
 Alpha  occ. eigenvalues --   -0.47737  -0.47497  -0.47423  -0.47037  -0.46968
 Alpha  occ. eigenvalues --   -0.46716  -0.46516  -0.46311  -0.46019  -0.45643
 Alpha  occ. eigenvalues --   -0.45502  -0.45245  -0.45098  -0.45050  -0.44861
 Alpha  occ. eigenvalues --   -0.44604  -0.44445  -0.44186  -0.44091  -0.43896
 Alpha  occ. eigenvalues --   -0.43806  -0.43674  -0.43254  -0.43127  -0.43003
 Alpha  occ. eigenvalues --   -0.42765  -0.42573  -0.42293  -0.42177  -0.42021
 Alpha  occ. eigenvalues --   -0.41573  -0.41519  -0.41325  -0.40691  -0.40622
 Alpha  occ. eigenvalues --   -0.40443  -0.39945  -0.39559  -0.39490  -0.39443
 Alpha  occ. eigenvalues --   -0.38988  -0.38671  -0.38594  -0.38554  -0.37929
 Alpha  occ. eigenvalues --   -0.37736  -0.37629  -0.36700  -0.36555  -0.36286
 Alpha  occ. eigenvalues --   -0.36034  -0.35703  -0.35447  -0.33883  -0.33202
 Alpha  occ. eigenvalues --   -0.32901  -0.31470  -0.31442  -0.31285  -0.25961
 Alpha  occ. eigenvalues --   -0.23657
 Alpha virt. eigenvalues --   -0.07669   0.00417   0.02350   0.03855   0.05424
 Alpha virt. eigenvalues --    0.07135   0.07393   0.07957   0.08583   0.09406
 Alpha virt. eigenvalues --    0.10167   0.11163   0.12090   0.12563   0.12699

 Mulliken charges:
               1
     1  Mg   0.939278
     2  C   -0.034814
     3  C   -0.069753
     4  C   -0.051933
     5  C   -0.102701
     6  N   -0.344543
     7  C    0.004720
     8  C   -0.070963
     9  C   -0.109950
    10  C    0.132348
    11  C    0.001084
    12  C    0.034425
    13  C    0.024210
    14  C    0.163485
    15  O   -0.217356
    16  O   -0.388910
    17  N   -0.478346
    18  C    0.120043
    19  C   -0.164380
    20  C   -0.084295
    21  C    0.131918
    22  C    0.051960
    23  C    0.087321
    24  O   -0.248843
    25  C   -0.040174
    26  N   -0.277761
    27  C    0.055033
    28  C   -0.117140
    29  C   -0.061400
    30  C    0.078706
    31  C    0.033164
    32  C   -0.016365
    33  C   -0.054717
    34  N   -0.407074
    35  C    0.122973
    36  C   -0.214757
    37  C   -0.039425
    38  C    0.137620
    39  C    0.087871
    40  C    0.127308
    41  O   -0.209673
    42  C   -0.058346
    43  C    0.247118
    44  O   -0.269315
    45  O   -0.349948
    46  C    0.135781
    47  C    0.282149
    48  C   -0.172878
    49  C   -0.228986
    50  C    0.011755
    51  C    0.027800
    52  C   -0.055453
    53  C    0.016450
    54  C   -0.190951
    55  C    0.001834
    56  C   -0.002036
    57  C   -0.042425
    58  C   -0.016289
    59  C   -0.183242
    60  C    0.030385
    61  C   -0.016547
    62  C   -0.047752
    63  C    0.004559
    64  C   -0.244938
    65  C   -0.017450
    66  C    0.001423
    67  H    0.004982
    68  H   -0.034767
    69  H   -0.016559
    70  H    0.049776
    71  H    0.041076
    72  H    0.042342
    73  H    0.039073
    74  H    0.046455
    75  H    0.037584
    76  H    0.036638
    77  H    0.067706
    78  H    0.046045
    79  H    0.027622
    80  H    0.046116
    81  H    0.062831
    82  H    0.067545
    83  H    0.051222
    84  H    0.073422
    85  H    0.032453
    86  H    0.023496
    87  H    0.028700
    88  H    0.034564
    89  H    0.048481
    90  H    0.039332
    91  H    0.033777
    92  H    0.035112
    93  H    0.041688
    94  H    0.032924
    95  H    0.050326
    96  H    0.069594
    97  H    0.044559
    98  H    0.081238
    99  H    0.055909
   100  H    0.068179
   101  H    0.063970
   102  H    0.061649
   103  H    0.067612
   104  H    0.031735
   105  H    0.046416
   106  H    0.036120
   107  H    0.072569
   108  H    0.032263
   109  H    0.046032
   110  H    0.015500
   111  H    0.024310
   112  H    0.017993
   113  H    0.007331
   114  H    0.016209
   115  H    0.032079
   116  H    0.021815
   117  H    0.032480
   118  H    0.026214
   119  H    0.028039
   120  H    0.022455
   121  H    0.032670
   122  H    0.006166
   123  H   -0.003416
   124  H    0.021361
   125  H    0.038981
   126  H    0.023031
   127  H    0.042684
   128  H    0.013732
   129  H    0.026805
   130  H    0.019321
   131  H    0.012760
   132  H    0.022420
   133  H    0.023380
   134  H    0.032768
   135  H    0.024725
   136  H    0.027457
   137  H    0.029277
   138  H    0.036846
   139  H    0.042106
   140  H    0.023802
 Sum of Mulliken charges =  -0.00000

 Dipole moment (field-independent basis, Debye):
    X=             -0.4988    Y=              1.7037    Z=              2.4648  Tot=              3.0375
 Quadrupole moment (field-independent basis, Debye-Ang):
   XX=           -408.7633   YY=           -392.2623   ZZ=           -399.9645
   XY=             37.6802   XZ=             -3.9597   YZ=             23.9068

 Normal termination of Gaussian 16 at Wed May  4 21:52:20 2022.
