 Gaussian 16, Revision A.03,
 Gaussian 16:  ES64L-G16RevA.03 25-Dec-2016

 --------------------
 #p ZINDO=(nstates=5)
 --------------------

 -----------------------------
 step_451_chromophore_17 ZINDO
 -----------------------------
 Symbolic Z-matrix:
 Charge =  0 Multiplicity = 1

                         Standard orientation:
 ---------------------------------------------------------------------
 Center     Atomic      Atomic             Coordinates (Angstroms)
 Number     Number       Type             X           Y           Z
 ---------------------------------------------------------------------
      1         12           0        3.387631    1.709869   -0.608642
      2          6           0        4.390886   -1.680646   -0.422232
      3          6           0        0.781102    0.723957   -2.475399
      4          6           0        2.278771    4.850478   -0.080012
      5          6           0        5.921263    2.379111    1.863665
      6          7           0        2.577844   -0.299163   -1.234044
      7          6           0        3.217408   -1.508481   -1.188160
      8          6           0        2.468534   -2.617748   -1.898187
      9          6           0        1.462033   -1.749967   -2.788419
     10          6           0        1.651792   -0.318128   -2.228277
     11          6           0        1.764779   -1.881128   -4.352024
     12          6           0        1.713702   -3.491328   -0.912382
     13          6           0        1.929075   -5.029948   -1.009142
     14          6           0        0.713795   -5.876218   -0.950832
     15          8           0        0.351070   -6.689062   -1.728202
     16          8           0        0.048238   -5.635187    0.220582
     17          7           0        1.752618    2.776582   -1.261555
     18          6           0        0.772858    2.139396   -1.964723
     19          6           0       -0.216024    3.160639   -2.283771
     20          6           0        0.220641    4.439267   -1.665109
     21          6           0        1.444603    4.042434   -0.937206
     22          6           0       -1.380210    2.961334   -3.222389
     23          6           0       -0.442533    5.856764   -1.716909
     24          8           0       -1.367080    6.023734   -2.532279
     25          6           0        0.157237    7.064269   -1.003123
     26          7           0        4.120563    3.387112    0.683275
     27          6           0        3.402880    4.494718    0.665307
     28          6           0        4.050552    5.494352    1.697598
     29          6           0        5.157171    4.669101    2.357489
     30          6           0        5.112347    3.427596    1.545031
     31          6           0        4.534689    6.886151    1.178491
     32          6           0        5.070112    4.455297    3.936869
     33          6           0        6.387105    4.406328    4.657113
     34          7           0        4.954213    0.606825    0.413414
     35          6           0        5.906022    1.071352    1.328831
     36          6           0        6.755869    0.008532    1.624374
     37          6           0        6.195501   -1.073595    0.952656
     38          6           0        5.054984   -0.697435    0.331105
     39          6           0        7.876554   -0.002359    2.669079
     40          6           0        6.393665   -2.506709    0.655177
     41          8           0        7.308517   -3.216003    1.081890
     42          6           0        5.173440   -3.001445   -0.152378
     43          6           0        5.636400   -3.592110   -1.416657
     44          8           0        5.654795   -3.017727   -2.512623
     45          8           0        6.115940   -4.835066   -1.198658
     46          6           0        6.700707   -5.655162   -2.284013
     47          6           0       -1.340426   -6.192019    0.151705
     48          6           0       -2.093674   -5.659281    1.326934
     49          6           0       -3.445152   -5.627509    1.464948
     50          6           0       -4.545636   -6.396919    0.571799
     51          6           0       -4.038517   -4.839749    2.678951
     52          6           0       -5.418927   -4.226122    2.473575
     53          6           0       -5.538613   -2.797221    3.047245
     54          6           0       -7.016876   -2.283493    3.092049
     55          6           0       -7.353849   -1.625542    4.444725
     56          6           0       -7.307754   -1.249746    1.938929
     57          6           0       -8.852586   -1.038533    1.813099
     58          6           0       -9.528985   -1.299153    0.421723
     59          6           0      -10.043203   -0.067342   -0.302170
     60          6           0      -10.928840   -0.484335   -1.542387
     61          6           0       -8.772484    0.740131   -0.730565
     62          6           0       -8.603121    2.152385   -0.029766
     63          6           0       -7.900890    3.171758   -0.927352
     64          6           0       -8.741225    4.551449   -0.986745
     65          6           0       -8.348996    5.301429   -2.355543
     66          6           0       -8.444968    5.428297    0.276998
     67          1           0       -0.136909    0.544074   -3.038126
     68          1           0        1.833953    5.814667    0.174006
     69          1           0        6.755887    2.526241    2.551787
     70          1           0        3.116811   -3.209177   -2.544389
     71          1           0        0.422223   -2.058431   -2.678337
     72          1           0        1.954016   -2.901829   -4.684728
     73          1           0        2.733896   -1.412772   -4.525966
     74          1           0        0.995587   -1.429087   -4.978608
     75          1           0        0.634813   -3.341375   -0.868949
     76          1           0        2.002364   -3.207161    0.099763
     77          1           0        2.527816   -5.336492   -0.151747
     78          1           0        2.439573   -5.182141   -1.960650
     79          1           0       -1.854154    1.990801   -3.078957
     80          1           0       -1.027849    2.896747   -4.251914
     81          1           0       -2.180749    3.701193   -3.234146
     82          1           0        0.396905    7.036790    0.060133
     83          1           0       -0.602689    7.842714   -1.059001
     84          1           0        1.050957    7.445284   -1.497578
     85          1           0        3.279759    5.626668    2.457687
     86          1           0        6.057136    5.266038    2.208159
     87          1           0        4.103552    7.134903    0.209041
     88          1           0        5.596050    6.860504    0.934962
     89          1           0        4.235486    7.621325    1.925344
     90          1           0        4.662510    3.468737    4.158088
     91          1           0        4.468842    5.248020    4.381540
     92          1           0        6.618739    3.370636    4.907025
     93          1           0        6.319154    4.969359    5.587457
     94          1           0        7.201919    4.742639    4.015683
     95          1           0        8.642758    0.752229    2.489571
     96          1           0        8.179050   -1.048808    2.707161
     97          1           0        7.329213    0.290759    3.565408
     98          1           0        4.553417   -3.752811    0.335132
     99          1           0        6.499711   -5.289966   -3.291721
    100          1           0        6.425080   -6.710017   -2.298132
    101          1           0        7.771128   -5.502757   -2.148848
    102          1           0       -1.311090   -7.247235    0.424861
    103          1           0       -1.929603   -5.921983   -0.724146
    104          1           0       -1.546888   -5.068382    2.062225
    105          1           0       -5.241988   -6.789749    1.313440
    106          1           0       -4.163190   -7.330377    0.157915
    107          1           0       -4.867190   -5.715627   -0.215728
    108          1           0       -3.464006   -3.946314    2.926210
    109          1           0       -4.088705   -5.554729    3.499665
    110          1           0       -6.079754   -4.859697    3.065728
    111          1           0       -5.849253   -4.235163    1.472457
    112          1           0       -4.882643   -2.068620    2.571760
    113          1           0       -5.052801   -2.808515    4.022794
    114          1           0       -7.768780   -3.052690    2.917642
    115          1           0       -8.043981   -0.796902    4.290285
    116          1           0       -6.424008   -1.262139    4.882834
    117          1           0       -7.728782   -2.343520    5.175144
    118          1           0       -7.007608   -1.702094    0.992701
    119          1           0       -6.831229   -0.308358    2.212041
    120          1           0       -9.027460    0.008477    2.057534
    121          1           0       -9.415670   -1.694099    2.476922
    122          1           0      -10.193290   -2.163618    0.436791
    123          1           0       -8.801287   -1.705929   -0.281308
    124          1           0      -10.490944    0.576385    0.454219
    125          1           0      -11.746896    0.234109   -1.571681
    126          1           0      -11.322060   -1.457835   -1.248956
    127          1           0      -10.339304   -0.559456   -2.456772
    128          1           0       -8.697295    0.910216   -1.804604
    129          1           0       -7.837928    0.272360   -0.418953
    130          1           0       -8.091964    1.991713    0.919616
    131          1           0       -9.578063    2.548479    0.256236
    132          1           0       -7.762349    2.765283   -1.929843
    133          1           0       -6.956405    3.468049   -0.472377
    134          1           0       -9.781418    4.277876   -1.160662
    135          1           0       -7.849684    4.555169   -2.973626
    136          1           0       -7.695543    6.167630   -2.255375
    137          1           0       -9.256798    5.705853   -2.802526
    138          1           0       -7.494972    5.347470    0.806142
    139          1           0       -9.358052    5.203251    0.826480
    140          1           0       -8.365084    6.486842    0.031590
 ---------------------------------------------------------------------

 SCF Done:  E(RZINDO/S) =  -474.190167134     A.U. after   20 cycles

 Excitation energies and oscillator strengths:

 Excited State   1:      Singlet-A      1.2594 eV  984.44 nm  f=0.6269  <S**2>=0.000
     175 ->178        -0.19615
     176 ->177         0.66160
 This state for optimization and/or second-order correction.
 Total Energy, E(CIS/TDA) =  -474.143883419
 Copying the excited state density for this state as the 1-particle RhoCI density.

 Excited State   2:      Singlet-A      1.8910 eV  655.66 nm  f=0.1409  <S**2>=0.000
     175 ->177         0.59644
     176 ->178         0.34932

 Excited State   3:      Singlet-A      2.8607 eV  433.40 nm  f=0.0011  <S**2>=0.000
     167 ->179         0.10048
     168 ->179        -0.16130
     169 ->177        -0.22593
     169 ->179        -0.26573
     169 ->180         0.14197
     169 ->185        -0.12489
     172 ->177         0.41528
     172 ->179         0.14418

 Excited State   4:      Singlet-A      2.9780 eV  416.34 nm  f=0.0066  <S**2>=0.000
     171 ->177         0.24588
     174 ->177         0.62642

 Excited State   5:      Singlet-A      3.0018 eV  413.03 nm  f=0.0022  <S**2>=0.000
     167 ->180        -0.10660
     168 ->177         0.26465
     168 ->178         0.14660
     168 ->179        -0.23893
     168 ->180        -0.38024
     168 ->182         0.15950
     168 ->185        -0.16903
     168 ->187        -0.10564
     169 ->179         0.15611
     169 ->180         0.11791

 The electronic state is 1-A.
 Alpha  occ. eigenvalues --   -1.87600  -1.83111  -1.79850  -1.75632  -1.72621
 Alpha  occ. eigenvalues --   -1.72229  -1.65325  -1.59316  -1.58080  -1.56331
 Alpha  occ. eigenvalues --   -1.53317  -1.50679  -1.50082  -1.49213  -1.47214
 Alpha  occ. eigenvalues --   -1.46784  -1.43399  -1.40471  -1.37169  -1.36591
 Alpha  occ. eigenvalues --   -1.35099  -1.34000  -1.32405  -1.30636  -1.28723
 Alpha  occ. eigenvalues --   -1.27525  -1.26892  -1.22779  -1.20525  -1.18610
 Alpha  occ. eigenvalues --   -1.17575  -1.16032  -1.14929  -1.13834  -1.12881
 Alpha  occ. eigenvalues --   -1.11583  -1.09534  -1.09351  -1.06268  -1.03977
 Alpha  occ. eigenvalues --   -1.02459  -1.01881  -0.98490  -0.97948  -0.96625
 Alpha  occ. eigenvalues --   -0.95366  -0.94125  -0.93054  -0.92864  -0.92337
 Alpha  occ. eigenvalues --   -0.91580  -0.90583  -0.88749  -0.87401  -0.87043
 Alpha  occ. eigenvalues --   -0.85849  -0.84657  -0.84077  -0.82737  -0.80210
 Alpha  occ. eigenvalues --   -0.79853  -0.78895  -0.77048  -0.76870  -0.76074
 Alpha  occ. eigenvalues --   -0.75746  -0.74955  -0.74150  -0.73981  -0.73883
 Alpha  occ. eigenvalues --   -0.73094  -0.72320  -0.71792  -0.71383  -0.70409
 Alpha  occ. eigenvalues --   -0.69728  -0.69057  -0.68832  -0.68453  -0.68125
 Alpha  occ. eigenvalues --   -0.68035  -0.67383  -0.66310  -0.65555  -0.65043
 Alpha  occ. eigenvalues --   -0.64834  -0.64730  -0.63816  -0.63698  -0.63254
 Alpha  occ. eigenvalues --   -0.63104  -0.62950  -0.62703  -0.62464  -0.62040
 Alpha  occ. eigenvalues --   -0.61946  -0.61799  -0.60661  -0.60427  -0.60393
 Alpha  occ. eigenvalues --   -0.60132  -0.59913  -0.59519  -0.58564  -0.58413
 Alpha  occ. eigenvalues --   -0.57803  -0.57396  -0.57267  -0.56890  -0.56195
 Alpha  occ. eigenvalues --   -0.55937  -0.55847  -0.55641  -0.55364  -0.54789
 Alpha  occ. eigenvalues --   -0.54431  -0.53730  -0.53306  -0.53002  -0.52772
 Alpha  occ. eigenvalues --   -0.52369  -0.52261  -0.52063  -0.51752  -0.51500
 Alpha  occ. eigenvalues --   -0.51068  -0.50811  -0.50505  -0.50154  -0.49964
 Alpha  occ. eigenvalues --   -0.49762  -0.49614  -0.49474  -0.49021  -0.48765
 Alpha  occ. eigenvalues --   -0.48650  -0.48472  -0.48205  -0.48172  -0.47966
 Alpha  occ. eigenvalues --   -0.47596  -0.47306  -0.47229  -0.46963  -0.46568
 Alpha  occ. eigenvalues --   -0.46482  -0.46440  -0.45928  -0.45611  -0.45462
 Alpha  occ. eigenvalues --   -0.45188  -0.45001  -0.44804  -0.44749  -0.44207
 Alpha  occ. eigenvalues --   -0.44095  -0.43611  -0.43076  -0.42853  -0.42698
 Alpha  occ. eigenvalues --   -0.42139  -0.41555  -0.41547  -0.39225  -0.38894
 Alpha  occ. eigenvalues --   -0.38782  -0.37360  -0.35809  -0.35421  -0.34915
 Alpha  occ. eigenvalues --   -0.33175  -0.32582  -0.31878  -0.31836  -0.26673
 Alpha  occ. eigenvalues --   -0.22612
 Alpha virt. eigenvalues --   -0.09348  -0.02014  -0.00801   0.00722   0.01244
 Alpha virt. eigenvalues --    0.02313   0.02571   0.02972   0.04278   0.04822
 Alpha virt. eigenvalues --    0.05799   0.06549   0.06970   0.07481   0.07968

 Mulliken charges:
               1
     1  Mg   0.434563
     2  C   -0.063207
     3  C   -0.078730
     4  C   -0.087343
     5  C   -0.060741
     6  N   -0.286944
     7  C    0.147992
     8  C    0.012437
     9  C   -0.002442
    10  C    0.133167
    11  C   -0.056309
    12  C   -0.020740
    13  C    0.000266
    14  C    0.478297
    15  O   -0.505758
    16  O   -0.282920
    17  N   -0.298235
    18  C    0.093770
    19  C    0.030708
    20  C   -0.071044
    21  C    0.119617
    22  C   -0.037029
    23  C    0.330316
    24  O   -0.516950
    25  C   -0.027975
    26  N   -0.249141
    27  C    0.128598
    28  C   -0.009076
    29  C   -0.004728
    30  C    0.142172
    31  C   -0.051931
    32  C   -0.030461
    33  C   -0.055461
    34  N   -0.341630
    35  C    0.089163
    36  C    0.032021
    37  C   -0.046884
    38  C    0.138539
    39  C   -0.045442
    40  C    0.330537
    41  O   -0.521726
    42  C    0.057615
    43  C    0.495151
    44  O   -0.542913
    45  O   -0.263329
    46  C    0.073941
    47  C    0.104118
    48  C   -0.085588
    49  C   -0.045242
    50  C   -0.050742
    51  C   -0.025963
    52  C   -0.034972
    53  C   -0.036190
    54  C   -0.018597
    55  C   -0.058709
    56  C   -0.037197
    57  C   -0.045149
    58  C   -0.040511
    59  C   -0.012870
    60  C   -0.059210
    61  C   -0.047403
    62  C   -0.044513
    63  C   -0.039958
    64  C   -0.024706
    65  C   -0.071913
    66  C   -0.060371
    67  H    0.030419
    68  H    0.030389
    69  H    0.026463
    70  H    0.049747
    71  H    0.031012
    72  H    0.022596
    73  H    0.022235
    74  H    0.025555
    75  H    0.029593
    76  H    0.016701
    77  H    0.045500
    78  H    0.036702
    79  H    0.017106
    80  H    0.029495
    81  H    0.040570
    82  H    0.034642
    83  H    0.028861
    84  H    0.043482
    85  H    0.022303
    86  H    0.029070
    87  H    0.018568
    88  H    0.026249
    89  H    0.026931
    90  H    0.024230
    91  H    0.021591
    92  H    0.015521
    93  H    0.021302
    94  H    0.020055
    95  H    0.037647
    96  H    0.043447
    97  H    0.027920
    98  H    0.063257
    99  H    0.043962
   100  H    0.044727
   101  H    0.041237
   102  H    0.059775
   103  H    0.065092
   104  H    0.033656
   105  H    0.030821
   106  H    0.019023
   107  H    0.043770
   108  H    0.026276
   109  H    0.030949
   110  H    0.009795
   111  H    0.025050
   112  H    0.018901
   113  H    0.011977
   114  H    0.023052
   115  H    0.022969
   116  H    0.014716
   117  H    0.016292
   118  H    0.022608
   119  H    0.028703
   120  H    0.018435
   121  H    0.020410
   122  H    0.013967
   123  H    0.005251
   124  H    0.028722
   125  H    0.022296
   126  H    0.019146
   127  H    0.033090
   128  H    0.020273
   129  H    0.018192
   130  H    0.015869
   131  H    0.014567
   132  H    0.027059
   133  H    0.020552
   134  H    0.028410
   135  H    0.021711
   136  H    0.020764
   137  H    0.015281
   138  H    0.032668
   139  H    0.022789
   140  H    0.013944
 Sum of Mulliken charges =  -0.00000

 Dipole moment (field-independent basis, Debye):
    X=             -0.0155    Y=              2.4055    Z=              4.8231  Tot=              5.3897
 N-N= 4.447669990426D+03 E-N= 0.000000000000D+00  KE=-9.569325880857D+03
 Leave Link  601 at Wed May  4 22:05:57 2022, MaxMem=  6710886400 cpu:               0.8 elap:               0.1
 (Enter /sw/apps/gaussian-16.0/g16/l9999.exe)
 1\1\GINC-BP1-COMPUTE067\SP\RZINDO CIS\STO-3G\C55H74Mg1N4O6\OF15641\04-
 May-2022\0\\#p ZINDO=(nstates=5)\\step_451_chromophore_17 ZINDO\\0,1\M
 g,0,29.731,58.852,40.326\C,0,26.674,57.323,39.402\C,0,31.326,56.216,39
 .\C,0,32.472,60.784,40.682\C,0,27.785,61.774,41.135\N,0,29.065,57.039,
 39.163\C,0,27.795,56.542,39.046\C,0,27.735,55.182,38.381\C,0,29.263,54
 .732,38.527\C,0,29.959,56.026,39.018\C,0,29.439,53.486,39.512\C,0,27.3
 36,55.3,36.921\C,0,26.161,54.407,36.426\C,0,26.361,53.698,35.14\O,0,26

 Normal termination of Gaussian 16 at Wed May  4 22:05:57 2022.
