 Gaussian 16, Revision A.03,
 Gaussian 16:  ES64L-G16RevA.03 25-Dec-2016

 ------------------------------
 #p blyp/Def2SVP td=(nstates=5)
 ------------------------------

 --------------------------------------------------
 step_651_chromophore_26 TDDFT with blyp functional
 --------------------------------------------------
 Symbolic Z-matrix:
 Charge =  0 Multiplicity = 1

                         Standard orientation:
 ---------------------------------------------------------------------
 Center     Atomic      Atomic             Coordinates (Angstroms)
 Number     Number       Type             X           Y           Z
 ---------------------------------------------------------------------
      1         12           0       -4.101018    1.461566    0.544024
      2          6           0       -4.868512   -2.122585    0.075714
      3          6           0       -2.053762    0.268667    3.315430
      4          6           0       -3.051319    4.424114    0.870096
      5          6           0       -5.325194    2.072205   -2.691966
      6          7           0       -3.435863   -0.663031    1.412659
      7          6           0       -3.928371   -1.925346    1.114157
      8          6           0       -3.455483   -2.998209    2.071671
      9          6           0       -2.605881   -2.169887    3.136474
     10          6           0       -2.723179   -0.733298    2.572748
     11          6           0       -2.906534   -2.362816    4.662070
     12          6           0       -2.729846   -4.226542    1.423655
     13          6           0       -1.686665   -3.795315    0.287053
     14          6           0       -0.451207   -4.623172    0.095975
     15          8           0       -0.444610   -5.859948   -0.164691
     16          8           0        0.677099   -3.868183    0.361634
     17          7           0       -2.878095    2.361675    2.028046
     18          6           0       -2.065939    1.670059    2.978233
     19          6           0       -1.338572    2.632562    3.637629
     20          6           0       -1.622279    3.915865    3.043496
     21          6           0       -2.555690    3.646698    1.980372
     22          6           0       -0.430286    2.256166    4.785778
     23          6           0       -1.133466    5.282244    3.447915
     24          8           0       -0.407311    5.398678    4.480117
     25          6           0       -1.530709    6.585021    2.627262
     26          7           0       -4.266695    3.007904   -0.800442
     27          6           0       -3.689499    4.184972   -0.364849
     28          6           0       -3.813081    5.240621   -1.562025
     29          6           0       -4.383005    4.451312   -2.753478
     30          6           0       -4.680975    3.127809   -2.126083
     31          6           0       -4.691421    6.416703   -1.066486
     32          6           0       -3.430577    4.176998   -3.934204
     33          6           0       -3.648984    5.054999   -5.129612
     34          7           0       -4.932370    0.302419   -1.013291
     35          6           0       -5.515774    0.778535   -2.200345
     36          6           0       -6.148135   -0.369347   -2.875818
     37          6           0       -5.941015   -1.504379   -2.001318
     38          6           0       -5.169785   -1.045736   -0.906345
     39          6           0       -6.965379   -0.308955   -4.254425
     40          6           0       -6.273594   -2.940584   -1.804394
     41          8           0       -6.990099   -3.665191   -2.496694
     42          6           0       -5.581953   -3.336088   -0.493919
     43          6           0       -6.517888   -3.994840    0.459021
     44          8           0       -6.244473   -5.015773    1.101012
     45          8           0       -7.673081   -3.219354    0.548042
     46          6           0       -8.570972   -3.725227    1.578038
     47          6           0        2.019751   -4.359887    0.080559
     48          6           0        2.874963   -3.335128   -0.643427
     49          6           0        2.901744   -2.997514   -1.936456
     50          6           0        1.860417   -3.425990   -2.980598
     51          6           0        3.925093   -2.075945   -2.512810
     52          6           0        3.660355   -0.549187   -2.353634
     53          6           0        5.011249    0.101844   -2.650046
     54          6           0        5.808523    0.803703   -1.545620
     55          6           0        6.157672    2.244864   -1.913560
     56          6           0        7.168345    0.001289   -1.167323
     57          6           0        7.281431   -0.064196    0.379248
     58          6           0        8.511873   -0.838164    0.709948
     59          6           0        9.554648   -0.164440    1.656352
     60          6           0        9.350984   -0.552729    3.141531
     61          6           0       10.992326   -0.509360    1.211819
     62          6           0       11.766791    0.579733    0.386591
     63          6           0       12.559090   -0.129045   -0.819164
     64          6           0       14.081694    0.085299   -0.792360
     65          6           0       14.372081    1.558685   -0.934920
     66          6           0       14.786448   -0.926565   -1.782362
     67          1           0       -1.363613   -0.132684    4.060314
     68          1           0       -2.756687    5.472104    0.779972
     69          1           0       -5.833513    2.303486   -3.629531
     70          1           0       -4.396639   -3.392281    2.453453
     71          1           0       -1.581720   -2.471950    2.916102
     72          1           0       -3.836088   -2.927895    4.733987
     73          1           0       -3.242748   -1.452332    5.157696
     74          1           0       -2.063988   -2.892601    5.106060
     75          1           0       -3.503793   -4.850419    0.976081
     76          1           0       -2.097366   -4.632364    2.213332
     77          1           0       -1.460272   -2.735165    0.398952
     78          1           0       -2.309749   -3.980555   -0.588242
     79          1           0       -0.912998    1.481006    5.381562
     80          1           0       -0.255275    3.166583    5.359570
     81          1           0        0.473371    1.846726    4.335693
     82          1           0       -2.607622    6.693567    2.493523
     83          1           0       -0.902976    6.596925    1.735987
     84          1           0       -1.178925    7.384084    3.280183
     85          1           0       -2.808884    5.592011   -1.799393
     86          1           0       -5.351740    4.864602   -3.034672
     87          1           0       -5.477081    6.210318   -0.340127
     88          1           0       -5.240362    6.860728   -1.897231
     89          1           0       -4.025472    7.193805   -0.690462
     90          1           0       -3.413428    3.113761   -4.171417
     91          1           0       -2.448440    4.533981   -3.623738
     92          1           0       -4.674713    5.420639   -5.178575
     93          1           0       -3.498503    4.400543   -5.987757
     94          1           0       -2.870076    5.815209   -5.068760
     95          1           0       -6.279081   -0.531627   -5.072018
     96          1           0       -7.370573    0.697611   -4.355335
     97          1           0       -7.793804   -1.016797   -4.242348
     98          1           0       -4.787383   -4.014299   -0.804307
     99          1           0       -9.117555   -4.553539    1.128221
    100          1           0       -9.325197   -2.965635    1.783734
    101          1           0       -8.095553   -4.121402    2.475940
    102          1           0        2.103653   -5.353584   -0.358776
    103          1           0        2.425869   -4.434213    1.088985
    104          1           0        3.722069   -3.094892   -0.001187
    105          1           0        1.110575   -4.119500   -2.601276
    106          1           0        2.393570   -3.906852   -3.801097
    107          1           0        1.190644   -2.615796   -3.267075
    108          1           0        4.173066   -2.369381   -3.532580
    109          1           0        4.882223   -2.235600   -2.017096
    110          1           0        3.308796   -0.296937   -1.352614
    111          1           0        2.944161   -0.181849   -3.088830
    112          1           0        4.740975    0.750105   -3.483659
    113          1           0        5.673446   -0.611405   -3.141813
    114          1           0        5.282715    0.819018   -0.590726
    115          1           0        6.137186    2.343250   -2.998375
    116          1           0        7.076383    2.572997   -1.426918
    117          1           0        5.432693    2.951590   -1.509524
    118          1           0        8.001450    0.533475   -1.626787
    119          1           0        7.175067   -0.996259   -1.605945
    120          1           0        6.505799   -0.691140    0.817339
    121          1           0        7.204015    0.981468    0.676603
    122          1           0        8.953181   -1.064204   -0.260736
    123          1           0        8.224270   -1.787993    1.159649
    124          1           0        9.513591    0.924254    1.692930
    125          1           0        9.884474   -1.461337    3.420612
    126          1           0        8.294782   -0.652394    3.389762
    127          1           0        9.888550    0.142446    3.786620
    128          1           0       11.002311   -1.500014    0.756833
    129          1           0       11.626943   -0.672227    2.083554
    130          1           0       12.541340    1.045013    0.996371
    131          1           0       10.978903    1.271867    0.090751
    132          1           0       12.174835    0.273331   -1.756469
    133          1           0       12.340995   -1.196765   -0.847908
    134          1           0       14.310048   -0.279139    0.209042
    135          1           0       15.086371    1.806284   -1.719492
    136          1           0       14.995980    1.824697   -0.082081
    137          1           0       13.617042    2.344041   -0.910767
    138          1           0       15.363497   -1.730469   -1.325167
    139          1           0       15.509072   -0.376426   -2.384237
    140          1           0       14.117796   -1.397900   -2.504530
 ---------------------------------------------------------------------

 SCF Done:  E(RB-LYP) =  -3007.35919828     A.U. after   22 cycles

 Excitation energies and oscillator strengths:

 Excited State   1:      Singlet-A      1.6113 eV  769.49 nm  f=0.0008  <S**2>=0.000
     244 -> 247        0.69696
     245 -> 247        0.11668
 This state for optimization and/or second-order correction.
 Total Energy, E(TD-HF/TD-DFT) =  -3007.29998581
 Copying the excited state density for this state as the 1-particle RhoCI density.

 Excited State   2:      Singlet-A      1.7541 eV  706.82 nm  f=0.2693  <S**2>=0.000
     243 -> 247       -0.13412
     245 -> 248        0.17005
     246 -> 247        0.68335
     246 <- 247       -0.16021

 Excited State   3:      Singlet-A      1.8295 eV  677.68 nm  f=0.0254  <S**2>=0.000
     243 -> 247        0.68031
     245 -> 247       -0.12571
     246 -> 247        0.13541

 Excited State   4:      Singlet-A      1.9813 eV  625.76 nm  f=0.1005  <S**2>=0.000
     240 -> 247        0.10173
     242 -> 247       -0.12841
     243 -> 247        0.13423
     244 -> 247       -0.10701
     245 -> 247        0.62740
     246 -> 248       -0.21261

 Excited State   5:      Singlet-A      2.1276 eV  582.74 nm  f=0.0004  <S**2>=0.000
     241 -> 247        0.70655

 The electronic state is 1-A.
 Alpha  occ. eigenvalues --  -46.28251 -18.83440 -18.81743 -18.78304 -18.76115
 Alpha  occ. eigenvalues --  -18.76007 -18.75329 -14.03936 -14.03494 -14.01392
 Alpha  occ. eigenvalues --  -14.01231 -10.05231 -10.03895 -10.00137 -10.00052
 Alpha  occ. eigenvalues --   -9.97980  -9.97730  -9.97640  -9.97423  -9.96948
 Alpha  occ. eigenvalues --   -9.96692  -9.96586  -9.96184  -9.95466  -9.95436
 Alpha  occ. eigenvalues --   -9.95265  -9.95102  -9.94788  -9.94707  -9.94482
 Alpha  occ. eigenvalues --   -9.94342  -9.94115  -9.93794  -9.93701  -9.93645
 Alpha  occ. eigenvalues --   -9.93308  -9.93265  -9.93124  -9.93122  -9.93036
 Alpha  occ. eigenvalues --   -9.93025  -9.93002  -9.92998  -9.92697  -9.92447
 Alpha  occ. eigenvalues --   -9.92388  -9.92191  -9.92051  -9.91947  -9.91914
 Alpha  occ. eigenvalues --   -9.91904  -9.91654  -9.91604  -9.91568  -9.91483
 Alpha  occ. eigenvalues --   -9.91333  -9.91267  -9.91044  -9.91014  -9.90854
 Alpha  occ. eigenvalues --   -9.90852  -9.90718  -9.90668  -9.90663  -9.90605
 Alpha  occ. eigenvalues --   -9.90385  -2.92748  -1.73168  -1.72683  -1.72412
 Alpha  occ. eigenvalues --   -0.98181  -0.96123  -0.91076  -0.90759  -0.88921
 Alpha  occ. eigenvalues --   -0.87762  -0.86293  -0.85675  -0.85534  -0.84186
 Alpha  occ. eigenvalues --   -0.75766  -0.73937  -0.73770  -0.72850  -0.72444
 Alpha  occ. eigenvalues --   -0.72337  -0.71710  -0.71463  -0.70840  -0.69897
 Alpha  occ. eigenvalues --   -0.68877  -0.68806  -0.68231  -0.68016  -0.67451
 Alpha  occ. eigenvalues --   -0.66602  -0.65939  -0.65295  -0.64933  -0.64152
 Alpha  occ. eigenvalues --   -0.64022  -0.63121  -0.62333  -0.61740  -0.61307
 Alpha  occ. eigenvalues --   -0.60607  -0.60276  -0.60111  -0.59023  -0.58608
 Alpha  occ. eigenvalues --   -0.58440  -0.57971  -0.56897  -0.55920  -0.54631
 Alpha  occ. eigenvalues --   -0.54232  -0.54031  -0.52846  -0.52675  -0.52288
 Alpha  occ. eigenvalues --   -0.51428  -0.51010  -0.50904  -0.50626  -0.50008
 Alpha  occ. eigenvalues --   -0.49768  -0.49525  -0.49022  -0.48699  -0.46891
 Alpha  occ. eigenvalues --   -0.45996  -0.45803  -0.45614  -0.45022  -0.44610
 Alpha  occ. eigenvalues --   -0.44298  -0.43796  -0.43191  -0.42915  -0.42608
 Alpha  occ. eigenvalues --   -0.42282  -0.42097  -0.41732  -0.41578  -0.41509
 Alpha  occ. eigenvalues --   -0.41132  -0.40814  -0.40790  -0.40468  -0.40025
 Alpha  occ. eigenvalues --   -0.39949  -0.39731  -0.39554  -0.39423  -0.39313
 Alpha  occ. eigenvalues --   -0.38954  -0.38534  -0.38404  -0.38227  -0.38201
 Alpha  occ. eigenvalues --   -0.38029  -0.37856  -0.37770  -0.37450  -0.37388
 Alpha  occ. eigenvalues --   -0.37065  -0.37007  -0.36620  -0.36459  -0.36298
 Alpha  occ. eigenvalues --   -0.36287  -0.35991  -0.35735  -0.35556  -0.35480
 Alpha  occ. eigenvalues --   -0.35250  -0.34919  -0.34878  -0.34850  -0.34718
 Alpha  occ. eigenvalues --   -0.34598  -0.34270  -0.33837  -0.33792  -0.33776
 Alpha  occ. eigenvalues --   -0.33674  -0.33583  -0.33429  -0.33346  -0.33315
 Alpha  occ. eigenvalues --   -0.33208  -0.32967  -0.32769  -0.32495  -0.32113
 Alpha  occ. eigenvalues --   -0.32002  -0.31862  -0.31819  -0.31581  -0.31419
 Alpha  occ. eigenvalues --   -0.31307  -0.31177  -0.30881  -0.30859  -0.30708
 Alpha  occ. eigenvalues --   -0.30604  -0.30500  -0.30423  -0.30253  -0.30043
 Alpha  occ. eigenvalues --   -0.29825  -0.29633  -0.29421  -0.29126  -0.29072
 Alpha  occ. eigenvalues --   -0.28916  -0.28681  -0.28543  -0.28283  -0.28091
 Alpha  occ. eigenvalues --   -0.27946  -0.27493  -0.27224  -0.26818  -0.26697
 Alpha  occ. eigenvalues --   -0.26284  -0.25856  -0.25817  -0.25774  -0.25677
 Alpha  occ. eigenvalues --   -0.25018  -0.24243  -0.24154  -0.24011  -0.23526
 Alpha  occ. eigenvalues --   -0.23437  -0.23215  -0.22176  -0.21528  -0.20456
 Alpha  occ. eigenvalues --   -0.20314  -0.20082  -0.19129  -0.18346  -0.17850
 Alpha  occ. eigenvalues --   -0.16494
 Alpha virt. eigenvalues --   -0.12497  -0.07102  -0.06407  -0.05058  -0.04122
 Alpha virt. eigenvalues --   -0.03519  -0.03268  -0.02559  -0.01891  -0.00490
 Alpha virt. eigenvalues --    0.00595   0.01106   0.01889   0.02214   0.02894

 Mulliken charges:
               1
     1  Mg   0.684766
     2  C   -0.031676
     3  C   -0.098996
     4  C    0.010369
     5  C   -0.069324
     6  N   -0.164669
     7  C   -0.098184
     8  C    0.013225
     9  C   -0.007314
    10  C    0.008077
    11  C    0.154698
    12  C    0.105650
    13  C    0.100459
    14  C    0.098841
    15  O   -0.229203
    16  O   -0.276804
    17  N   -0.310708
    18  C    0.171383
    19  C   -0.171009
    20  C    0.067362
    21  C    0.131567
    22  C    0.193836
    23  C   -0.102504
    24  O   -0.199447
    25  C    0.125411
    26  N   -0.285755
    27  C   -0.033323
    28  C    0.014907
    29  C    0.108802
    30  C   -0.024807
    31  C    0.116085
    32  C    0.075612
    33  C    0.090153
    34  N   -0.275442
    35  C    0.135080
    36  C   -0.179537
    37  C    0.023625
    38  C    0.071987
    39  C    0.152651
    40  C   -0.017299
    41  O   -0.127976
    42  C    0.103998
    43  C    0.135394
    44  O   -0.182055
    45  O   -0.277082
    46  C    0.227142
    47  C    0.327292
    48  C   -0.107455
    49  C   -0.099448
    50  C    0.129541
    51  C    0.090976
    52  C    0.113840
    53  C    0.103694
    54  C   -0.043798
    55  C    0.117124
    56  C    0.023890
    57  C    0.077964
    58  C    0.128678
    59  C   -0.047326
    60  C    0.095436
    61  C    0.069129
    62  C    0.082353
    63  C    0.052201
    64  C   -0.068937
    65  C    0.127008
    66  C    0.101898
    67  H   -0.034012
    68  H   -0.082607
    69  H   -0.067953
    70  H   -0.012963
    71  H   -0.017054
    72  H   -0.017519
    73  H   -0.006325
    74  H    0.007411
    75  H    0.017306
    76  H   -0.006231
    77  H    0.006682
    78  H    0.000128
    79  H   -0.005125
    80  H    0.011733
    81  H    0.000260
    82  H    0.024210
    83  H    0.016680
    84  H   -0.012518
    85  H   -0.023824
    86  H   -0.029401
    87  H    0.001543
    88  H   -0.017404
    89  H    0.000689
    90  H    0.000423
    91  H   -0.027381
    92  H   -0.008872
    93  H   -0.008931
    94  H   -0.002816
    95  H    0.010808
    96  H   -0.007299
    97  H    0.017072
    98  H    0.005754
    99  H    0.008553
   100  H    0.012323
   101  H    0.020334
   102  H    0.012601
   103  H   -0.031460
   104  H   -0.043377
   105  H   -0.018192
   106  H    0.004533
   107  H    0.003799
   108  H   -0.030906
   109  H   -0.030706
   110  H   -0.023378
   111  H   -0.032933
   112  H   -0.051512
   113  H   -0.037276
   114  H   -0.034926
   115  H   -0.011054
   116  H   -0.021933
   117  H   -0.025113
   118  H   -0.025996
   119  H   -0.027663
   120  H   -0.027974
   121  H   -0.019619
   122  H   -0.030385
   123  H   -0.038745
   124  H   -0.041960
   125  H   -0.025947
   126  H   -0.014546
   127  H   -0.024204
   128  H   -0.034511
   129  H   -0.055719
   130  H   -0.021949
   131  H   -0.023887
   132  H   -0.036283
   133  H   -0.031863
   134  H   -0.031944
   135  H   -0.028714
   136  H   -0.033121
   137  H   -0.002146
   138  H   -0.012893
   139  H   -0.029470
   140  H   -0.014329
 Sum of Mulliken charges =  -0.00000

 Dipole moment (field-independent basis, Debye):
    X=             -0.1473    Y=              5.3471    Z=             -1.7588  Tot=              5.6308
 Quadrupole moment (field-independent basis, Debye-Ang):
   XX=           -383.8746   YY=           -439.4860   ZZ=           -407.0515
   XY=            -39.1393   XZ=            -15.2263   YZ=            -40.1343

 Normal termination of Gaussian 16 at Sat Apr 30 08:50:49 2022.
