 Gaussian 16, Revision A.03,
 Gaussian 16:  ES64L-G16RevA.03 25-Dec-2016

 -----------------------------------
 #p cam-b3lyp/Def2SVP td=(nstates=5)
 -----------------------------------

 -------------------------------------------------------
 step_651_chromophore_26 TDDFT with cam-b3lyp functional
 -------------------------------------------------------
 Symbolic Z-matrix:
 Charge =  0 Multiplicity = 1

                         Standard orientation:
 ---------------------------------------------------------------------
 Center     Atomic      Atomic             Coordinates (Angstroms)
 Number     Number       Type             X           Y           Z
 ---------------------------------------------------------------------
      1         12           0       -4.101018    1.461566    0.544024
      2          6           0       -4.868512   -2.122585    0.075714
      3          6           0       -2.053762    0.268667    3.315430
      4          6           0       -3.051319    4.424114    0.870096
      5          6           0       -5.325194    2.072205   -2.691966
      6          7           0       -3.435863   -0.663031    1.412659
      7          6           0       -3.928371   -1.925346    1.114157
      8          6           0       -3.455483   -2.998209    2.071671
      9          6           0       -2.605881   -2.169887    3.136474
     10          6           0       -2.723179   -0.733298    2.572748
     11          6           0       -2.906534   -2.362816    4.662070
     12          6           0       -2.729846   -4.226542    1.423655
     13          6           0       -1.686665   -3.795315    0.287053
     14          6           0       -0.451207   -4.623172    0.095975
     15          8           0       -0.444610   -5.859948   -0.164691
     16          8           0        0.677099   -3.868183    0.361634
     17          7           0       -2.878095    2.361675    2.028046
     18          6           0       -2.065939    1.670059    2.978233
     19          6           0       -1.338572    2.632562    3.637629
     20          6           0       -1.622279    3.915865    3.043496
     21          6           0       -2.555690    3.646698    1.980372
     22          6           0       -0.430286    2.256166    4.785778
     23          6           0       -1.133466    5.282244    3.447915
     24          8           0       -0.407311    5.398678    4.480117
     25          6           0       -1.530709    6.585021    2.627262
     26          7           0       -4.266695    3.007904   -0.800442
     27          6           0       -3.689499    4.184972   -0.364849
     28          6           0       -3.813081    5.240621   -1.562025
     29          6           0       -4.383005    4.451312   -2.753478
     30          6           0       -4.680975    3.127809   -2.126083
     31          6           0       -4.691421    6.416703   -1.066486
     32          6           0       -3.430577    4.176998   -3.934204
     33          6           0       -3.648984    5.054999   -5.129612
     34          7           0       -4.932370    0.302419   -1.013291
     35          6           0       -5.515774    0.778535   -2.200345
     36          6           0       -6.148135   -0.369347   -2.875818
     37          6           0       -5.941015   -1.504379   -2.001318
     38          6           0       -5.169785   -1.045736   -0.906345
     39          6           0       -6.965379   -0.308955   -4.254425
     40          6           0       -6.273594   -2.940584   -1.804394
     41          8           0       -6.990099   -3.665191   -2.496694
     42          6           0       -5.581953   -3.336088   -0.493919
     43          6           0       -6.517888   -3.994840    0.459021
     44          8           0       -6.244473   -5.015773    1.101012
     45          8           0       -7.673081   -3.219354    0.548042
     46          6           0       -8.570972   -3.725227    1.578038
     47          6           0        2.019751   -4.359887    0.080559
     48          6           0        2.874963   -3.335128   -0.643427
     49          6           0        2.901744   -2.997514   -1.936456
     50          6           0        1.860417   -3.425990   -2.980598
     51          6           0        3.925093   -2.075945   -2.512810
     52          6           0        3.660355   -0.549187   -2.353634
     53          6           0        5.011249    0.101844   -2.650046
     54          6           0        5.808523    0.803703   -1.545620
     55          6           0        6.157672    2.244864   -1.913560
     56          6           0        7.168345    0.001289   -1.167323
     57          6           0        7.281431   -0.064196    0.379248
     58          6           0        8.511873   -0.838164    0.709948
     59          6           0        9.554648   -0.164440    1.656352
     60          6           0        9.350984   -0.552729    3.141531
     61          6           0       10.992326   -0.509360    1.211819
     62          6           0       11.766791    0.579733    0.386591
     63          6           0       12.559090   -0.129045   -0.819164
     64          6           0       14.081694    0.085299   -0.792360
     65          6           0       14.372081    1.558685   -0.934920
     66          6           0       14.786448   -0.926565   -1.782362
     67          1           0       -1.363613   -0.132684    4.060314
     68          1           0       -2.756687    5.472104    0.779972
     69          1           0       -5.833513    2.303486   -3.629531
     70          1           0       -4.396639   -3.392281    2.453453
     71          1           0       -1.581720   -2.471950    2.916102
     72          1           0       -3.836088   -2.927895    4.733987
     73          1           0       -3.242748   -1.452332    5.157696
     74          1           0       -2.063988   -2.892601    5.106060
     75          1           0       -3.503793   -4.850419    0.976081
     76          1           0       -2.097366   -4.632364    2.213332
     77          1           0       -1.460272   -2.735165    0.398952
     78          1           0       -2.309749   -3.980555   -0.588242
     79          1           0       -0.912998    1.481006    5.381562
     80          1           0       -0.255275    3.166583    5.359570
     81          1           0        0.473371    1.846726    4.335693
     82          1           0       -2.607622    6.693567    2.493523
     83          1           0       -0.902976    6.596925    1.735987
     84          1           0       -1.178925    7.384084    3.280183
     85          1           0       -2.808884    5.592011   -1.799393
     86          1           0       -5.351740    4.864602   -3.034672
     87          1           0       -5.477081    6.210318   -0.340127
     88          1           0       -5.240362    6.860728   -1.897231
     89          1           0       -4.025472    7.193805   -0.690462
     90          1           0       -3.413428    3.113761   -4.171417
     91          1           0       -2.448440    4.533981   -3.623738
     92          1           0       -4.674713    5.420639   -5.178575
     93          1           0       -3.498503    4.400543   -5.987757
     94          1           0       -2.870076    5.815209   -5.068760
     95          1           0       -6.279081   -0.531627   -5.072018
     96          1           0       -7.370573    0.697611   -4.355335
     97          1           0       -7.793804   -1.016797   -4.242348
     98          1           0       -4.787383   -4.014299   -0.804307
     99          1           0       -9.117555   -4.553539    1.128221
    100          1           0       -9.325197   -2.965635    1.783734
    101          1           0       -8.095553   -4.121402    2.475940
    102          1           0        2.103653   -5.353584   -0.358776
    103          1           0        2.425869   -4.434213    1.088985
    104          1           0        3.722069   -3.094892   -0.001187
    105          1           0        1.110575   -4.119500   -2.601276
    106          1           0        2.393570   -3.906852   -3.801097
    107          1           0        1.190644   -2.615796   -3.267075
    108          1           0        4.173066   -2.369381   -3.532580
    109          1           0        4.882223   -2.235600   -2.017096
    110          1           0        3.308796   -0.296937   -1.352614
    111          1           0        2.944161   -0.181849   -3.088830
    112          1           0        4.740975    0.750105   -3.483659
    113          1           0        5.673446   -0.611405   -3.141813
    114          1           0        5.282715    0.819018   -0.590726
    115          1           0        6.137186    2.343250   -2.998375
    116          1           0        7.076383    2.572997   -1.426918
    117          1           0        5.432693    2.951590   -1.509524
    118          1           0        8.001450    0.533475   -1.626787
    119          1           0        7.175067   -0.996259   -1.605945
    120          1           0        6.505799   -0.691140    0.817339
    121          1           0        7.204015    0.981468    0.676603
    122          1           0        8.953181   -1.064204   -0.260736
    123          1           0        8.224270   -1.787993    1.159649
    124          1           0        9.513591    0.924254    1.692930
    125          1           0        9.884474   -1.461337    3.420612
    126          1           0        8.294782   -0.652394    3.389762
    127          1           0        9.888550    0.142446    3.786620
    128          1           0       11.002311   -1.500014    0.756833
    129          1           0       11.626943   -0.672227    2.083554
    130          1           0       12.541340    1.045013    0.996371
    131          1           0       10.978903    1.271867    0.090751
    132          1           0       12.174835    0.273331   -1.756469
    133          1           0       12.340995   -1.196765   -0.847908
    134          1           0       14.310048   -0.279139    0.209042
    135          1           0       15.086371    1.806284   -1.719492
    136          1           0       14.995980    1.824697   -0.082081
    137          1           0       13.617042    2.344041   -0.910767
    138          1           0       15.363497   -1.730469   -1.325167
    139          1           0       15.509072   -0.376426   -2.384237
    140          1           0       14.117796   -1.397900   -2.504530
 ---------------------------------------------------------------------

 SCF Done:  E(RCAM-B3LYP) =  -3007.13393531     A.U. after   19 cycles

 Excitation energies and oscillator strengths:

 Excited State   1:      Singlet-A      1.6164 eV  767.03 nm  f=0.3681  <S**2>=0.000
     245 -> 248       -0.16609
     246 -> 247        0.68977
     245 <- 248       -0.10894
 This state for optimization and/or second-order correction.
 Total Energy, E(TD-HF/TD-DFT) =  -3007.07453304
 Copying the excited state density for this state as the 1-particle RhoCI density.

 Excited State   2:      Singlet-A      2.1603 eV  573.93 nm  f=0.1619  <S**2>=0.000
     245 -> 247        0.65575
     246 -> 248        0.24442

 Excited State   3:      Singlet-A      2.9887 eV  414.84 nm  f=0.0074  <S**2>=0.000
     244 -> 247        0.69045

 Excited State   4:      Singlet-A      3.1268 eV  396.52 nm  f=0.0187  <S**2>=0.000
     243 -> 247        0.68576

 Excited State   5:      Singlet-A      3.3184 eV  373.63 nm  f=0.0006  <S**2>=0.000
     241 -> 247        0.57790
     241 -> 248       -0.12897
     241 -> 249       -0.25434
     241 -> 251       -0.23333

 The electronic state is 1-A.
 Alpha  occ. eigenvalues --  -46.89870 -19.26352 -19.24618 -19.21469 -19.19361
 Alpha  occ. eigenvalues --  -19.18997 -19.18574 -14.42965 -14.42344 -14.39851
 Alpha  occ. eigenvalues --  -14.39626 -10.40789 -10.39376 -10.35532 -10.35448
 Alpha  occ. eigenvalues --  -10.32399 -10.32002 -10.31890 -10.31697 -10.31560
 Alpha  occ. eigenvalues --  -10.31125 -10.31040 -10.30381 -10.29845 -10.29842
 Alpha  occ. eigenvalues --  -10.29558 -10.29308 -10.29199 -10.29165 -10.28431
 Alpha  occ. eigenvalues --  -10.28346 -10.28179 -10.28157 -10.27758 -10.27732
 Alpha  occ. eigenvalues --  -10.27663 -10.27282 -10.27128 -10.27012 -10.27006
 Alpha  occ. eigenvalues --  -10.26978 -10.26882 -10.26771 -10.26769 -10.26707
 Alpha  occ. eigenvalues --  -10.25953 -10.25881 -10.25744 -10.25677 -10.25625
 Alpha  occ. eigenvalues --  -10.25569 -10.25534 -10.25434 -10.25373 -10.25337
 Alpha  occ. eigenvalues --  -10.25062 -10.24984 -10.24662 -10.24612 -10.24453
 Alpha  occ. eigenvalues --  -10.24423 -10.24406 -10.24296 -10.24219 -10.24205
 Alpha  occ. eigenvalues --  -10.24068  -3.18264  -1.93162  -1.92762  -1.92513
 Alpha  occ. eigenvalues --   -1.16681  -1.14499  -1.09493  -1.08726  -1.07257
 Alpha  occ. eigenvalues --   -1.05632  -1.04040  -1.03377  -1.03163  -1.01616
 Alpha  occ. eigenvalues --   -0.92947  -0.90640  -0.90610  -0.89635  -0.89186
 Alpha  occ. eigenvalues --   -0.89123  -0.88390  -0.88086  -0.87403  -0.86469
 Alpha  occ. eigenvalues --   -0.85215  -0.85040  -0.84601  -0.84296  -0.83644
 Alpha  occ. eigenvalues --   -0.82654  -0.82036  -0.81068  -0.80829  -0.80124
 Alpha  occ. eigenvalues --   -0.79886  -0.78660  -0.77963  -0.77424  -0.76808
 Alpha  occ. eigenvalues --   -0.75988  -0.75572  -0.75409  -0.74261  -0.73738
 Alpha  occ. eigenvalues --   -0.73597  -0.72981  -0.71788  -0.70773  -0.69175
 Alpha  occ. eigenvalues --   -0.68847  -0.68619  -0.67302  -0.67116  -0.66432
 Alpha  occ. eigenvalues --   -0.65392  -0.65189  -0.64996  -0.64727  -0.64041
 Alpha  occ. eigenvalues --   -0.63532  -0.63279  -0.62938  -0.62597  -0.60578
 Alpha  occ. eigenvalues --   -0.59385  -0.59266  -0.59203  -0.58550  -0.58088
 Alpha  occ. eigenvalues --   -0.57658  -0.57170  -0.56380  -0.56269  -0.55693
 Alpha  occ. eigenvalues --   -0.55483  -0.54927  -0.54537  -0.54373  -0.54289
 Alpha  occ. eigenvalues --   -0.54011  -0.53510  -0.53425  -0.53344  -0.52988
 Alpha  occ. eigenvalues --   -0.52594  -0.52409  -0.52282  -0.51883  -0.51806
 Alpha  occ. eigenvalues --   -0.51583  -0.51223  -0.51012  -0.50825  -0.50458
 Alpha  occ. eigenvalues --   -0.50330  -0.50191  -0.50126  -0.49750  -0.49580
 Alpha  occ. eigenvalues --   -0.49330  -0.49132  -0.49058  -0.48867  -0.48808
 Alpha  occ. eigenvalues --   -0.48313  -0.48258  -0.47995  -0.47743  -0.47639
 Alpha  occ. eigenvalues --   -0.47476  -0.47227  -0.46844  -0.46718  -0.46642
 Alpha  occ. eigenvalues --   -0.46576  -0.46114  -0.45893  -0.45733  -0.45580
 Alpha  occ. eigenvalues --   -0.45485  -0.45435  -0.45261  -0.45103  -0.44944
 Alpha  occ. eigenvalues --   -0.44820  -0.44611  -0.44310  -0.44151  -0.44066
 Alpha  occ. eigenvalues --   -0.43567  -0.43539  -0.43352  -0.43137  -0.42831
 Alpha  occ. eigenvalues --   -0.42714  -0.42673  -0.42443  -0.42184  -0.42134
 Alpha  occ. eigenvalues --   -0.41931  -0.41748  -0.41695  -0.41597  -0.41478
 Alpha  occ. eigenvalues --   -0.41316  -0.41196  -0.40643  -0.40325  -0.40271
 Alpha  occ. eigenvalues --   -0.39876  -0.39722  -0.39484  -0.39325  -0.39179
 Alpha  occ. eigenvalues --   -0.38920  -0.38299  -0.38033  -0.37773  -0.37452
 Alpha  occ. eigenvalues --   -0.37444  -0.37093  -0.36922  -0.36503  -0.36369
 Alpha  occ. eigenvalues --   -0.35727  -0.35638  -0.35253  -0.34593  -0.34407
 Alpha  occ. eigenvalues --   -0.33778  -0.33531  -0.33452  -0.31461  -0.31194
 Alpha  occ. eigenvalues --   -0.30664  -0.30371  -0.29665  -0.29422  -0.24623
 Alpha  occ. eigenvalues --   -0.21852
 Alpha virt. eigenvalues --   -0.09937  -0.01856   0.00112   0.01646   0.01960
 Alpha virt. eigenvalues --    0.03749   0.04105   0.04920   0.05220   0.06244
 Alpha virt. eigenvalues --    0.07413   0.07923   0.08168   0.08428   0.09144

 Mulliken charges:
               1
     1  Mg   0.814227
     2  C   -0.048580
     3  C   -0.103601
     4  C   -0.025553
     5  C   -0.079020
     6  N   -0.228494
     7  C   -0.059283
     8  C   -0.030152
     9  C   -0.067054
    10  C    0.029135
    11  C    0.089514
    12  C    0.060437
    13  C    0.027149
    14  C    0.185290
    15  O   -0.270614
    16  O   -0.341877
    17  N   -0.398270
    18  C    0.172768
    19  C   -0.170546
    20  C   -0.007148
    21  C    0.165932
    22  C    0.135691
    23  C   -0.024109
    24  O   -0.242495
    25  C    0.046328
    26  N   -0.359650
    27  C   -0.000612
    28  C   -0.040237
    29  C    0.049597
    30  C   -0.005444
    31  C    0.056716
    32  C    0.020134
    33  C    0.027796
    34  N   -0.361666
    35  C    0.138389
    36  C   -0.174716
    37  C   -0.055874
    38  C    0.108521
    39  C    0.108495
    40  C    0.088746
    41  O   -0.166504
    42  C    0.015443
    43  C    0.224588
    44  O   -0.222657
    45  O   -0.338960
    46  C    0.182103
    47  C    0.290337
    48  C   -0.129496
    49  C   -0.121361
    50  C    0.072184
    51  C    0.032644
    52  C    0.062555
    53  C    0.044019
    54  C   -0.102299
    55  C    0.059497
    56  C   -0.023600
    57  C    0.025249
    58  C    0.072944
    59  C   -0.107500
    60  C    0.040085
    61  C    0.018423
    62  C    0.027195
    63  C    0.003265
    64  C   -0.126620
    65  C    0.055470
    66  C    0.042579
    67  H    0.003038
    68  H   -0.049446
    69  H   -0.032300
    70  H    0.021116
    71  H    0.017084
    72  H    0.008881
    73  H    0.020714
    74  H    0.031966
    75  H    0.045806
    76  H    0.023683
    77  H    0.039584
    78  H    0.028953
    79  H    0.019389
    80  H    0.044147
    81  H    0.028200
    82  H    0.050507
    83  H    0.044655
    84  H    0.024381
    85  H    0.010965
    86  H    0.006642
    87  H    0.027763
    88  H    0.008239
    89  H    0.022868
    90  H    0.031394
    91  H    0.001034
    92  H    0.013114
    93  H    0.015612
    94  H    0.019730
    95  H    0.035605
    96  H    0.014714
    97  H    0.042912
    98  H    0.045568
    99  H    0.031990
   100  H    0.036960
   101  H    0.044434
   102  H    0.044405
   103  H    0.000226
   104  H   -0.012081
   105  H    0.004984
   106  H    0.027818
   107  H    0.027763
   108  H   -0.001191
   109  H   -0.002930
   110  H    0.005655
   111  H   -0.003681
   112  H   -0.019794
   113  H   -0.008430
   114  H   -0.002855
   115  H    0.012340
   116  H    0.001748
   117  H    0.000215
   118  H    0.001413
   119  H   -0.001985
   120  H   -0.000645
   121  H    0.006210
   122  H   -0.001664
   123  H   -0.009010
   124  H   -0.010082
   125  H   -0.002006
   126  H    0.009161
   127  H    0.001054
   128  H   -0.006799
   129  H   -0.024517
   130  H    0.005515
   131  H    0.003023
   132  H   -0.008293
   133  H   -0.003874
   134  H   -0.001268
   135  H   -0.001980
   136  H   -0.007194
   137  H    0.023066
   138  H    0.011666
   139  H   -0.005117
   140  H    0.009788
 Sum of Mulliken charges =  -0.00000

 Dipole moment (field-independent basis, Debye):
    X=             -0.0085    Y=              5.7791    Z=             -1.5339  Tot=              5.9792
 Quadrupole moment (field-independent basis, Debye-Ang):
   XX=           -384.0393   YY=           -436.7059   ZZ=           -405.3915
   XY=            -40.8924   XZ=            -15.7417   YZ=            -40.8332

 Normal termination of Gaussian 16 at Sat Apr 30 07:49:19 2022.
