 Gaussian 16, Revision A.03,
 Gaussian 16:  ES64L-G16RevA.03 25-Dec-2016

 ---------------------------------
 #p PBE1PBE/Def2SVP td=(nstates=5)
 ---------------------------------

 -----------------------------------------------------
 step_651_chromophore_26 TDDFT with PBE1PBE functional
 -----------------------------------------------------
 Symbolic Z-matrix:
 Charge =  0 Multiplicity = 1

                         Standard orientation:
 ---------------------------------------------------------------------
 Center     Atomic      Atomic             Coordinates (Angstroms)
 Number     Number       Type             X           Y           Z
 ---------------------------------------------------------------------
      1         12           0       -4.101018    1.461566    0.544024
      2          6           0       -4.868512   -2.122585    0.075714
      3          6           0       -2.053762    0.268667    3.315430
      4          6           0       -3.051319    4.424114    0.870096
      5          6           0       -5.325194    2.072205   -2.691966
      6          7           0       -3.435863   -0.663031    1.412659
      7          6           0       -3.928371   -1.925346    1.114157
      8          6           0       -3.455483   -2.998209    2.071671
      9          6           0       -2.605881   -2.169887    3.136474
     10          6           0       -2.723179   -0.733298    2.572748
     11          6           0       -2.906534   -2.362816    4.662070
     12          6           0       -2.729846   -4.226542    1.423655
     13          6           0       -1.686665   -3.795315    0.287053
     14          6           0       -0.451207   -4.623172    0.095975
     15          8           0       -0.444610   -5.859948   -0.164691
     16          8           0        0.677099   -3.868183    0.361634
     17          7           0       -2.878095    2.361675    2.028046
     18          6           0       -2.065939    1.670059    2.978233
     19          6           0       -1.338572    2.632562    3.637629
     20          6           0       -1.622279    3.915865    3.043496
     21          6           0       -2.555690    3.646698    1.980372
     22          6           0       -0.430286    2.256166    4.785778
     23          6           0       -1.133466    5.282244    3.447915
     24          8           0       -0.407311    5.398678    4.480117
     25          6           0       -1.530709    6.585021    2.627262
     26          7           0       -4.266695    3.007904   -0.800442
     27          6           0       -3.689499    4.184972   -0.364849
     28          6           0       -3.813081    5.240621   -1.562025
     29          6           0       -4.383005    4.451312   -2.753478
     30          6           0       -4.680975    3.127809   -2.126083
     31          6           0       -4.691421    6.416703   -1.066486
     32          6           0       -3.430577    4.176998   -3.934204
     33          6           0       -3.648984    5.054999   -5.129612
     34          7           0       -4.932370    0.302419   -1.013291
     35          6           0       -5.515774    0.778535   -2.200345
     36          6           0       -6.148135   -0.369347   -2.875818
     37          6           0       -5.941015   -1.504379   -2.001318
     38          6           0       -5.169785   -1.045736   -0.906345
     39          6           0       -6.965379   -0.308955   -4.254425
     40          6           0       -6.273594   -2.940584   -1.804394
     41          8           0       -6.990099   -3.665191   -2.496694
     42          6           0       -5.581953   -3.336088   -0.493919
     43          6           0       -6.517888   -3.994840    0.459021
     44          8           0       -6.244473   -5.015773    1.101012
     45          8           0       -7.673081   -3.219354    0.548042
     46          6           0       -8.570972   -3.725227    1.578038
     47          6           0        2.019751   -4.359887    0.080559
     48          6           0        2.874963   -3.335128   -0.643427
     49          6           0        2.901744   -2.997514   -1.936456
     50          6           0        1.860417   -3.425990   -2.980598
     51          6           0        3.925093   -2.075945   -2.512810
     52          6           0        3.660355   -0.549187   -2.353634
     53          6           0        5.011249    0.101844   -2.650046
     54          6           0        5.808523    0.803703   -1.545620
     55          6           0        6.157672    2.244864   -1.913560
     56          6           0        7.168345    0.001289   -1.167323
     57          6           0        7.281431   -0.064196    0.379248
     58          6           0        8.511873   -0.838164    0.709948
     59          6           0        9.554648   -0.164440    1.656352
     60          6           0        9.350984   -0.552729    3.141531
     61          6           0       10.992326   -0.509360    1.211819
     62          6           0       11.766791    0.579733    0.386591
     63          6           0       12.559090   -0.129045   -0.819164
     64          6           0       14.081694    0.085299   -0.792360
     65          6           0       14.372081    1.558685   -0.934920
     66          6           0       14.786448   -0.926565   -1.782362
     67          1           0       -1.363613   -0.132684    4.060314
     68          1           0       -2.756687    5.472104    0.779972
     69          1           0       -5.833513    2.303486   -3.629531
     70          1           0       -4.396639   -3.392281    2.453453
     71          1           0       -1.581720   -2.471950    2.916102
     72          1           0       -3.836088   -2.927895    4.733987
     73          1           0       -3.242748   -1.452332    5.157696
     74          1           0       -2.063988   -2.892601    5.106060
     75          1           0       -3.503793   -4.850419    0.976081
     76          1           0       -2.097366   -4.632364    2.213332
     77          1           0       -1.460272   -2.735165    0.398952
     78          1           0       -2.309749   -3.980555   -0.588242
     79          1           0       -0.912998    1.481006    5.381562
     80          1           0       -0.255275    3.166583    5.359570
     81          1           0        0.473371    1.846726    4.335693
     82          1           0       -2.607622    6.693567    2.493523
     83          1           0       -0.902976    6.596925    1.735987
     84          1           0       -1.178925    7.384084    3.280183
     85          1           0       -2.808884    5.592011   -1.799393
     86          1           0       -5.351740    4.864602   -3.034672
     87          1           0       -5.477081    6.210318   -0.340127
     88          1           0       -5.240362    6.860728   -1.897231
     89          1           0       -4.025472    7.193805   -0.690462
     90          1           0       -3.413428    3.113761   -4.171417
     91          1           0       -2.448440    4.533981   -3.623738
     92          1           0       -4.674713    5.420639   -5.178575
     93          1           0       -3.498503    4.400543   -5.987757
     94          1           0       -2.870076    5.815209   -5.068760
     95          1           0       -6.279081   -0.531627   -5.072018
     96          1           0       -7.370573    0.697611   -4.355335
     97          1           0       -7.793804   -1.016797   -4.242348
     98          1           0       -4.787383   -4.014299   -0.804307
     99          1           0       -9.117555   -4.553539    1.128221
    100          1           0       -9.325197   -2.965635    1.783734
    101          1           0       -8.095553   -4.121402    2.475940
    102          1           0        2.103653   -5.353584   -0.358776
    103          1           0        2.425869   -4.434213    1.088985
    104          1           0        3.722069   -3.094892   -0.001187
    105          1           0        1.110575   -4.119500   -2.601276
    106          1           0        2.393570   -3.906852   -3.801097
    107          1           0        1.190644   -2.615796   -3.267075
    108          1           0        4.173066   -2.369381   -3.532580
    109          1           0        4.882223   -2.235600   -2.017096
    110          1           0        3.308796   -0.296937   -1.352614
    111          1           0        2.944161   -0.181849   -3.088830
    112          1           0        4.740975    0.750105   -3.483659
    113          1           0        5.673446   -0.611405   -3.141813
    114          1           0        5.282715    0.819018   -0.590726
    115          1           0        6.137186    2.343250   -2.998375
    116          1           0        7.076383    2.572997   -1.426918
    117          1           0        5.432693    2.951590   -1.509524
    118          1           0        8.001450    0.533475   -1.626787
    119          1           0        7.175067   -0.996259   -1.605945
    120          1           0        6.505799   -0.691140    0.817339
    121          1           0        7.204015    0.981468    0.676603
    122          1           0        8.953181   -1.064204   -0.260736
    123          1           0        8.224270   -1.787993    1.159649
    124          1           0        9.513591    0.924254    1.692930
    125          1           0        9.884474   -1.461337    3.420612
    126          1           0        8.294782   -0.652394    3.389762
    127          1           0        9.888550    0.142446    3.786620
    128          1           0       11.002311   -1.500014    0.756833
    129          1           0       11.626943   -0.672227    2.083554
    130          1           0       12.541340    1.045013    0.996371
    131          1           0       10.978903    1.271867    0.090751
    132          1           0       12.174835    0.273331   -1.756469
    133          1           0       12.340995   -1.196765   -0.847908
    134          1           0       14.310048   -0.279139    0.209042
    135          1           0       15.086371    1.806284   -1.719492
    136          1           0       14.995980    1.824697   -0.082081
    137          1           0       13.617042    2.344041   -0.910767
    138          1           0       15.363497   -1.730469   -1.325167
    139          1           0       15.509072   -0.376426   -2.384237
    140          1           0       14.117796   -1.397900   -2.504530
 ---------------------------------------------------------------------

 SCF Done:  E(RPBE1PBE) =  -3005.32390500     A.U. after   16 cycles

 Excitation energies and oscillator strengths:

 Excited State   1:      Singlet-A      1.7877 eV  693.55 nm  f=0.3518  <S**2>=0.000
     245 -> 248       -0.15948
     246 -> 247        0.69797
     246 <- 247       -0.12112
 This state for optimization and/or second-order correction.
 Total Energy, E(TD-HF/TD-DFT) =  -3005.25820910
 Copying the excited state density for this state as the 1-particle RhoCI density.

 Excited State   2:      Singlet-A      2.1765 eV  569.64 nm  f=0.1475  <S**2>=0.000
     245 -> 247        0.66099
     246 -> 248        0.22477

 Excited State   3:      Singlet-A      2.6773 eV  463.09 nm  f=0.0090  <S**2>=0.000
     242 -> 247        0.20336
     244 -> 247        0.66447

 Excited State   4:      Singlet-A      2.7442 eV  451.80 nm  f=0.0002  <S**2>=0.000
     242 -> 247        0.39562
     243 -> 247        0.54220
     244 -> 247       -0.13996

 Excited State   5:      Singlet-A      2.8050 eV  442.01 nm  f=0.0223  <S**2>=0.000
     240 -> 247        0.11985
     242 -> 247        0.51745
     243 -> 247       -0.41963
     244 -> 247       -0.15373

 The electronic state is 1-A.
 Alpha  occ. eigenvalues --  -46.93258 -19.27000 -19.25302 -19.21723 -19.19621
 Alpha  occ. eigenvalues --  -19.19278 -19.18774 -14.42406 -14.41926 -14.39487
 Alpha  occ. eigenvalues --  -14.39365 -10.37817 -10.36378 -10.32715 -10.32585
 Alpha  occ. eigenvalues --  -10.30111 -10.29766 -10.29217 -10.29098 -10.29060
 Alpha  occ. eigenvalues --  -10.28833 -10.28687 -10.28208 -10.27642 -10.27468
 Alpha  occ. eigenvalues --  -10.27388 -10.27123 -10.27037 -10.26808 -10.26227
 Alpha  occ. eigenvalues --  -10.26198 -10.26013 -10.25722 -10.25475 -10.25383
 Alpha  occ. eigenvalues --  -10.25217 -10.24786 -10.24739 -10.24705 -10.24648
 Alpha  occ. eigenvalues --  -10.24498 -10.24434 -10.24383 -10.24238 -10.23976
 Alpha  occ. eigenvalues --  -10.23565 -10.23537 -10.23401 -10.23336 -10.23109
 Alpha  occ. eigenvalues --  -10.23072 -10.23069 -10.23019 -10.22965 -10.22731
 Alpha  occ. eigenvalues --  -10.22615 -10.22582 -10.22129 -10.22060 -10.22035
 Alpha  occ. eigenvalues --  -10.21984 -10.21834 -10.21789 -10.21641 -10.21597
 Alpha  occ. eigenvalues --  -10.21591  -3.15235  -1.88072  -1.87652  -1.87406
 Alpha  occ. eigenvalues --   -1.11429  -1.09289  -1.04259  -1.03555  -1.01919
 Alpha  occ. eigenvalues --   -1.00447  -0.98624  -0.97939  -0.97794  -0.96329
 Alpha  occ. eigenvalues --   -0.87283  -0.84971  -0.84715  -0.83735  -0.83478
 Alpha  occ. eigenvalues --   -0.83344  -0.82482  -0.82410  -0.81518  -0.80749
 Alpha  occ. eigenvalues --   -0.79420  -0.79360  -0.78861  -0.78555  -0.77929
 Alpha  occ. eigenvalues --   -0.76891  -0.76254  -0.75414  -0.74998  -0.74301
 Alpha  occ. eigenvalues --   -0.74031  -0.72976  -0.72228  -0.71674  -0.71105
 Alpha  occ. eigenvalues --   -0.70065  -0.69806  -0.69681  -0.68403  -0.68062
 Alpha  occ. eigenvalues --   -0.67820  -0.67357  -0.66190  -0.65102  -0.63562
 Alpha  occ. eigenvalues --   -0.63307  -0.62854  -0.61715  -0.61378  -0.60826
 Alpha  occ. eigenvalues --   -0.59913  -0.59548  -0.59353  -0.59251  -0.58187
 Alpha  occ. eigenvalues --   -0.58090  -0.57757  -0.57102  -0.56788  -0.55104
 Alpha  occ. eigenvalues --   -0.54016  -0.53808  -0.53620  -0.53125  -0.52580
 Alpha  occ. eigenvalues --   -0.52252  -0.51575  -0.50862  -0.50729  -0.50291
 Alpha  occ. eigenvalues --   -0.49944  -0.49504  -0.49006  -0.48890  -0.48815
 Alpha  occ. eigenvalues --   -0.48560  -0.48049  -0.47910  -0.47834  -0.47618
 Alpha  occ. eigenvalues --   -0.47046  -0.46954  -0.46888  -0.46349  -0.46251
 Alpha  occ. eigenvalues --   -0.46050  -0.45827  -0.45606  -0.45470  -0.45048
 Alpha  occ. eigenvalues --   -0.44879  -0.44637  -0.44622  -0.44293  -0.44236
 Alpha  occ. eigenvalues --   -0.43983  -0.43685  -0.43655  -0.43520  -0.43411
 Alpha  occ. eigenvalues --   -0.42929  -0.42856  -0.42692  -0.42352  -0.42306
 Alpha  occ. eigenvalues --   -0.42075  -0.41892  -0.41557  -0.41383  -0.41284
 Alpha  occ. eigenvalues --   -0.41273  -0.40859  -0.40596  -0.40436  -0.40295
 Alpha  occ. eigenvalues --   -0.40149  -0.40109  -0.39975  -0.39807  -0.39565
 Alpha  occ. eigenvalues --   -0.39503  -0.39365  -0.39047  -0.38880  -0.38799
 Alpha  occ. eigenvalues --   -0.38379  -0.38249  -0.38073  -0.37916  -0.37690
 Alpha  occ. eigenvalues --   -0.37576  -0.37394  -0.37303  -0.37061  -0.36877
 Alpha  occ. eigenvalues --   -0.36727  -0.36551  -0.36516  -0.36339  -0.36259
 Alpha  occ. eigenvalues --   -0.36100  -0.35985  -0.35578  -0.35214  -0.35119
 Alpha  occ. eigenvalues --   -0.34811  -0.34466  -0.34281  -0.34228  -0.34131
 Alpha  occ. eigenvalues --   -0.33690  -0.33126  -0.32772  -0.32749  -0.32413
 Alpha  occ. eigenvalues --   -0.32197  -0.32113  -0.31990  -0.31344  -0.31229
 Alpha  occ. eigenvalues --   -0.30559  -0.30458  -0.30230  -0.29609  -0.29541
 Alpha  occ. eigenvalues --   -0.29151  -0.28738  -0.28194  -0.27130  -0.26096
 Alpha  occ. eigenvalues --   -0.25629  -0.25398  -0.25352  -0.24998  -0.21576
 Alpha  occ. eigenvalues --   -0.19484
 Alpha virt. eigenvalues --   -0.12260  -0.05407  -0.04126  -0.02492  -0.01205
 Alpha virt. eigenvalues --   -0.00837  -0.00400   0.00468   0.00918   0.02439
 Alpha virt. eigenvalues --    0.03447   0.03999   0.04718   0.04987   0.05780

 Mulliken charges:
               1
     1  Mg   0.956312
     2  C   -0.041433
     3  C   -0.086374
     4  C   -0.039482
     5  C   -0.076486
     6  N   -0.329329
     7  C    0.002974
     8  C   -0.088853
     9  C   -0.145827
    10  C    0.065616
    11  C    0.027838
    12  C    0.006184
    13  C   -0.057793
    14  C    0.257172
    15  O   -0.304288
    16  O   -0.372918
    17  N   -0.509734
    18  C    0.194081
    19  C   -0.194766
    20  C   -0.057383
    21  C    0.200997
    22  C    0.073228
    23  C    0.029256
    24  O   -0.276556
    25  C   -0.032026
    26  N   -0.458460
    27  C    0.041133
    28  C   -0.119825
    29  C   -0.026104
    30  C    0.031176
    31  C    0.000219
    32  C   -0.038767
    33  C   -0.043781
    34  N   -0.480980
    35  C    0.157091
    36  C   -0.180538
    37  C   -0.106681
    38  C    0.157187
    39  C    0.052328
    40  C    0.185772
    41  O   -0.213605
    42  C   -0.106794
    43  C    0.309709
    44  O   -0.259009
    45  O   -0.366258
    46  C    0.125825
    47  C    0.248276
    48  C   -0.140961
    49  C   -0.163778
    50  C    0.010826
    51  C   -0.038186
    52  C    0.005042
    53  C   -0.010490
    54  C   -0.187530
    55  C   -0.000218
    56  C   -0.078526
    57  C   -0.038280
    58  C    0.017342
    59  C   -0.197103
    60  C   -0.020079
    61  C   -0.028209
    62  C   -0.038352
    63  C   -0.049721
    64  C   -0.223396
    65  C   -0.004999
    66  C   -0.016737
    67  H    0.031344
    68  H   -0.011782
    69  H    0.000529
    70  H    0.061672
    71  H    0.056155
    72  H    0.037033
    73  H    0.048306
    74  H    0.058424
    75  H    0.077391
    76  H    0.058201
    77  H    0.072760
    78  H    0.065248
    79  H    0.046193
    80  H    0.072400
    81  H    0.057486
    82  H    0.075228
    83  H    0.071404
    84  H    0.052813
    85  H    0.046628
    86  H    0.042983
    87  H    0.054839
    88  H    0.036497
    89  H    0.049810
    90  H    0.063701
    91  H    0.034935
    92  H    0.040239
    93  H    0.044086
    94  H    0.047215
    95  H    0.063691
    96  H    0.041431
    97  H    0.070002
    98  H    0.085748
    99  H    0.054986
   100  H    0.059244
   101  H    0.065609
   102  H    0.069008
   103  H    0.028143
   104  H    0.016882
   105  H    0.034780
   106  H    0.054757
   107  H    0.054971
   108  H    0.030458
   109  H    0.034068
   110  H    0.038063
   111  H    0.029334
   112  H    0.013030
   113  H    0.023894
   114  H    0.035066
   115  H    0.039244
   116  H    0.028647
   117  H    0.029028
   118  H    0.034557
   119  H    0.029846
   120  H    0.032551
   121  H    0.038554
   122  H    0.031864
   123  H    0.023596
   124  H    0.027657
   125  H    0.025811
   126  H    0.037419
   127  H    0.029444
   128  H    0.023948
   129  H    0.009278
   130  H    0.038325
   131  H    0.035373
   132  H    0.025539
   133  H    0.028185
   134  H    0.037841
   135  H    0.025822
   136  H    0.020888
   137  H    0.049140
   138  H    0.038726
   139  H    0.022652
   140  H    0.036195
 Sum of Mulliken charges =  -0.00000

 Dipole moment (field-independent basis, Debye):
    X=             -0.0598    Y=              5.7916    Z=             -1.7112  Tot=              6.0394
 Quadrupole moment (field-independent basis, Debye-Ang):
   XX=           -380.0170   YY=           -433.6454   ZZ=           -401.5508
   XY=            -41.3425   XZ=            -14.4354   YZ=            -42.3999

 Normal termination of Gaussian 16 at Sat Apr 30 08:09:42 2022.
