 Gaussian 16, Revision A.03,
 Gaussian 16:  ES64L-G16RevA.03 25-Dec-2016

 --------------------------------
 #p wB97XD/Def2SVP td=(nstates=5)
 --------------------------------

 ----------------------------------------------------
 step_651_chromophore_26 TDDFT with wB97XD functional
 ----------------------------------------------------
 Symbolic Z-matrix:
 Charge =  0 Multiplicity = 1

                         Standard orientation:
 ---------------------------------------------------------------------
 Center     Atomic      Atomic             Coordinates (Angstroms)
 Number     Number       Type             X           Y           Z
 ---------------------------------------------------------------------
      1         12           0       -4.101018    1.461566    0.544024
      2          6           0       -4.868512   -2.122585    0.075714
      3          6           0       -2.053762    0.268667    3.315430
      4          6           0       -3.051319    4.424114    0.870096
      5          6           0       -5.325194    2.072205   -2.691966
      6          7           0       -3.435863   -0.663031    1.412659
      7          6           0       -3.928371   -1.925346    1.114157
      8          6           0       -3.455483   -2.998209    2.071671
      9          6           0       -2.605881   -2.169887    3.136474
     10          6           0       -2.723179   -0.733298    2.572748
     11          6           0       -2.906534   -2.362816    4.662070
     12          6           0       -2.729846   -4.226542    1.423655
     13          6           0       -1.686665   -3.795315    0.287053
     14          6           0       -0.451207   -4.623172    0.095975
     15          8           0       -0.444610   -5.859948   -0.164691
     16          8           0        0.677099   -3.868183    0.361634
     17          7           0       -2.878095    2.361675    2.028046
     18          6           0       -2.065939    1.670059    2.978233
     19          6           0       -1.338572    2.632562    3.637629
     20          6           0       -1.622279    3.915865    3.043496
     21          6           0       -2.555690    3.646698    1.980372
     22          6           0       -0.430286    2.256166    4.785778
     23          6           0       -1.133466    5.282244    3.447915
     24          8           0       -0.407311    5.398678    4.480117
     25          6           0       -1.530709    6.585021    2.627262
     26          7           0       -4.266695    3.007904   -0.800442
     27          6           0       -3.689499    4.184972   -0.364849
     28          6           0       -3.813081    5.240621   -1.562025
     29          6           0       -4.383005    4.451312   -2.753478
     30          6           0       -4.680975    3.127809   -2.126083
     31          6           0       -4.691421    6.416703   -1.066486
     32          6           0       -3.430577    4.176998   -3.934204
     33          6           0       -3.648984    5.054999   -5.129612
     34          7           0       -4.932370    0.302419   -1.013291
     35          6           0       -5.515774    0.778535   -2.200345
     36          6           0       -6.148135   -0.369347   -2.875818
     37          6           0       -5.941015   -1.504379   -2.001318
     38          6           0       -5.169785   -1.045736   -0.906345
     39          6           0       -6.965379   -0.308955   -4.254425
     40          6           0       -6.273594   -2.940584   -1.804394
     41          8           0       -6.990099   -3.665191   -2.496694
     42          6           0       -5.581953   -3.336088   -0.493919
     43          6           0       -6.517888   -3.994840    0.459021
     44          8           0       -6.244473   -5.015773    1.101012
     45          8           0       -7.673081   -3.219354    0.548042
     46          6           0       -8.570972   -3.725227    1.578038
     47          6           0        2.019751   -4.359887    0.080559
     48          6           0        2.874963   -3.335128   -0.643427
     49          6           0        2.901744   -2.997514   -1.936456
     50          6           0        1.860417   -3.425990   -2.980598
     51          6           0        3.925093   -2.075945   -2.512810
     52          6           0        3.660355   -0.549187   -2.353634
     53          6           0        5.011249    0.101844   -2.650046
     54          6           0        5.808523    0.803703   -1.545620
     55          6           0        6.157672    2.244864   -1.913560
     56          6           0        7.168345    0.001289   -1.167323
     57          6           0        7.281431   -0.064196    0.379248
     58          6           0        8.511873   -0.838164    0.709948
     59          6           0        9.554648   -0.164440    1.656352
     60          6           0        9.350984   -0.552729    3.141531
     61          6           0       10.992326   -0.509360    1.211819
     62          6           0       11.766791    0.579733    0.386591
     63          6           0       12.559090   -0.129045   -0.819164
     64          6           0       14.081694    0.085299   -0.792360
     65          6           0       14.372081    1.558685   -0.934920
     66          6           0       14.786448   -0.926565   -1.782362
     67          1           0       -1.363613   -0.132684    4.060314
     68          1           0       -2.756687    5.472104    0.779972
     69          1           0       -5.833513    2.303486   -3.629531
     70          1           0       -4.396639   -3.392281    2.453453
     71          1           0       -1.581720   -2.471950    2.916102
     72          1           0       -3.836088   -2.927895    4.733987
     73          1           0       -3.242748   -1.452332    5.157696
     74          1           0       -2.063988   -2.892601    5.106060
     75          1           0       -3.503793   -4.850419    0.976081
     76          1           0       -2.097366   -4.632364    2.213332
     77          1           0       -1.460272   -2.735165    0.398952
     78          1           0       -2.309749   -3.980555   -0.588242
     79          1           0       -0.912998    1.481006    5.381562
     80          1           0       -0.255275    3.166583    5.359570
     81          1           0        0.473371    1.846726    4.335693
     82          1           0       -2.607622    6.693567    2.493523
     83          1           0       -0.902976    6.596925    1.735987
     84          1           0       -1.178925    7.384084    3.280183
     85          1           0       -2.808884    5.592011   -1.799393
     86          1           0       -5.351740    4.864602   -3.034672
     87          1           0       -5.477081    6.210318   -0.340127
     88          1           0       -5.240362    6.860728   -1.897231
     89          1           0       -4.025472    7.193805   -0.690462
     90          1           0       -3.413428    3.113761   -4.171417
     91          1           0       -2.448440    4.533981   -3.623738
     92          1           0       -4.674713    5.420639   -5.178575
     93          1           0       -3.498503    4.400543   -5.987757
     94          1           0       -2.870076    5.815209   -5.068760
     95          1           0       -6.279081   -0.531627   -5.072018
     96          1           0       -7.370573    0.697611   -4.355335
     97          1           0       -7.793804   -1.016797   -4.242348
     98          1           0       -4.787383   -4.014299   -0.804307
     99          1           0       -9.117555   -4.553539    1.128221
    100          1           0       -9.325197   -2.965635    1.783734
    101          1           0       -8.095553   -4.121402    2.475940
    102          1           0        2.103653   -5.353584   -0.358776
    103          1           0        2.425869   -4.434213    1.088985
    104          1           0        3.722069   -3.094892   -0.001187
    105          1           0        1.110575   -4.119500   -2.601276
    106          1           0        2.393570   -3.906852   -3.801097
    107          1           0        1.190644   -2.615796   -3.267075
    108          1           0        4.173066   -2.369381   -3.532580
    109          1           0        4.882223   -2.235600   -2.017096
    110          1           0        3.308796   -0.296937   -1.352614
    111          1           0        2.944161   -0.181849   -3.088830
    112          1           0        4.740975    0.750105   -3.483659
    113          1           0        5.673446   -0.611405   -3.141813
    114          1           0        5.282715    0.819018   -0.590726
    115          1           0        6.137186    2.343250   -2.998375
    116          1           0        7.076383    2.572997   -1.426918
    117          1           0        5.432693    2.951590   -1.509524
    118          1           0        8.001450    0.533475   -1.626787
    119          1           0        7.175067   -0.996259   -1.605945
    120          1           0        6.505799   -0.691140    0.817339
    121          1           0        7.204015    0.981468    0.676603
    122          1           0        8.953181   -1.064204   -0.260736
    123          1           0        8.224270   -1.787993    1.159649
    124          1           0        9.513591    0.924254    1.692930
    125          1           0        9.884474   -1.461337    3.420612
    126          1           0        8.294782   -0.652394    3.389762
    127          1           0        9.888550    0.142446    3.786620
    128          1           0       11.002311   -1.500014    0.756833
    129          1           0       11.626943   -0.672227    2.083554
    130          1           0       12.541340    1.045013    0.996371
    131          1           0       10.978903    1.271867    0.090751
    132          1           0       12.174835    0.273331   -1.756469
    133          1           0       12.340995   -1.196765   -0.847908
    134          1           0       14.310048   -0.279139    0.209042
    135          1           0       15.086371    1.806284   -1.719492
    136          1           0       14.995980    1.824697   -0.082081
    137          1           0       13.617042    2.344041   -0.910767
    138          1           0       15.363497   -1.730469   -1.325167
    139          1           0       15.509072   -0.376426   -2.384237
    140          1           0       14.117796   -1.397900   -2.504530
 ---------------------------------------------------------------------

 SCF Done:  E(RwB97XD) =  -3007.83174646     A.U. after   20 cycles

 Excitation energies and oscillator strengths:

 Excited State   1:      Singlet-A      1.5544 eV  797.65 nm  f=0.3683  <S**2>=0.000
     245 -> 248        0.17172
     246 -> 247        0.68750
     245 <- 248        0.11851
 This state for optimization and/or second-order correction.
 Total Energy, E(TD-HF/TD-DFT) =  -3007.77462428
 Copying the excited state density for this state as the 1-particle RhoCI density.

 Excited State   2:      Singlet-A      2.1032 eV  589.51 nm  f=0.1570  <S**2>=0.000
     245 -> 247        0.65296
     246 -> 248       -0.24813

 Excited State   3:      Singlet-A      3.0094 eV  411.99 nm  f=0.0065  <S**2>=0.000
     244 -> 247        0.68690

 Excited State   4:      Singlet-A      3.1597 eV  392.39 nm  f=0.0172  <S**2>=0.000
     243 -> 247        0.68021

 Excited State   5:      Singlet-A      3.3484 eV  370.28 nm  f=0.0006  <S**2>=0.000
     241 -> 247        0.55939
     241 -> 248        0.13082
     241 -> 249        0.27714
     241 -> 250        0.26490

 The electronic state is 1-A.
 Alpha  occ. eigenvalues --  -46.96206 -19.31585 -19.29861 -19.26432 -19.24423
 Alpha  occ. eigenvalues --  -19.23981 -19.23632 -14.47598 -14.46954 -14.44454
 Alpha  occ. eigenvalues --  -14.44224 -10.44662 -10.43219 -10.39562 -10.39466
 Alpha  occ. eigenvalues --  -10.36472 -10.36042 -10.35613 -10.35603 -10.35566
 Alpha  occ. eigenvalues --  -10.35178 -10.35015 -10.34392 -10.33918 -10.33864
 Alpha  occ. eigenvalues --  -10.33732 -10.33356 -10.33317 -10.33244 -10.32499
 Alpha  occ. eigenvalues --  -10.32376 -10.32264 -10.32252 -10.31857 -10.31808
 Alpha  occ. eigenvalues --  -10.31738 -10.31207 -10.31121 -10.31095 -10.30955
 Alpha  occ. eigenvalues --  -10.30889 -10.30756 -10.30679 -10.30663 -10.30602
 Alpha  occ. eigenvalues --  -10.29823 -10.29801 -10.29748 -10.29603 -10.29484
 Alpha  occ. eigenvalues --  -10.29472 -10.29430 -10.29356 -10.29343 -10.29281
 Alpha  occ. eigenvalues --  -10.28987 -10.28924 -10.28508 -10.28478 -10.28370
 Alpha  occ. eigenvalues --  -10.28343 -10.28219 -10.28209 -10.28034 -10.28032
 Alpha  occ. eigenvalues --  -10.27998  -3.22071  -1.95652  -1.95231  -1.94986
 Alpha  occ. eigenvalues --   -1.18853  -1.16692  -1.11735  -1.10939  -1.09479
 Alpha  occ. eigenvalues --   -1.07833  -1.06058  -1.05378  -1.05198  -1.03639
 Alpha  occ. eigenvalues --   -0.94921  -0.92507  -0.92382  -0.91402  -0.91114
 Alpha  occ. eigenvalues --   -0.90996  -0.90149  -0.90019  -0.89178  -0.88420
 Alpha  occ. eigenvalues --   -0.87093  -0.86938  -0.86503  -0.86174  -0.85566
 Alpha  occ. eigenvalues --   -0.84538  -0.83927  -0.83034  -0.82701  -0.82024
 Alpha  occ. eigenvalues --   -0.81709  -0.80567  -0.79872  -0.79384  -0.78752
 Alpha  occ. eigenvalues --   -0.77760  -0.77427  -0.77336  -0.76078  -0.75637
 Alpha  occ. eigenvalues --   -0.75470  -0.74935  -0.73756  -0.72710  -0.71108
 Alpha  occ. eigenvalues --   -0.70820  -0.70493  -0.69282  -0.69006  -0.68345
 Alpha  occ. eigenvalues --   -0.67387  -0.67052  -0.66969  -0.66748  -0.65848
 Alpha  occ. eigenvalues --   -0.65519  -0.65237  -0.64757  -0.64422  -0.62550
 Alpha  occ. eigenvalues --   -0.61381  -0.61244  -0.61131  -0.60517  -0.60050
 Alpha  occ. eigenvalues --   -0.59654  -0.59091  -0.58277  -0.58233  -0.57657
 Alpha  occ. eigenvalues --   -0.57400  -0.56816  -0.56422  -0.56270  -0.56218
 Alpha  occ. eigenvalues --   -0.55934  -0.55397  -0.55286  -0.55265  -0.54941
 Alpha  occ. eigenvalues --   -0.54445  -0.54365  -0.54223  -0.53752  -0.53673
 Alpha  occ. eigenvalues --   -0.53506  -0.53162  -0.52967  -0.52759  -0.52367
 Alpha  occ. eigenvalues --   -0.52212  -0.52149  -0.51990  -0.51635  -0.51503
 Alpha  occ. eigenvalues --   -0.51261  -0.50990  -0.50965  -0.50791  -0.50715
 Alpha  occ. eigenvalues --   -0.50205  -0.50159  -0.49940  -0.49691  -0.49544
 Alpha  occ. eigenvalues --   -0.49355  -0.49168  -0.48767  -0.48667  -0.48524
 Alpha  occ. eigenvalues --   -0.48511  -0.48046  -0.47831  -0.47656  -0.47492
 Alpha  occ. eigenvalues --   -0.47358  -0.47333  -0.47213  -0.47011  -0.46783
 Alpha  occ. eigenvalues --   -0.46706  -0.46542  -0.46219  -0.46054  -0.46016
 Alpha  occ. eigenvalues --   -0.45499  -0.45410  -0.45230  -0.45053  -0.44804
 Alpha  occ. eigenvalues --   -0.44653  -0.44535  -0.44367  -0.44086  -0.44000
 Alpha  occ. eigenvalues --   -0.43873  -0.43706  -0.43604  -0.43462  -0.43392
 Alpha  occ. eigenvalues --   -0.43202  -0.43101  -0.42530  -0.42182  -0.42155
 Alpha  occ. eigenvalues --   -0.41748  -0.41561  -0.41314  -0.41243  -0.41107
 Alpha  occ. eigenvalues --   -0.40768  -0.40137  -0.39855  -0.39799  -0.39415
 Alpha  occ. eigenvalues --   -0.39272  -0.39138  -0.38929  -0.38341  -0.38228
 Alpha  occ. eigenvalues --   -0.37678  -0.37475  -0.37241  -0.36430  -0.36411
 Alpha  occ. eigenvalues --   -0.35796  -0.35613  -0.35368  -0.33682  -0.33176
 Alpha  occ. eigenvalues --   -0.32603  -0.32371  -0.31834  -0.31615  -0.26532
 Alpha  occ. eigenvalues --   -0.23647
 Alpha virt. eigenvalues --   -0.08316   0.00061   0.02169   0.04022   0.04850
 Alpha virt. eigenvalues --    0.05901   0.06333   0.07192   0.07634   0.08964
 Alpha virt. eigenvalues --    0.09968   0.10795   0.11391   0.11636   0.12441

 Mulliken charges:
               1
     1  Mg   0.947975
     2  C   -0.054745
     3  C   -0.105654
     4  C   -0.044710
     5  C   -0.093590
     6  N   -0.293823
     7  C   -0.022749
     8  C   -0.066589
     9  C   -0.120120
    10  C    0.052336
    11  C    0.038930
    12  C    0.020339
    13  C   -0.033625
    14  C    0.243275
    15  O   -0.299934
    16  O   -0.370902
    17  N   -0.480363
    18  C    0.186227
    19  C   -0.185512
    20  C   -0.051557
    21  C    0.193658
    22  C    0.088502
    23  C    0.020736
    24  O   -0.272143
    25  C   -0.015340
    26  N   -0.430551
    27  C    0.028336
    28  C   -0.092653
    29  C   -0.004315
    30  C    0.023992
    31  C    0.009040
    32  C   -0.022831
    33  C   -0.029085
    34  N   -0.446598
    35  C    0.150794
    36  C   -0.184920
    37  C   -0.100503
    38  C    0.141067
    39  C    0.066988
    40  C    0.166199
    41  O   -0.203379
    42  C   -0.059354
    43  C    0.288671
    44  O   -0.253095
    45  O   -0.367617
    46  C    0.140377
    47  C    0.258613
    48  C   -0.150248
    49  C   -0.150753
    50  C    0.024896
    51  C   -0.011625
    52  C    0.015231
    53  C    0.007528
    54  C   -0.159766
    55  C    0.012102
    56  C   -0.059934
    57  C   -0.022449
    58  C    0.035273
    59  C   -0.167898
    60  C   -0.007708
    61  C   -0.014829
    62  C   -0.021413
    63  C   -0.033362
    64  C   -0.189448
    65  C    0.002036
    66  C   -0.005136
    67  H    0.026763
    68  H   -0.027883
    69  H   -0.005549
    70  H    0.048458
    71  H    0.043648
    72  H    0.031363
    73  H    0.041892
    74  H    0.054523
    75  H    0.068249
    76  H    0.049351
    77  H    0.063637
    78  H    0.055563
    79  H    0.040122
    80  H    0.068508
    81  H    0.052711
    82  H    0.070019
    83  H    0.067032
    84  H    0.051015
    85  H    0.037184
    86  H    0.031847
    87  H    0.049596
    88  H    0.030571
    89  H    0.044165
    90  H    0.055377
    91  H    0.025321
    92  H    0.033707
    93  H    0.038492
    94  H    0.041554
    95  H    0.058396
    96  H    0.034632
    97  H    0.066178
    98  H    0.075558
    99  H    0.050451
   100  H    0.056303
   101  H    0.061548
   102  H    0.065884
   103  H    0.024841
   104  H    0.013719
   105  H    0.027422
   106  H    0.049382
   107  H    0.049590
   108  H    0.022737
   109  H    0.019166
   110  H    0.029838
   111  H    0.022620
   112  H    0.004852
   113  H    0.011849
   114  H    0.021083
   115  H    0.032890
   116  H    0.022177
   117  H    0.023397
   118  H    0.024130
   119  H    0.018859
   120  H    0.024007
   121  H    0.028375
   122  H    0.018457
   123  H    0.016214
   124  H    0.015133
   125  H    0.018670
   126  H    0.031713
   127  H    0.023569
   128  H    0.013645
   129  H    0.000409
   130  H    0.028780
   131  H    0.025987
   132  H    0.015900
   133  H    0.017719
   134  H    0.025045
   135  H    0.020274
   136  H    0.014792
   137  H    0.044159
   138  H    0.033945
   139  H    0.015854
   140  H    0.030320
 Sum of Mulliken charges =  -0.00000

 Dipole moment (field-independent basis, Debye):
    X=              0.0030    Y=              5.8998    Z=             -1.4726  Tot=              6.0808
 Quadrupole moment (field-independent basis, Debye-Ang):
   XX=           -380.2681   YY=           -433.0089   ZZ=           -401.0911
   XY=            -41.2280   XZ=            -15.3658   YZ=            -41.5451

 Normal termination of Gaussian 16 at Sat Apr 30 08:38:03 2022.
