 Gaussian 16, Revision A.03,
 Gaussian 16:  ES64L-G16RevA.03 25-Dec-2016

 --------------------
 #p ZINDO=(nstates=5)
 --------------------

 -----------------------------
 step_651_chromophore_26 ZINDO
 -----------------------------
 Symbolic Z-matrix:
 Charge =  0 Multiplicity = 1

                         Standard orientation:
 ---------------------------------------------------------------------
 Center     Atomic      Atomic             Coordinates (Angstroms)
 Number     Number       Type             X           Y           Z
 ---------------------------------------------------------------------
      1         12           0       -4.101018    1.461566    0.544024
      2          6           0       -4.868512   -2.122585    0.075714
      3          6           0       -2.053762    0.268667    3.315430
      4          6           0       -3.051319    4.424114    0.870096
      5          6           0       -5.325194    2.072205   -2.691966
      6          7           0       -3.435863   -0.663031    1.412659
      7          6           0       -3.928371   -1.925346    1.114157
      8          6           0       -3.455483   -2.998209    2.071671
      9          6           0       -2.605881   -2.169887    3.136474
     10          6           0       -2.723179   -0.733298    2.572748
     11          6           0       -2.906534   -2.362816    4.662070
     12          6           0       -2.729846   -4.226542    1.423655
     13          6           0       -1.686665   -3.795315    0.287053
     14          6           0       -0.451207   -4.623172    0.095975
     15          8           0       -0.444610   -5.859948   -0.164691
     16          8           0        0.677099   -3.868183    0.361634
     17          7           0       -2.878095    2.361675    2.028046
     18          6           0       -2.065939    1.670059    2.978233
     19          6           0       -1.338572    2.632562    3.637629
     20          6           0       -1.622279    3.915865    3.043496
     21          6           0       -2.555690    3.646698    1.980372
     22          6           0       -0.430286    2.256166    4.785778
     23          6           0       -1.133466    5.282244    3.447915
     24          8           0       -0.407311    5.398678    4.480117
     25          6           0       -1.530709    6.585021    2.627262
     26          7           0       -4.266695    3.007904   -0.800442
     27          6           0       -3.689499    4.184972   -0.364849
     28          6           0       -3.813081    5.240621   -1.562025
     29          6           0       -4.383005    4.451312   -2.753478
     30          6           0       -4.680975    3.127809   -2.126083
     31          6           0       -4.691421    6.416703   -1.066486
     32          6           0       -3.430577    4.176998   -3.934204
     33          6           0       -3.648984    5.054999   -5.129612
     34          7           0       -4.932370    0.302419   -1.013291
     35          6           0       -5.515774    0.778535   -2.200345
     36          6           0       -6.148135   -0.369347   -2.875818
     37          6           0       -5.941015   -1.504379   -2.001318
     38          6           0       -5.169785   -1.045736   -0.906345
     39          6           0       -6.965379   -0.308955   -4.254425
     40          6           0       -6.273594   -2.940584   -1.804394
     41          8           0       -6.990099   -3.665191   -2.496694
     42          6           0       -5.581953   -3.336088   -0.493919
     43          6           0       -6.517888   -3.994840    0.459021
     44          8           0       -6.244473   -5.015773    1.101012
     45          8           0       -7.673081   -3.219354    0.548042
     46          6           0       -8.570972   -3.725227    1.578038
     47          6           0        2.019751   -4.359887    0.080559
     48          6           0        2.874963   -3.335128   -0.643427
     49          6           0        2.901744   -2.997514   -1.936456
     50          6           0        1.860417   -3.425990   -2.980598
     51          6           0        3.925093   -2.075945   -2.512810
     52          6           0        3.660355   -0.549187   -2.353634
     53          6           0        5.011249    0.101844   -2.650046
     54          6           0        5.808523    0.803703   -1.545620
     55          6           0        6.157672    2.244864   -1.913560
     56          6           0        7.168345    0.001289   -1.167323
     57          6           0        7.281431   -0.064196    0.379248
     58          6           0        8.511873   -0.838164    0.709948
     59          6           0        9.554648   -0.164440    1.656352
     60          6           0        9.350984   -0.552729    3.141531
     61          6           0       10.992326   -0.509360    1.211819
     62          6           0       11.766791    0.579733    0.386591
     63          6           0       12.559090   -0.129045   -0.819164
     64          6           0       14.081694    0.085299   -0.792360
     65          6           0       14.372081    1.558685   -0.934920
     66          6           0       14.786448   -0.926565   -1.782362
     67          1           0       -1.363613   -0.132684    4.060314
     68          1           0       -2.756687    5.472104    0.779972
     69          1           0       -5.833513    2.303486   -3.629531
     70          1           0       -4.396639   -3.392281    2.453453
     71          1           0       -1.581720   -2.471950    2.916102
     72          1           0       -3.836088   -2.927895    4.733987
     73          1           0       -3.242748   -1.452332    5.157696
     74          1           0       -2.063988   -2.892601    5.106060
     75          1           0       -3.503793   -4.850419    0.976081
     76          1           0       -2.097366   -4.632364    2.213332
     77          1           0       -1.460272   -2.735165    0.398952
     78          1           0       -2.309749   -3.980555   -0.588242
     79          1           0       -0.912998    1.481006    5.381562
     80          1           0       -0.255275    3.166583    5.359570
     81          1           0        0.473371    1.846726    4.335693
     82          1           0       -2.607622    6.693567    2.493523
     83          1           0       -0.902976    6.596925    1.735987
     84          1           0       -1.178925    7.384084    3.280183
     85          1           0       -2.808884    5.592011   -1.799393
     86          1           0       -5.351740    4.864602   -3.034672
     87          1           0       -5.477081    6.210318   -0.340127
     88          1           0       -5.240362    6.860728   -1.897231
     89          1           0       -4.025472    7.193805   -0.690462
     90          1           0       -3.413428    3.113761   -4.171417
     91          1           0       -2.448440    4.533981   -3.623738
     92          1           0       -4.674713    5.420639   -5.178575
     93          1           0       -3.498503    4.400543   -5.987757
     94          1           0       -2.870076    5.815209   -5.068760
     95          1           0       -6.279081   -0.531627   -5.072018
     96          1           0       -7.370573    0.697611   -4.355335
     97          1           0       -7.793804   -1.016797   -4.242348
     98          1           0       -4.787383   -4.014299   -0.804307
     99          1           0       -9.117555   -4.553539    1.128221
    100          1           0       -9.325197   -2.965635    1.783734
    101          1           0       -8.095553   -4.121402    2.475940
    102          1           0        2.103653   -5.353584   -0.358776
    103          1           0        2.425869   -4.434213    1.088985
    104          1           0        3.722069   -3.094892   -0.001187
    105          1           0        1.110575   -4.119500   -2.601276
    106          1           0        2.393570   -3.906852   -3.801097
    107          1           0        1.190644   -2.615796   -3.267075
    108          1           0        4.173066   -2.369381   -3.532580
    109          1           0        4.882223   -2.235600   -2.017096
    110          1           0        3.308796   -0.296937   -1.352614
    111          1           0        2.944161   -0.181849   -3.088830
    112          1           0        4.740975    0.750105   -3.483659
    113          1           0        5.673446   -0.611405   -3.141813
    114          1           0        5.282715    0.819018   -0.590726
    115          1           0        6.137186    2.343250   -2.998375
    116          1           0        7.076383    2.572997   -1.426918
    117          1           0        5.432693    2.951590   -1.509524
    118          1           0        8.001450    0.533475   -1.626787
    119          1           0        7.175067   -0.996259   -1.605945
    120          1           0        6.505799   -0.691140    0.817339
    121          1           0        7.204015    0.981468    0.676603
    122          1           0        8.953181   -1.064204   -0.260736
    123          1           0        8.224270   -1.787993    1.159649
    124          1           0        9.513591    0.924254    1.692930
    125          1           0        9.884474   -1.461337    3.420612
    126          1           0        8.294782   -0.652394    3.389762
    127          1           0        9.888550    0.142446    3.786620
    128          1           0       11.002311   -1.500014    0.756833
    129          1           0       11.626943   -0.672227    2.083554
    130          1           0       12.541340    1.045013    0.996371
    131          1           0       10.978903    1.271867    0.090751
    132          1           0       12.174835    0.273331   -1.756469
    133          1           0       12.340995   -1.196765   -0.847908
    134          1           0       14.310048   -0.279139    0.209042
    135          1           0       15.086371    1.806284   -1.719492
    136          1           0       14.995980    1.824697   -0.082081
    137          1           0       13.617042    2.344041   -0.910767
    138          1           0       15.363497   -1.730469   -1.325167
    139          1           0       15.509072   -0.376426   -2.384237
    140          1           0       14.117796   -1.397900   -2.504530
 ---------------------------------------------------------------------

 SCF Done:  E(RZINDO/S) =  -473.849549413     A.U. after   20 cycles

 Excitation energies and oscillator strengths:

 Excited State   1:      Singlet-A      1.1747 eV 1055.47 nm  f=0.6296  <S**2>=0.000
     175 ->178         0.18375
     176 ->177         0.66431
 This state for optimization and/or second-order correction.
 Total Energy, E(CIS/TDA) =  -473.806380580
 Copying the excited state density for this state as the 1-particle RhoCI density.

 Excited State   2:      Singlet-A      1.8970 eV  653.58 nm  f=0.1165  <S**2>=0.000
     175 ->177         0.58386
     176 ->178        -0.37048

 Excited State   3:      Singlet-A      2.9300 eV  423.15 nm  f=0.0012  <S**2>=0.000
     168 ->177         0.16050
     168 ->179         0.18674
     168 ->181        -0.15706
     168 ->185         0.12507
     169 ->177         0.14093
     169 ->179         0.14498
     169 ->181        -0.14675
     169 ->185         0.10583
     170 ->177        -0.10897
     173 ->177         0.37156
     174 ->177         0.30005

 Excited State   4:      Singlet-A      2.9670 eV  417.87 nm  f=0.0037  <S**2>=0.000
     168 ->177        -0.16058
     168 ->179        -0.17497
     168 ->181         0.15136
     168 ->185        -0.12076
     169 ->177        -0.16417
     169 ->179        -0.14915
     169 ->181         0.13121
     173 ->177         0.37977
     174 ->177         0.30938

 Excited State   5:      Singlet-A      3.0277 eV  409.50 nm  f=0.0139  <S**2>=0.000
     168 ->177         0.24509
     168 ->179        -0.24906
     168 ->181        -0.18877
     168 ->183         0.11950
     168 ->185        -0.11597
     169 ->177        -0.19080
     169 ->179         0.23413
     169 ->181         0.14006
     169 ->185         0.11510
     170 ->177         0.14445
     170 ->179        -0.14831
     171 ->177         0.10315

 The electronic state is 1-A.
 Alpha  occ. eigenvalues --   -1.82207  -1.80461  -1.79426  -1.72455  -1.70651
 Alpha  occ. eigenvalues --   -1.69027  -1.65140  -1.60577  -1.57455  -1.55403
 Alpha  occ. eigenvalues --   -1.54635  -1.51015  -1.49899  -1.48523  -1.46661
 Alpha  occ. eigenvalues --   -1.45694  -1.42234  -1.41080  -1.40045  -1.39563
 Alpha  occ. eigenvalues --   -1.36166  -1.32541  -1.30908  -1.29195  -1.28682
 Alpha  occ. eigenvalues --   -1.28143  -1.26464  -1.22725  -1.21876  -1.17503
 Alpha  occ. eigenvalues --   -1.17385  -1.16530  -1.15329  -1.13938  -1.12350
 Alpha  occ. eigenvalues --   -1.11194  -1.10303  -1.09422  -1.05239  -1.04538
 Alpha  occ. eigenvalues --   -1.02868  -1.01654  -1.00328  -0.98598  -0.97318
 Alpha  occ. eigenvalues --   -0.95095  -0.94954  -0.94376  -0.92855  -0.92328
 Alpha  occ. eigenvalues --   -0.91577  -0.90653  -0.89384  -0.88647  -0.87116
 Alpha  occ. eigenvalues --   -0.85335  -0.84839  -0.84216  -0.82833  -0.81156
 Alpha  occ. eigenvalues --   -0.79817  -0.78276  -0.77509  -0.77294  -0.77202
 Alpha  occ. eigenvalues --   -0.76510  -0.75791  -0.74615  -0.74172  -0.73425
 Alpha  occ. eigenvalues --   -0.72829  -0.72256  -0.72002  -0.71370  -0.71165
 Alpha  occ. eigenvalues --   -0.70934  -0.70229  -0.69225  -0.68869  -0.67810
 Alpha  occ. eigenvalues --   -0.67382  -0.67030  -0.66861  -0.66161  -0.65697
 Alpha  occ. eigenvalues --   -0.65200  -0.64868  -0.64523  -0.63918  -0.63751
 Alpha  occ. eigenvalues --   -0.63388  -0.63152  -0.62461  -0.62368  -0.62200
 Alpha  occ. eigenvalues --   -0.61640  -0.61507  -0.60208  -0.60000  -0.59711
 Alpha  occ. eigenvalues --   -0.59024  -0.58866  -0.58422  -0.58306  -0.57808
 Alpha  occ. eigenvalues --   -0.57715  -0.57525  -0.57434  -0.56738  -0.56515
 Alpha  occ. eigenvalues --   -0.56246  -0.56070  -0.55636  -0.55040  -0.54517
 Alpha  occ. eigenvalues --   -0.54414  -0.54119  -0.53669  -0.53534  -0.53400
 Alpha  occ. eigenvalues --   -0.53071  -0.52647  -0.52576  -0.52380  -0.52335
 Alpha  occ. eigenvalues --   -0.51675  -0.51556  -0.51227  -0.51118  -0.50842
 Alpha  occ. eigenvalues --   -0.50769  -0.50484  -0.50035  -0.49836  -0.49233
 Alpha  occ. eigenvalues --   -0.48675  -0.48580  -0.48043  -0.47858  -0.47714
 Alpha  occ. eigenvalues --   -0.47431  -0.47254  -0.47055  -0.46728  -0.46627
 Alpha  occ. eigenvalues --   -0.46297  -0.46235  -0.45981  -0.45702  -0.45514
 Alpha  occ. eigenvalues --   -0.45454  -0.45124  -0.44608  -0.44368  -0.44211
 Alpha  occ. eigenvalues --   -0.43601  -0.43393  -0.42986  -0.42529  -0.42394
 Alpha  occ. eigenvalues --   -0.42274  -0.41374  -0.40914  -0.39569  -0.39065
 Alpha  occ. eigenvalues --   -0.38961  -0.37667  -0.35655  -0.35557  -0.35271
 Alpha  occ. eigenvalues --   -0.33205  -0.33139  -0.32921  -0.32483  -0.27272
 Alpha  occ. eigenvalues --   -0.22501
 Alpha virt. eigenvalues --   -0.09851  -0.02344  -0.00889   0.00788   0.00915
 Alpha virt. eigenvalues --    0.01167   0.01559   0.02406   0.03977   0.04595
 Alpha virt. eigenvalues --    0.05382   0.06202   0.06672   0.07407   0.07588

 Mulliken charges:
               1
     1  Mg   0.438728
     2  C   -0.052692
     3  C   -0.070698
     4  C   -0.096168
     5  C   -0.054395
     6  N   -0.289471
     7  C    0.130995
     8  C   -0.002665
     9  C   -0.008188
    10  C    0.134839
    11  C   -0.051514
    12  C   -0.019808
    13  C   -0.003701
    14  C    0.471140
    15  O   -0.530705
    16  O   -0.271338
    17  N   -0.330880
    18  C    0.087232
    19  C    0.048786
    20  C   -0.053010
    21  C    0.156652
    22  C   -0.042464
    23  C    0.309251
    24  O   -0.540418
    25  C   -0.033587
    26  N   -0.293136
    27  C    0.129548
    28  C    0.011566
    29  C    0.011662
    30  C    0.130347
    31  C   -0.049549
    32  C   -0.028146
    33  C   -0.058406
    34  N   -0.332298
    35  C    0.098492
    36  C    0.007658
    37  C   -0.059971
    38  C    0.101269
    39  C   -0.039650
    40  C    0.336381
    41  O   -0.514956
    42  C    0.070821
    43  C    0.491828
    44  O   -0.520079
    45  O   -0.254823
    46  C    0.073517
    47  C    0.106986
    48  C   -0.094529
    49  C    0.015367
    50  C   -0.047014
    51  C   -0.018850
    52  C   -0.024043
    53  C   -0.034834
    54  C   -0.018527
    55  C   -0.055908
    56  C   -0.044466
    57  C   -0.034711
    58  C   -0.029289
    59  C   -0.011502
    60  C   -0.059917
    61  C   -0.043066
    62  C   -0.046628
    63  C   -0.038653
    64  C    0.001839
    65  C   -0.054076
    66  C   -0.060207
    67  H    0.045776
    68  H    0.013390
    69  H    0.018398
    70  H    0.037334
    71  H    0.030464
    72  H    0.019525
    73  H    0.030519
    74  H    0.033593
    75  H    0.050017
    76  H    0.034734
    77  H    0.039246
    78  H    0.042320
    79  H    0.026903
    80  H    0.045931
    81  H    0.035570
    82  H    0.043672
    83  H    0.043730
    84  H    0.033060
    85  H    0.031800
    86  H    0.037252
    87  H    0.031390
    88  H    0.012148
    89  H    0.018351
    90  H    0.034210
    91  H    0.018905
    92  H    0.023539
    93  H    0.017308
    94  H    0.026879
    95  H    0.035736
    96  H    0.023113
    97  H    0.038854
    98  H    0.056201
    99  H    0.037912
   100  H    0.031166
   101  H    0.051666
   102  H    0.061217
   103  H    0.025352
   104  H    0.021233
   105  H    0.018849
   106  H    0.032756
   107  H    0.030175
   108  H    0.023357
   109  H    0.014271
   110  H    0.027812
   111  H    0.020465
   112  H    0.007024
   113  H    0.016856
   114  H    0.021239
   115  H    0.024477
   116  H    0.018933
   117  H    0.009433
   118  H    0.021942
   119  H    0.018700
   120  H    0.021393
   121  H    0.029126
   122  H    0.017493
   123  H    0.017842
   124  H    0.021328
   125  H    0.014951
   126  H    0.020498
   127  H    0.014240
   128  H    0.020082
   129  H    0.005949
   130  H    0.027050
   131  H    0.027281
   132  H    0.010871
   133  H    0.016740
   134  H    0.019769
   135  H    0.016025
   136  H    0.003588
   137  H    0.031008
   138  H    0.021899
   139  H    0.011903
   140  H    0.020297
 Sum of Mulliken charges =  -0.00000

 Dipole moment (field-independent basis, Debye):
    X=              0.9561    Y=              7.4575    Z=             -2.7771  Tot=              8.0150
 N-N= 4.446420565459D+03 E-N= 0.000000000000D+00  KE=-9.565960041182D+03
 Leave Link  601 at Sat Apr 30 08:50:58 2022, MaxMem=  6710886400 cpu:               0.8 elap:               0.0
 (Enter /sw/apps/gaussian-16.0/g16/l9999.exe)
 1\1\GINC-BP1-COMPUTE154\SP\RZINDO CIS\STO-3G\C55H74Mg1N4O6\OF15641\30-
 Apr-2022\0\\#p ZINDO=(nstates=5)\\step_651_chromophore_26 ZINDO\\0,1\M
 g,0,-9.555,18.356,42.544\C,0,-5.881,17.97,42.459\C,0,-8.824,21.842,41.
 764\C,0,-12.667,18.798,42.22\C,0,-9.855,14.864,42.301\N,0,-7.61,19.636
 ,42.006\C,0,-6.272,19.285,42.114\C,0,-5.327,20.456,41.949\C,0,-6.322,2
 1.692,41.794\C,0,-7.699,20.99,41.874\C,0,-6.112,22.953,42.7\C,0,-4.239
 ,20.309,40.831\C,0,-4.829,19.691,39.476\C,0,-4.239,20.132,38.17\O,0,-3

 Normal termination of Gaussian 16 at Sat Apr 30 08:50:58 2022.
