 Gaussian 16, Revision A.03,
 Gaussian 16:  ES64L-G16RevA.03 25-Dec-2016

 ------------------------------
 #p blyp/Def2SVP td=(nstates=5)
 ------------------------------

 --------------------------------------------------
 step_1001_chromophore_2 TDDFT with blyp functional
 --------------------------------------------------
 Symbolic Z-matrix:
 Charge =  0 Multiplicity = 1

                         Standard orientation:
 ---------------------------------------------------------------------
 Center     Atomic      Atomic             Coordinates (Angstroms)
 Number     Number       Type             X           Y           Z
 ---------------------------------------------------------------------
      1         12           0        4.500914    1.455178   -0.566692
      2          6           0        5.245556   -1.978230   -0.373590
      3          6           0        2.182539    0.575446   -3.046742
      4          6           0        3.239803    4.439620   -0.332451
      5          6           0        6.364737    1.851632    2.380938
      6          7           0        3.606523   -0.513156   -1.376580
      7          6           0        4.176641   -1.715598   -1.217757
      8          6           0        3.543835   -2.746159   -2.084432
      9          6           0        2.548080   -1.903345   -2.982176
     10          6           0        2.787889   -0.529967   -2.506141
     11          6           0        2.675078   -2.095533   -4.496746
     12          6           0        2.922423   -3.927330   -1.302402
     13          6           0        2.293895   -3.704289    0.079344
     14          6           0        0.986904   -4.517126    0.365365
     15          8           0        0.845036   -5.736241    0.049399
     16          8           0       -0.026674   -3.773278    0.913180
     17          7           0        2.967728    2.450616   -1.641844
     18          6           0        2.237874    1.926637   -2.667712
     19          6           0        1.413538    2.957588   -3.152097
     20          6           0        1.613763    4.107184   -2.316979
     21          6           0        2.580206    3.713081   -1.346396
     22          6           0        0.399168    2.751927   -4.212455
     23          6           0        0.912375    5.401337   -2.549899
     24          8           0        0.141615    5.520445   -3.457270
     25          6           0        1.058903    6.589204   -1.619276
     26          7           0        4.551604    2.903423    1.029201
     27          6           0        4.024064    4.095534    0.783227
     28          6           0        4.525971    5.140624    1.816273
     29          6           0        5.525436    4.296217    2.729914
     30          6           0        5.560271    2.935739    1.957950
     31          6           0        5.167272    6.579069    1.300041
     32          6           0        5.242649    4.024184    4.242912
     33          6           0        6.194391    4.444300    5.399398
     34          7           0        5.702271    0.283471    0.718378
     35          6           0        6.469297    0.590698    1.763789
     36          6           0        7.280930   -0.518288    2.134674
     37          6           0        6.871898   -1.571544    1.292328
     38          6           0        5.894148   -1.026612    0.445567
     39          6           0        8.272726   -0.609224    3.273541
     40          6           0        7.089103   -2.983696    0.971668
     41          8           0        7.839072   -3.867959    1.407655
     42          6           0        5.990614   -3.313481   -0.182597
     43          6           0        6.659325   -3.822437   -1.432035
     44          8           0        6.834115   -5.002401   -1.623963
     45          8           0        7.070804   -2.809610   -2.331610
     46          6           0        7.716178   -3.271210   -3.523171
     47          6           0       -1.288913   -4.474061    1.240253
     48          6           0       -2.387872   -3.424500    1.504104
     49          6           0       -3.120244   -3.064689    2.592654
     50          6           0       -3.172072   -3.861825    3.823224
     51          6           0       -3.855511   -1.720307    2.617257
     52          6           0       -4.845734   -1.380255    1.417132
     53          6           0       -6.266086   -1.836641    1.675323
     54          6           0       -7.279921   -0.704079    1.980538
     55          6           0       -7.534777   -0.498606    3.497526
     56          6           0       -8.531998   -0.931013    1.192117
     57          6           0       -8.461672   -0.493084   -0.317452
     58          6           0       -9.428968    0.685815   -0.619149
     59          6           0      -10.614400    0.175197   -1.563097
     60          6           0      -10.293912    0.253801   -3.036409
     61          6           0      -11.935688    0.740717   -1.099689
     62          6           0      -12.574755    0.082679    0.088295
     63          6           0      -14.073737   -0.144451   -0.065675
     64          6           0      -14.978675    1.025523    0.556758
     65          6           0      -16.272054    0.374699    1.133453
     66          6           0      -15.233352    2.051666   -0.524788
     67          1           0        1.450755    0.276945   -3.800254
     68          1           0        3.043044    5.508819   -0.440025
     69          1           0        7.071338    2.210331    3.133025
     70          1           0        4.179786   -3.194550   -2.847471
     71          1           0        1.502980   -2.088893   -2.736398
     72          1           0        3.242588   -3.009234   -4.672470
     73          1           0        3.117364   -1.211550   -4.955447
     74          1           0        1.668352   -2.269800   -4.876598
     75          1           0        3.735834   -4.650620   -1.270263
     76          1           0        2.138290   -4.301718   -1.960470
     77          1           0        1.885040   -2.700570    0.194485
     78          1           0        2.925444   -4.175727    0.832271
     79          1           0        0.563537    3.543264   -4.943967
     80          1           0       -0.615456    2.641284   -3.832098
     81          1           0        0.488835    1.882263   -4.862703
     82          1           0        2.013155    7.005687   -1.942552
     83          1           0        1.033902    6.207522   -0.597895
     84          1           0        0.225258    7.289735   -1.668666
     85          1           0        3.612800    5.285827    2.393682
     86          1           0        6.457332    4.859766    2.777367
     87          1           0        5.380518    6.311054    0.265276
     88          1           0        5.994724    6.973897    1.890414
     89          1           0        4.447588    7.394675    1.380911
     90          1           0        5.060156    2.959615    4.390570
     91          1           0        4.385227    4.650805    4.485246
     92          1           0        5.639570    4.897429    6.221545
     93          1           0        7.009815    5.129239    5.166383
     94          1           0        6.678210    3.579705    5.852410
     95          1           0        9.230480   -0.300491    2.854413
     96          1           0        8.315756   -1.667902    3.528947
     97          1           0        7.955525    0.001263    4.120181
     98          1           0        5.423623   -4.094003    0.325642
     99          1           0        8.099048   -4.291821   -3.515111
    100          1           0        8.620141   -2.665067   -3.459267
    101          1           0        7.118865   -3.051817   -4.407240
    102          1           0       -1.024023   -5.093277    2.096509
    103          1           0       -1.737614   -5.137759    0.501579
    104          1           0       -2.401320   -2.627608    0.760103
    105          1           0       -2.918917   -3.142800    4.603199
    106          1           0       -2.470558   -4.684845    3.691248
    107          1           0       -4.188305   -4.253001    3.784424
    108          1           0       -3.221777   -0.836950    2.688724
    109          1           0       -4.484541   -1.776329    3.505883
    110          1           0       -4.486752   -2.024864    0.615259
    111          1           0       -4.892846   -0.363857    1.028096
    112          1           0       -6.280337   -2.600459    2.452002
    113          1           0       -6.536387   -2.391588    0.776713
    114          1           0       -6.756382    0.165021    1.580772
    115          1           0       -6.802266   -1.013511    4.119117
    116          1           0       -8.561838   -0.728969    3.781217
    117          1           0       -7.304439    0.543402    3.719859
    118          1           0       -9.398760   -0.462531    1.658752
    119          1           0       -8.715294   -2.005661    1.180741
    120          1           0       -8.560105   -1.334115   -1.003909
    121          1           0       -7.420931   -0.230162   -0.508785
    122          1           0       -8.840906    1.378056   -1.222117
    123          1           0       -9.836278    1.198062    0.252256
    124          1           0      -10.816201   -0.892275   -1.476207
    125          1           0      -11.209793    0.068130   -3.596123
    126          1           0       -9.586003   -0.514547   -3.348021
    127          1           0       -9.912378    1.242341   -3.291544
    128          1           0      -12.472590    0.816845   -2.045244
    129          1           0      -11.817112    1.795644   -0.850611
    130          1           0      -12.447118    0.691848    0.983170
    131          1           0      -12.029801   -0.826562    0.341141
    132          1           0      -14.211991   -1.092293    0.455960
    133          1           0      -14.310386   -0.311014   -1.115503
    134          1           0      -14.313781    1.505858    1.275541
    135          1           0      -16.168266   -0.709797    1.121976
    136          1           0      -17.257744    0.599525    0.726239
    137          1           0      -16.382482    0.824622    2.120065
    138          1           0      -15.176406    3.040682   -0.069151
    139          1           0      -16.185832    1.993814   -1.052074
    140          1           0      -14.503396    2.020067   -1.333524
 ---------------------------------------------------------------------

 SCF Done:  E(RB-LYP) =  -3007.33417273     A.U. after   22 cycles

 Excitation energies and oscillator strengths:

 Excited State   1:      Singlet-A      1.5360 eV  807.16 nm  f=0.0013  <S**2>=0.000
     244 -> 247        0.69601
     245 -> 247       -0.10926
 This state for optimization and/or second-order correction.
 Total Energy, E(TD-HF/TD-DFT) =  -3007.27772409
 Copying the excited state density for this state as the 1-particle RhoCI density.

 Excited State   2:      Singlet-A      1.8241 eV  679.70 nm  f=0.2977  <S**2>=0.000
     245 -> 248       -0.18349
     246 -> 247        0.68698
     246 <- 247       -0.15089

 Excited State   3:      Singlet-A      1.9419 eV  638.47 nm  f=0.0683  <S**2>=0.000
     243 -> 247        0.31228
     245 -> 247        0.58610
     246 -> 248        0.16810

 Excited State   4:      Singlet-A      2.0386 eV  608.18 nm  f=0.0209  <S**2>=0.000
     243 -> 247        0.63129
     245 -> 247       -0.27577
     246 -> 248       -0.10659

 Excited State   5:      Singlet-A      2.0872 eV  594.02 nm  f=0.0016  <S**2>=0.000
     242 -> 247        0.70415

 The electronic state is 1-A.
 Alpha  occ. eigenvalues --  -46.28794 -18.82836 -18.82033 -18.76919 -18.76882
 Alpha  occ. eigenvalues --  -18.76071 -18.74605 -14.03503 -14.03360 -14.01269
 Alpha  occ. eigenvalues --  -14.00834 -10.04183 -10.04086 -10.00885  -9.98913
 Alpha  occ. eigenvalues --   -9.98672  -9.97401  -9.97354  -9.97198  -9.96432
 Alpha  occ. eigenvalues --   -9.96123  -9.95839  -9.95685  -9.95095  -9.95010
 Alpha  occ. eigenvalues --   -9.94991  -9.94694  -9.94488  -9.94248  -9.93917
 Alpha  occ. eigenvalues --   -9.93883  -9.93876  -9.93781  -9.93603  -9.93290
 Alpha  occ. eigenvalues --   -9.93234  -9.93162  -9.93133  -9.93052  -9.92953
 Alpha  occ. eigenvalues --   -9.92812  -9.92775  -9.92750  -9.92437  -9.92412
 Alpha  occ. eigenvalues --   -9.92280  -9.92276  -9.91924  -9.91859  -9.91671
 Alpha  occ. eigenvalues --   -9.91636  -9.91495  -9.91445  -9.91230  -9.91227
 Alpha  occ. eigenvalues --   -9.91042  -9.91034  -9.91016  -9.90780  -9.90672
 Alpha  occ. eigenvalues --   -9.90661  -9.90652  -9.90619  -9.90576  -9.90318
 Alpha  occ. eigenvalues --   -9.89974  -2.93216  -1.73589  -1.73158  -1.72903
 Alpha  occ. eigenvalues --   -0.97449  -0.96996  -0.92434  -0.91246  -0.90405
 Alpha  occ. eigenvalues --   -0.87901  -0.87657  -0.86746  -0.86581  -0.85796
 Alpha  occ. eigenvalues --   -0.75806  -0.73917  -0.73193  -0.73053  -0.72591
 Alpha  occ. eigenvalues --   -0.72304  -0.72081  -0.71179  -0.70726  -0.70496
 Alpha  occ. eigenvalues --   -0.69703  -0.69300  -0.68105  -0.67621  -0.67373
 Alpha  occ. eigenvalues --   -0.66451  -0.66093  -0.65705  -0.64956  -0.64716
 Alpha  occ. eigenvalues --   -0.64416  -0.63015  -0.62435  -0.61929  -0.61122
 Alpha  occ. eigenvalues --   -0.60690  -0.60403  -0.60250  -0.59584  -0.59066
 Alpha  occ. eigenvalues --   -0.58576  -0.58144  -0.57614  -0.56120  -0.55332
 Alpha  occ. eigenvalues --   -0.54619  -0.53533  -0.53000  -0.52275  -0.51644
 Alpha  occ. eigenvalues --   -0.51530  -0.51427  -0.51202  -0.50749  -0.49716
 Alpha  occ. eigenvalues --   -0.49629  -0.49587  -0.49547  -0.48776  -0.46554
 Alpha  occ. eigenvalues --   -0.46373  -0.46062  -0.45745  -0.45325  -0.45040
 Alpha  occ. eigenvalues --   -0.44215  -0.43817  -0.43343  -0.42691  -0.42561
 Alpha  occ. eigenvalues --   -0.42071  -0.41886  -0.41572  -0.41406  -0.41322
 Alpha  occ. eigenvalues --   -0.40649  -0.40373  -0.40275  -0.40175  -0.40116
 Alpha  occ. eigenvalues --   -0.39991  -0.39947  -0.39642  -0.39565  -0.39382
 Alpha  occ. eigenvalues --   -0.39233  -0.38944  -0.38679  -0.38449  -0.38283
 Alpha  occ. eigenvalues --   -0.38158  -0.38129  -0.37929  -0.37687  -0.37520
 Alpha  occ. eigenvalues --   -0.37363  -0.37083  -0.36981  -0.36772  -0.36596
 Alpha  occ. eigenvalues --   -0.36232  -0.36120  -0.36015  -0.35924  -0.35732
 Alpha  occ. eigenvalues --   -0.35714  -0.35379  -0.35286  -0.35198  -0.35041
 Alpha  occ. eigenvalues --   -0.34948  -0.34738  -0.34623  -0.34328  -0.34250
 Alpha  occ. eigenvalues --   -0.34083  -0.33994  -0.33788  -0.33549  -0.33291
 Alpha  occ. eigenvalues --   -0.33163  -0.33059  -0.32690  -0.32610  -0.32165
 Alpha  occ. eigenvalues --   -0.32086  -0.31889  -0.31678  -0.31489  -0.31393
 Alpha  occ. eigenvalues --   -0.31299  -0.31212  -0.31051  -0.30988  -0.30821
 Alpha  occ. eigenvalues --   -0.30649  -0.30421  -0.30401  -0.30177  -0.30062
 Alpha  occ. eigenvalues --   -0.29833  -0.29555  -0.29209  -0.29056  -0.28644
 Alpha  occ. eigenvalues --   -0.28503  -0.28209  -0.28052  -0.28037  -0.27834
 Alpha  occ. eigenvalues --   -0.27779  -0.27575  -0.26966  -0.26602  -0.26574
 Alpha  occ. eigenvalues --   -0.26236  -0.25769  -0.25697  -0.25308  -0.24925
 Alpha  occ. eigenvalues --   -0.24796  -0.24752  -0.24494  -0.24483  -0.23701
 Alpha  occ. eigenvalues --   -0.23297  -0.22707  -0.21837  -0.21210  -0.21066
 Alpha  occ. eigenvalues --   -0.20148  -0.19842  -0.19487  -0.17776  -0.17584
 Alpha  occ. eigenvalues --   -0.16468
 Alpha virt. eigenvalues --   -0.12179  -0.06959  -0.06487  -0.04724  -0.04243
 Alpha virt. eigenvalues --   -0.03264  -0.02741  -0.02358  -0.02010   0.00222
 Alpha virt. eigenvalues --    0.01076   0.01696   0.01962   0.02963   0.03000

 Mulliken charges:
               1
     1  Mg   0.679254
     2  C    0.030695
     3  C   -0.067056
     4  C   -0.066184
     5  C   -0.070822
     6  N   -0.192889
     7  C   -0.058041
     8  C    0.018214
     9  C   -0.002270
    10  C   -0.029996
    11  C    0.143051
    12  C    0.103489
    13  C    0.170062
    14  C    0.047133
    15  O   -0.242701
    16  O   -0.260739
    17  N   -0.274924
    18  C    0.168815
    19  C   -0.146902
    20  C    0.061084
    21  C    0.114480
    22  C    0.195401
    23  C   -0.139141
    24  O   -0.143306
    25  C    0.142898
    26  N   -0.215083
    27  C   -0.009133
    28  C    0.054105
    29  C    0.021930
    30  C   -0.016298
    31  C    0.102774
    32  C    0.066849
    33  C    0.047207
    34  N   -0.217845
    35  C    0.136833
    36  C   -0.201879
    37  C    0.081617
    38  C    0.064589
    39  C    0.186338
    40  C   -0.042194
    41  O   -0.129227
    42  C    0.022199
    43  C    0.132877
    44  O   -0.152897
    45  O   -0.297640
    46  C    0.206263
    47  C    0.322437
    48  C   -0.082469
    49  C   -0.234110
    50  C    0.195425
    51  C    0.145497
    52  C    0.075902
    53  C    0.063301
    54  C   -0.056104
    55  C    0.130078
    56  C    0.105681
    57  C    0.060960
    58  C    0.136402
    59  C   -0.087082
    60  C    0.106760
    61  C    0.091709
    62  C    0.091831
    63  C    0.074145
    64  C   -0.066969
    65  C    0.117487
    66  C    0.102186
    67  H   -0.067080
    68  H   -0.078004
    69  H   -0.053159
    70  H   -0.026102
    71  H   -0.017477
    72  H   -0.006439
    73  H    0.001352
    74  H   -0.009110
    75  H    0.001980
    76  H   -0.017030
    77  H    0.007771
    78  H    0.016515
    79  H    0.005657
    80  H    0.006912
    81  H   -0.042085
    82  H    0.018533
    83  H    0.001391
    84  H   -0.008068
    85  H   -0.022976
    86  H   -0.036011
    87  H    0.012015
    88  H    0.006164
    89  H   -0.002250
    90  H   -0.000674
    91  H   -0.020810
    92  H   -0.009217
    93  H   -0.012712
    94  H   -0.011317
    95  H    0.007539
    96  H    0.010996
    97  H    0.000534
    98  H    0.009636
    99  H    0.022963
   100  H    0.005657
   101  H    0.017941
   102  H   -0.010448
   103  H    0.016229
   104  H   -0.032487
   105  H    0.014535
   106  H   -0.024169
   107  H    0.008367
   108  H   -0.005956
   109  H   -0.045314
   110  H   -0.037969
   111  H   -0.029802
   112  H   -0.041536
   113  H   -0.041780
   114  H   -0.045839
   115  H   -0.024160
   116  H   -0.008987
   117  H   -0.023845
   118  H   -0.035853
   119  H   -0.038182
   120  H   -0.032530
   121  H   -0.047707
   122  H   -0.038657
   123  H   -0.019859
   124  H   -0.043666
   125  H   -0.022179
   126  H   -0.016127
   127  H   -0.018024
   128  H   -0.049058
   129  H   -0.048748
   130  H   -0.041447
   131  H   -0.032572
   132  H   -0.041588
   133  H   -0.029295
   134  H   -0.031925
   135  H   -0.009072
   136  H   -0.019127
   137  H   -0.017984
   138  H   -0.022463
   139  H   -0.021124
   140  H   -0.016747
 Sum of Mulliken charges =  -0.00000

 Dipole moment (field-independent basis, Debye):
    X=             -0.2943    Y=              5.6300    Z=              1.4892  Tot=              5.8310
 Quadrupole moment (field-independent basis, Debye-Ang):
   XX=           -403.4167   YY=           -440.9220   ZZ=           -390.8645
   XY=             56.8281   XZ=            -13.0627   YZ=             26.1866

 Normal termination of Gaussian 16 at Tue Apr 26 21:11:26 2022.
