 Gaussian 16, Revision A.03,
 Gaussian 16:  ES64L-G16RevA.03 25-Dec-2016

 -----------------------------------
 #p cam-b3lyp/Def2SVP td=(nstates=5)
 -----------------------------------

 -------------------------------------------------------
 step_1001_chromophore_2 TDDFT with cam-b3lyp functional
 -------------------------------------------------------
 Symbolic Z-matrix:
 Charge =  0 Multiplicity = 1

                         Standard orientation:
 ---------------------------------------------------------------------
 Center     Atomic      Atomic             Coordinates (Angstroms)
 Number     Number       Type             X           Y           Z
 ---------------------------------------------------------------------
      1         12           0        4.500914    1.455178   -0.566692
      2          6           0        5.245556   -1.978230   -0.373590
      3          6           0        2.182539    0.575446   -3.046742
      4          6           0        3.239803    4.439620   -0.332451
      5          6           0        6.364737    1.851632    2.380938
      6          7           0        3.606523   -0.513156   -1.376580
      7          6           0        4.176641   -1.715598   -1.217757
      8          6           0        3.543835   -2.746159   -2.084432
      9          6           0        2.548080   -1.903345   -2.982176
     10          6           0        2.787889   -0.529967   -2.506141
     11          6           0        2.675078   -2.095533   -4.496746
     12          6           0        2.922423   -3.927330   -1.302402
     13          6           0        2.293895   -3.704289    0.079344
     14          6           0        0.986904   -4.517126    0.365365
     15          8           0        0.845036   -5.736241    0.049399
     16          8           0       -0.026674   -3.773278    0.913180
     17          7           0        2.967728    2.450616   -1.641844
     18          6           0        2.237874    1.926637   -2.667712
     19          6           0        1.413538    2.957588   -3.152097
     20          6           0        1.613763    4.107184   -2.316979
     21          6           0        2.580206    3.713081   -1.346396
     22          6           0        0.399168    2.751927   -4.212455
     23          6           0        0.912375    5.401337   -2.549899
     24          8           0        0.141615    5.520445   -3.457270
     25          6           0        1.058903    6.589204   -1.619276
     26          7           0        4.551604    2.903423    1.029201
     27          6           0        4.024064    4.095534    0.783227
     28          6           0        4.525971    5.140624    1.816273
     29          6           0        5.525436    4.296217    2.729914
     30          6           0        5.560271    2.935739    1.957950
     31          6           0        5.167272    6.579069    1.300041
     32          6           0        5.242649    4.024184    4.242912
     33          6           0        6.194391    4.444300    5.399398
     34          7           0        5.702271    0.283471    0.718378
     35          6           0        6.469297    0.590698    1.763789
     36          6           0        7.280930   -0.518288    2.134674
     37          6           0        6.871898   -1.571544    1.292328
     38          6           0        5.894148   -1.026612    0.445567
     39          6           0        8.272726   -0.609224    3.273541
     40          6           0        7.089103   -2.983696    0.971668
     41          8           0        7.839072   -3.867959    1.407655
     42          6           0        5.990614   -3.313481   -0.182597
     43          6           0        6.659325   -3.822437   -1.432035
     44          8           0        6.834115   -5.002401   -1.623963
     45          8           0        7.070804   -2.809610   -2.331610
     46          6           0        7.716178   -3.271210   -3.523171
     47          6           0       -1.288913   -4.474061    1.240253
     48          6           0       -2.387872   -3.424500    1.504104
     49          6           0       -3.120244   -3.064689    2.592654
     50          6           0       -3.172072   -3.861825    3.823224
     51          6           0       -3.855511   -1.720307    2.617257
     52          6           0       -4.845734   -1.380255    1.417132
     53          6           0       -6.266086   -1.836641    1.675323
     54          6           0       -7.279921   -0.704079    1.980538
     55          6           0       -7.534777   -0.498606    3.497526
     56          6           0       -8.531998   -0.931013    1.192117
     57          6           0       -8.461672   -0.493084   -0.317452
     58          6           0       -9.428968    0.685815   -0.619149
     59          6           0      -10.614400    0.175197   -1.563097
     60          6           0      -10.293912    0.253801   -3.036409
     61          6           0      -11.935688    0.740717   -1.099689
     62          6           0      -12.574755    0.082679    0.088295
     63          6           0      -14.073737   -0.144451   -0.065675
     64          6           0      -14.978675    1.025523    0.556758
     65          6           0      -16.272054    0.374699    1.133453
     66          6           0      -15.233352    2.051666   -0.524788
     67          1           0        1.450755    0.276945   -3.800254
     68          1           0        3.043044    5.508819   -0.440025
     69          1           0        7.071338    2.210331    3.133025
     70          1           0        4.179786   -3.194550   -2.847471
     71          1           0        1.502980   -2.088893   -2.736398
     72          1           0        3.242588   -3.009234   -4.672470
     73          1           0        3.117364   -1.211550   -4.955447
     74          1           0        1.668352   -2.269800   -4.876598
     75          1           0        3.735834   -4.650620   -1.270263
     76          1           0        2.138290   -4.301718   -1.960470
     77          1           0        1.885040   -2.700570    0.194485
     78          1           0        2.925444   -4.175727    0.832271
     79          1           0        0.563537    3.543264   -4.943967
     80          1           0       -0.615456    2.641284   -3.832098
     81          1           0        0.488835    1.882263   -4.862703
     82          1           0        2.013155    7.005687   -1.942552
     83          1           0        1.033902    6.207522   -0.597895
     84          1           0        0.225258    7.289735   -1.668666
     85          1           0        3.612800    5.285827    2.393682
     86          1           0        6.457332    4.859766    2.777367
     87          1           0        5.380518    6.311054    0.265276
     88          1           0        5.994724    6.973897    1.890414
     89          1           0        4.447588    7.394675    1.380911
     90          1           0        5.060156    2.959615    4.390570
     91          1           0        4.385227    4.650805    4.485246
     92          1           0        5.639570    4.897429    6.221545
     93          1           0        7.009815    5.129239    5.166383
     94          1           0        6.678210    3.579705    5.852410
     95          1           0        9.230480   -0.300491    2.854413
     96          1           0        8.315756   -1.667902    3.528947
     97          1           0        7.955525    0.001263    4.120181
     98          1           0        5.423623   -4.094003    0.325642
     99          1           0        8.099048   -4.291821   -3.515111
    100          1           0        8.620141   -2.665067   -3.459267
    101          1           0        7.118865   -3.051817   -4.407240
    102          1           0       -1.024023   -5.093277    2.096509
    103          1           0       -1.737614   -5.137759    0.501579
    104          1           0       -2.401320   -2.627608    0.760103
    105          1           0       -2.918917   -3.142800    4.603199
    106          1           0       -2.470558   -4.684845    3.691248
    107          1           0       -4.188305   -4.253001    3.784424
    108          1           0       -3.221777   -0.836950    2.688724
    109          1           0       -4.484541   -1.776329    3.505883
    110          1           0       -4.486752   -2.024864    0.615259
    111          1           0       -4.892846   -0.363857    1.028096
    112          1           0       -6.280337   -2.600459    2.452002
    113          1           0       -6.536387   -2.391588    0.776713
    114          1           0       -6.756382    0.165021    1.580772
    115          1           0       -6.802266   -1.013511    4.119117
    116          1           0       -8.561838   -0.728969    3.781217
    117          1           0       -7.304439    0.543402    3.719859
    118          1           0       -9.398760   -0.462531    1.658752
    119          1           0       -8.715294   -2.005661    1.180741
    120          1           0       -8.560105   -1.334115   -1.003909
    121          1           0       -7.420931   -0.230162   -0.508785
    122          1           0       -8.840906    1.378056   -1.222117
    123          1           0       -9.836278    1.198062    0.252256
    124          1           0      -10.816201   -0.892275   -1.476207
    125          1           0      -11.209793    0.068130   -3.596123
    126          1           0       -9.586003   -0.514547   -3.348021
    127          1           0       -9.912378    1.242341   -3.291544
    128          1           0      -12.472590    0.816845   -2.045244
    129          1           0      -11.817112    1.795644   -0.850611
    130          1           0      -12.447118    0.691848    0.983170
    131          1           0      -12.029801   -0.826562    0.341141
    132          1           0      -14.211991   -1.092293    0.455960
    133          1           0      -14.310386   -0.311014   -1.115503
    134          1           0      -14.313781    1.505858    1.275541
    135          1           0      -16.168266   -0.709797    1.121976
    136          1           0      -17.257744    0.599525    0.726239
    137          1           0      -16.382482    0.824622    2.120065
    138          1           0      -15.176406    3.040682   -0.069151
    139          1           0      -16.185832    1.993814   -1.052074
    140          1           0      -14.503396    2.020067   -1.333524
 ---------------------------------------------------------------------

 SCF Done:  E(RCAM-B3LYP) =  -3007.12916732     A.U. after   17 cycles

 Excitation energies and oscillator strengths:

 Excited State   1:      Singlet-A      1.7090 eV  725.46 nm  f=0.3840  <S**2>=0.000
     245 -> 248       -0.17880
     246 -> 247        0.68661
     245 <- 248       -0.10855
 This state for optimization and/or second-order correction.
 Total Energy, E(TD-HF/TD-DFT) =  -3007.06636139
 Copying the excited state density for this state as the 1-particle RhoCI density.

 Excited State   2:      Singlet-A      2.1765 eV  569.66 nm  f=0.1417  <S**2>=0.000
     245 -> 247        0.65665
     246 -> 248        0.24556

 Excited State   3:      Singlet-A      3.1464 eV  394.05 nm  f=0.0049  <S**2>=0.000
     242 -> 247        0.11707
     244 -> 247        0.67471

 Excited State   4:      Singlet-A      3.4310 eV  361.36 nm  f=0.0009  <S**2>=0.000
     239 -> 247       -0.10281
     241 -> 247       -0.42643
     242 -> 247        0.45391
     242 -> 249       -0.10818
     242 -> 251       -0.16647
     246 -> 248        0.11953

 Excited State   5:      Singlet-A      3.4623 eV  358.10 nm  f=0.0013  <S**2>=0.000
     239 -> 247        0.47050
     239 -> 249        0.28017
     240 -> 247       -0.18078
     240 -> 249       -0.10030
     241 -> 247        0.14894
     242 -> 247        0.25730
     242 -> 251       -0.11433

 The electronic state is 1-A.
 Alpha  occ. eigenvalues --  -46.90495 -19.25722 -19.25074 -19.20286 -19.20218
 Alpha  occ. eigenvalues --  -19.18992 -19.17668 -14.42337 -14.42331 -14.39741
 Alpha  occ. eigenvalues --  -14.39188 -10.39803 -10.39571 -10.36512 -10.33860
 Alpha  occ. eigenvalues --  -10.32794 -10.31821 -10.31755 -10.31347 -10.30988
 Alpha  occ. eigenvalues --  -10.30463 -10.30136 -10.30015 -10.29490 -10.29305
 Alpha  occ. eigenvalues --  -10.29161 -10.29057 -10.28508 -10.28483 -10.28286
 Alpha  occ. eigenvalues --  -10.28186 -10.27958 -10.27742 -10.27508 -10.27428
 Alpha  occ. eigenvalues --  -10.27304 -10.27301 -10.27193 -10.27117 -10.26909
 Alpha  occ. eigenvalues --  -10.26852 -10.26608 -10.26519 -10.26157 -10.26127
 Alpha  occ. eigenvalues --  -10.26118 -10.26028 -10.25995 -10.25861 -10.25638
 Alpha  occ. eigenvalues --  -10.25592 -10.25169 -10.25138 -10.24902 -10.24877
 Alpha  occ. eigenvalues --  -10.24721 -10.24705 -10.24598 -10.24353 -10.24310
 Alpha  occ. eigenvalues --  -10.24280 -10.24247 -10.24246 -10.24202 -10.23873
 Alpha  occ. eigenvalues --  -10.23573  -3.18805  -1.93659  -1.93302  -1.93075
 Alpha  occ. eigenvalues --   -1.16158  -1.15341  -1.10773  -1.09745  -1.08537
 Alpha  occ. eigenvalues --   -1.05725  -1.05456  -1.04411  -1.04325  -1.03314
 Alpha  occ. eigenvalues --   -0.93085  -0.90806  -0.90009  -0.89832  -0.89352
 Alpha  occ. eigenvalues --   -0.89015  -0.88748  -0.87764  -0.87293  -0.87115
 Alpha  occ. eigenvalues --   -0.86154  -0.85744  -0.84335  -0.83840  -0.83552
 Alpha  occ. eigenvalues --   -0.82461  -0.82139  -0.81668  -0.80901  -0.80546
 Alpha  occ. eigenvalues --   -0.80251  -0.78744  -0.78003  -0.77494  -0.76623
 Alpha  occ. eigenvalues --   -0.76057  -0.75715  -0.75615  -0.74874  -0.74288
 Alpha  occ. eigenvalues --   -0.73699  -0.73186  -0.72567  -0.70954  -0.69936
 Alpha  occ. eigenvalues --   -0.69358  -0.68076  -0.67476  -0.66662  -0.65840
 Alpha  occ. eigenvalues --   -0.65691  -0.65503  -0.65354  -0.64748  -0.63614
 Alpha  occ. eigenvalues --   -0.63570  -0.63528  -0.63291  -0.62680  -0.60097
 Alpha  occ. eigenvalues --   -0.59999  -0.59645  -0.59160  -0.58697  -0.58508
 Alpha  occ. eigenvalues --   -0.57597  -0.57246  -0.56555  -0.55933  -0.55677
 Alpha  occ. eigenvalues --   -0.55129  -0.54974  -0.54640  -0.54331  -0.54055
 Alpha  occ. eigenvalues --   -0.53927  -0.53403  -0.52989  -0.52767  -0.52706
 Alpha  occ. eigenvalues --   -0.52615  -0.52554  -0.52424  -0.52346  -0.52084
 Alpha  occ. eigenvalues --   -0.51918  -0.51451  -0.51252  -0.51077  -0.50643
 Alpha  occ. eigenvalues --   -0.50487  -0.50364  -0.50297  -0.50114  -0.49837
 Alpha  occ. eigenvalues --   -0.49740  -0.49528  -0.49374  -0.49132  -0.49083
 Alpha  occ. eigenvalues --   -0.48822  -0.48251  -0.48238  -0.47968  -0.47782
 Alpha  occ. eigenvalues --   -0.47662  -0.47364  -0.47323  -0.47118  -0.47018
 Alpha  occ. eigenvalues --   -0.46964  -0.46731  -0.46605  -0.46287  -0.46050
 Alpha  occ. eigenvalues --   -0.45938  -0.45849  -0.45669  -0.45487  -0.45368
 Alpha  occ. eigenvalues --   -0.44940  -0.44759  -0.44334  -0.44206  -0.43796
 Alpha  occ. eigenvalues --   -0.43683  -0.43610  -0.43378  -0.43064  -0.42961
 Alpha  occ. eigenvalues --   -0.42799  -0.42733  -0.42515  -0.42352  -0.42286
 Alpha  occ. eigenvalues --   -0.42202  -0.41985  -0.41715  -0.41636  -0.41412
 Alpha  occ. eigenvalues --   -0.41278  -0.41020  -0.40635  -0.40136  -0.39609
 Alpha  occ. eigenvalues --   -0.39461  -0.39233  -0.39012  -0.38935  -0.38809
 Alpha  occ. eigenvalues --   -0.38718  -0.38400  -0.37795  -0.37650  -0.37370
 Alpha  occ. eigenvalues --   -0.37141  -0.36812  -0.36527  -0.36474  -0.36260
 Alpha  occ. eigenvalues --   -0.35893  -0.35255  -0.35012  -0.34966  -0.34538
 Alpha  occ. eigenvalues --   -0.33832  -0.33649  -0.33008  -0.31433  -0.31387
 Alpha  occ. eigenvalues --   -0.30695  -0.29935  -0.29683  -0.29315  -0.24366
 Alpha  occ. eigenvalues --   -0.21878
 Alpha virt. eigenvalues --   -0.09446  -0.01785  -0.00001   0.00392   0.02726
 Alpha virt. eigenvalues --    0.04522   0.04711   0.05084   0.05318   0.07462
 Alpha virt. eigenvalues --    0.07545   0.08050   0.08714   0.09033   0.09244

 Mulliken charges:
               1
     1  Mg   0.809196
     2  C    0.000046
     3  C   -0.079377
     4  C   -0.091936
     5  C   -0.077649
     6  N   -0.258395
     7  C   -0.019882
     8  C   -0.030956
     9  C   -0.056793
    10  C   -0.006803
    11  C    0.079814
    12  C    0.053095
    13  C    0.094438
    14  C    0.136918
    15  O   -0.284783
    16  O   -0.326440
    17  N   -0.363624
    18  C    0.173949
    19  C   -0.149593
    20  C   -0.017219
    21  C    0.144641
    22  C    0.135705
    23  C   -0.057859
    24  O   -0.184558
    25  C    0.060742
    26  N   -0.287400
    27  C    0.021255
    28  C   -0.004109
    29  C   -0.024235
    30  C    0.004130
    31  C    0.045937
    32  C    0.005635
    33  C   -0.011064
    34  N   -0.309588
    35  C    0.138407
    36  C   -0.191564
    37  C   -0.003580
    38  C    0.107200
    39  C    0.136028
    40  C    0.061859
    41  O   -0.167526
    42  C   -0.048550
    43  C    0.218489
    44  O   -0.188961
    45  O   -0.358209
    46  C    0.165652
    47  C    0.292775
    48  C   -0.110457
    49  C   -0.244407
    50  C    0.127723
    51  C    0.089819
    52  C    0.018589
    53  C    0.012331
    54  C   -0.111615
    55  C    0.071487
    56  C    0.051554
    57  C    0.010477
    58  C    0.077063
    59  C   -0.141894
    60  C    0.053433
    61  C    0.037797
    62  C    0.036259
    63  C    0.018435
    64  C   -0.126768
    65  C    0.056163
    66  C    0.045125
    67  H   -0.030171
    68  H   -0.042412
    69  H   -0.018543
    70  H    0.008662
    71  H    0.017064
    72  H    0.017711
    73  H    0.027925
    74  H    0.015965
    75  H    0.029267
    76  H    0.016002
    77  H    0.042011
    78  H    0.045286
    79  H    0.033610
    80  H    0.033774
    81  H   -0.014096
    82  H    0.043631
    83  H    0.028533
    84  H    0.026806
    85  H    0.012429
    86  H   -0.002051
    87  H    0.034420
    88  H    0.029886
    89  H    0.021071
    90  H    0.029589
    91  H    0.007586
    92  H    0.015419
    93  H    0.010246
    94  H    0.010837
    95  H    0.034562
    96  H    0.037721
    97  H    0.024580
    98  H    0.049592
    99  H    0.049871
   100  H    0.028909
   101  H    0.037425
   102  H    0.018631
   103  H    0.044642
   104  H   -0.000438
   105  H    0.037715
   106  H    0.000365
   107  H    0.031023
   108  H    0.024835
   109  H   -0.018357
   110  H   -0.006933
   111  H   -0.000775
   112  H   -0.014406
   113  H   -0.011410
   114  H   -0.014155
   115  H   -0.001542
   116  H    0.015645
   117  H    0.001304
   118  H   -0.009373
   119  H   -0.008923
   120  H   -0.004796
   121  H   -0.019948
   122  H   -0.008713
   123  H    0.007751
   124  H   -0.012914
   125  H    0.002330
   126  H    0.008097
   127  H    0.004892
   128  H   -0.021468
   129  H   -0.019625
   130  H   -0.013418
   131  H   -0.003844
   132  H   -0.010907
   133  H   -0.001136
   134  H   -0.001017
   135  H    0.014565
   136  H    0.005691
   137  H    0.006001
   138  H    0.002153
   139  H    0.003752
   140  H    0.005213
 Sum of Mulliken charges =  -0.00000

 Dipole moment (field-independent basis, Debye):
    X=             -0.0915    Y=              5.8643    Z=              1.5056  Tot=              6.0552
 Quadrupole moment (field-independent basis, Debye-Ang):
   XX=           -401.3719   YY=           -439.2890   ZZ=           -389.2071
   XY=             57.6465   XZ=            -12.2750   YZ=             27.9670

 Normal termination of Gaussian 16 at Tue Apr 26 20:14:14 2022.
