 Gaussian 16, Revision A.03,
 Gaussian 16:  ES64L-G16RevA.03 25-Dec-2016

 ---------------------------------
 #p PBE1PBE/Def2SVP td=(nstates=5)
 ---------------------------------

 -----------------------------------------------------
 step_1001_chromophore_2 TDDFT with PBE1PBE functional
 -----------------------------------------------------
 Symbolic Z-matrix:
 Charge =  0 Multiplicity = 1

                         Standard orientation:
 ---------------------------------------------------------------------
 Center     Atomic      Atomic             Coordinates (Angstroms)
 Number     Number       Type             X           Y           Z
 ---------------------------------------------------------------------
      1         12           0        4.500914    1.455178   -0.566692
      2          6           0        5.245556   -1.978230   -0.373590
      3          6           0        2.182539    0.575446   -3.046742
      4          6           0        3.239803    4.439620   -0.332451
      5          6           0        6.364737    1.851632    2.380938
      6          7           0        3.606523   -0.513156   -1.376580
      7          6           0        4.176641   -1.715598   -1.217757
      8          6           0        3.543835   -2.746159   -2.084432
      9          6           0        2.548080   -1.903345   -2.982176
     10          6           0        2.787889   -0.529967   -2.506141
     11          6           0        2.675078   -2.095533   -4.496746
     12          6           0        2.922423   -3.927330   -1.302402
     13          6           0        2.293895   -3.704289    0.079344
     14          6           0        0.986904   -4.517126    0.365365
     15          8           0        0.845036   -5.736241    0.049399
     16          8           0       -0.026674   -3.773278    0.913180
     17          7           0        2.967728    2.450616   -1.641844
     18          6           0        2.237874    1.926637   -2.667712
     19          6           0        1.413538    2.957588   -3.152097
     20          6           0        1.613763    4.107184   -2.316979
     21          6           0        2.580206    3.713081   -1.346396
     22          6           0        0.399168    2.751927   -4.212455
     23          6           0        0.912375    5.401337   -2.549899
     24          8           0        0.141615    5.520445   -3.457270
     25          6           0        1.058903    6.589204   -1.619276
     26          7           0        4.551604    2.903423    1.029201
     27          6           0        4.024064    4.095534    0.783227
     28          6           0        4.525971    5.140624    1.816273
     29          6           0        5.525436    4.296217    2.729914
     30          6           0        5.560271    2.935739    1.957950
     31          6           0        5.167272    6.579069    1.300041
     32          6           0        5.242649    4.024184    4.242912
     33          6           0        6.194391    4.444300    5.399398
     34          7           0        5.702271    0.283471    0.718378
     35          6           0        6.469297    0.590698    1.763789
     36          6           0        7.280930   -0.518288    2.134674
     37          6           0        6.871898   -1.571544    1.292328
     38          6           0        5.894148   -1.026612    0.445567
     39          6           0        8.272726   -0.609224    3.273541
     40          6           0        7.089103   -2.983696    0.971668
     41          8           0        7.839072   -3.867959    1.407655
     42          6           0        5.990614   -3.313481   -0.182597
     43          6           0        6.659325   -3.822437   -1.432035
     44          8           0        6.834115   -5.002401   -1.623963
     45          8           0        7.070804   -2.809610   -2.331610
     46          6           0        7.716178   -3.271210   -3.523171
     47          6           0       -1.288913   -4.474061    1.240253
     48          6           0       -2.387872   -3.424500    1.504104
     49          6           0       -3.120244   -3.064689    2.592654
     50          6           0       -3.172072   -3.861825    3.823224
     51          6           0       -3.855511   -1.720307    2.617257
     52          6           0       -4.845734   -1.380255    1.417132
     53          6           0       -6.266086   -1.836641    1.675323
     54          6           0       -7.279921   -0.704079    1.980538
     55          6           0       -7.534777   -0.498606    3.497526
     56          6           0       -8.531998   -0.931013    1.192117
     57          6           0       -8.461672   -0.493084   -0.317452
     58          6           0       -9.428968    0.685815   -0.619149
     59          6           0      -10.614400    0.175197   -1.563097
     60          6           0      -10.293912    0.253801   -3.036409
     61          6           0      -11.935688    0.740717   -1.099689
     62          6           0      -12.574755    0.082679    0.088295
     63          6           0      -14.073737   -0.144451   -0.065675
     64          6           0      -14.978675    1.025523    0.556758
     65          6           0      -16.272054    0.374699    1.133453
     66          6           0      -15.233352    2.051666   -0.524788
     67          1           0        1.450755    0.276945   -3.800254
     68          1           0        3.043044    5.508819   -0.440025
     69          1           0        7.071338    2.210331    3.133025
     70          1           0        4.179786   -3.194550   -2.847471
     71          1           0        1.502980   -2.088893   -2.736398
     72          1           0        3.242588   -3.009234   -4.672470
     73          1           0        3.117364   -1.211550   -4.955447
     74          1           0        1.668352   -2.269800   -4.876598
     75          1           0        3.735834   -4.650620   -1.270263
     76          1           0        2.138290   -4.301718   -1.960470
     77          1           0        1.885040   -2.700570    0.194485
     78          1           0        2.925444   -4.175727    0.832271
     79          1           0        0.563537    3.543264   -4.943967
     80          1           0       -0.615456    2.641284   -3.832098
     81          1           0        0.488835    1.882263   -4.862703
     82          1           0        2.013155    7.005687   -1.942552
     83          1           0        1.033902    6.207522   -0.597895
     84          1           0        0.225258    7.289735   -1.668666
     85          1           0        3.612800    5.285827    2.393682
     86          1           0        6.457332    4.859766    2.777367
     87          1           0        5.380518    6.311054    0.265276
     88          1           0        5.994724    6.973897    1.890414
     89          1           0        4.447588    7.394675    1.380911
     90          1           0        5.060156    2.959615    4.390570
     91          1           0        4.385227    4.650805    4.485246
     92          1           0        5.639570    4.897429    6.221545
     93          1           0        7.009815    5.129239    5.166383
     94          1           0        6.678210    3.579705    5.852410
     95          1           0        9.230480   -0.300491    2.854413
     96          1           0        8.315756   -1.667902    3.528947
     97          1           0        7.955525    0.001263    4.120181
     98          1           0        5.423623   -4.094003    0.325642
     99          1           0        8.099048   -4.291821   -3.515111
    100          1           0        8.620141   -2.665067   -3.459267
    101          1           0        7.118865   -3.051817   -4.407240
    102          1           0       -1.024023   -5.093277    2.096509
    103          1           0       -1.737614   -5.137759    0.501579
    104          1           0       -2.401320   -2.627608    0.760103
    105          1           0       -2.918917   -3.142800    4.603199
    106          1           0       -2.470558   -4.684845    3.691248
    107          1           0       -4.188305   -4.253001    3.784424
    108          1           0       -3.221777   -0.836950    2.688724
    109          1           0       -4.484541   -1.776329    3.505883
    110          1           0       -4.486752   -2.024864    0.615259
    111          1           0       -4.892846   -0.363857    1.028096
    112          1           0       -6.280337   -2.600459    2.452002
    113          1           0       -6.536387   -2.391588    0.776713
    114          1           0       -6.756382    0.165021    1.580772
    115          1           0       -6.802266   -1.013511    4.119117
    116          1           0       -8.561838   -0.728969    3.781217
    117          1           0       -7.304439    0.543402    3.719859
    118          1           0       -9.398760   -0.462531    1.658752
    119          1           0       -8.715294   -2.005661    1.180741
    120          1           0       -8.560105   -1.334115   -1.003909
    121          1           0       -7.420931   -0.230162   -0.508785
    122          1           0       -8.840906    1.378056   -1.222117
    123          1           0       -9.836278    1.198062    0.252256
    124          1           0      -10.816201   -0.892275   -1.476207
    125          1           0      -11.209793    0.068130   -3.596123
    126          1           0       -9.586003   -0.514547   -3.348021
    127          1           0       -9.912378    1.242341   -3.291544
    128          1           0      -12.472590    0.816845   -2.045244
    129          1           0      -11.817112    1.795644   -0.850611
    130          1           0      -12.447118    0.691848    0.983170
    131          1           0      -12.029801   -0.826562    0.341141
    132          1           0      -14.211991   -1.092293    0.455960
    133          1           0      -14.310386   -0.311014   -1.115503
    134          1           0      -14.313781    1.505858    1.275541
    135          1           0      -16.168266   -0.709797    1.121976
    136          1           0      -17.257744    0.599525    0.726239
    137          1           0      -16.382482    0.824622    2.120065
    138          1           0      -15.176406    3.040682   -0.069151
    139          1           0      -16.185832    1.993814   -1.052074
    140          1           0      -14.503396    2.020067   -1.333524
 ---------------------------------------------------------------------

 SCF Done:  E(RPBE1PBE) =  -3005.31964409     A.U. after   15 cycles

 Excitation energies and oscillator strengths:

 Excited State   1:      Singlet-A      1.8675 eV  663.89 nm  f=0.3686  <S**2>=0.000
     245 -> 248       -0.17182
     246 -> 247        0.69378
     246 <- 247       -0.10962
 This state for optimization and/or second-order correction.
 Total Energy, E(TD-HF/TD-DFT) =  -3005.25101304
 Copying the excited state density for this state as the 1-particle RhoCI density.

 Excited State   2:      Singlet-A      2.1844 eV  567.58 nm  f=0.1274  <S**2>=0.000
     245 -> 247        0.66345
     246 -> 248        0.22139

 Excited State   3:      Singlet-A      2.7033 eV  458.64 nm  f=0.0032  <S**2>=0.000
     244 -> 247        0.68957

 Excited State   4:      Singlet-A      2.8422 eV  436.23 nm  f=0.0061  <S**2>=0.000
     242 -> 247        0.69329

 Excited State   5:      Singlet-A      2.9991 eV  413.41 nm  f=0.0003  <S**2>=0.000
     240 -> 247        0.58186
     240 -> 249        0.16798
     241 -> 247        0.34178

 The electronic state is 1-A.
 Alpha  occ. eigenvalues --  -46.93852 -19.26414 -19.25655 -19.20425 -19.20395
 Alpha  occ. eigenvalues --  -19.19319 -19.17933 -14.41842 -14.41781 -14.39334
 Alpha  occ. eigenvalues --  -14.38870 -10.36743 -10.36662 -10.33620 -10.31049
 Alpha  occ. eigenvalues --  -10.30193 -10.29534 -10.29472 -10.28616 -10.28520
 Alpha  occ. eigenvalues --  -10.28210 -10.27833 -10.27605 -10.27086 -10.27026
 Alpha  occ. eigenvalues --  -10.26884 -10.26813 -10.26350 -10.26070 -10.25924
 Alpha  occ. eigenvalues --  -10.25750 -10.25746 -10.25308 -10.25256 -10.25059
 Alpha  occ. eigenvalues --  -10.25050 -10.24926 -10.24815 -10.24791 -10.24556
 Alpha  occ. eigenvalues --  -10.24469 -10.24024 -10.23968 -10.23837 -10.23782
 Alpha  occ. eigenvalues --  -10.23733 -10.23678 -10.23556 -10.23233 -10.23169
 Alpha  occ. eigenvalues --  -10.22978 -10.22860 -10.22724 -10.22490 -10.22423
 Alpha  occ. eigenvalues --  -10.22381 -10.22268 -10.21993 -10.21902 -10.21808
 Alpha  occ. eigenvalues --  -10.21804 -10.21770 -10.21750 -10.21636 -10.21236
 Alpha  occ. eigenvalues --  -10.21122  -3.15749  -1.88539  -1.88163  -1.87939
 Alpha  occ. eigenvalues --   -1.10836  -1.10164  -1.05585  -1.04421  -1.03304
 Alpha  occ. eigenvalues --   -1.00356  -1.00304  -0.99068  -0.98912  -0.98027
 Alpha  occ. eigenvalues --   -0.87359  -0.84922  -0.84147  -0.84045  -0.83671
 Alpha  occ. eigenvalues --   -0.83149  -0.83040  -0.82051  -0.81400  -0.81394
 Alpha  occ. eigenvalues --   -0.80476  -0.80061  -0.78561  -0.78087  -0.77782
 Alpha  occ. eigenvalues --   -0.76673  -0.76357  -0.75869  -0.75153  -0.74863
 Alpha  occ. eigenvalues --   -0.74394  -0.72995  -0.72331  -0.71787  -0.70884
 Alpha  occ. eigenvalues --   -0.70218  -0.70067  -0.69693  -0.69029  -0.68484
 Alpha  occ. eigenvalues --   -0.68086  -0.67549  -0.66977  -0.65298  -0.64339
 Alpha  occ. eigenvalues --   -0.63815  -0.62323  -0.61957  -0.60901  -0.60334
 Alpha  occ. eigenvalues --   -0.60037  -0.59885  -0.59755  -0.59283  -0.58022
 Alpha  occ. eigenvalues --   -0.57851  -0.57743  -0.57676  -0.56833  -0.54750
 Alpha  occ. eigenvalues --   -0.54524  -0.54198  -0.53683  -0.53218  -0.53050
 Alpha  occ. eigenvalues --   -0.52018  -0.51654  -0.51097  -0.50307  -0.50082
 Alpha  occ. eigenvalues --   -0.49688  -0.49402  -0.49209  -0.48866  -0.48532
 Alpha  occ. eigenvalues --   -0.48447  -0.48032  -0.47518  -0.47243  -0.47176
 Alpha  occ. eigenvalues --   -0.47132  -0.47045  -0.46906  -0.46897  -0.46613
 Alpha  occ. eigenvalues --   -0.46413  -0.45992  -0.45827  -0.45690  -0.45169
 Alpha  occ. eigenvalues --   -0.45126  -0.44922  -0.44843  -0.44663  -0.44493
 Alpha  occ. eigenvalues --   -0.44315  -0.44102  -0.43980  -0.43793  -0.43659
 Alpha  occ. eigenvalues --   -0.43440  -0.42909  -0.42884  -0.42601  -0.42436
 Alpha  occ. eigenvalues --   -0.42205  -0.42018  -0.41882  -0.41795  -0.41725
 Alpha  occ. eigenvalues --   -0.41604  -0.41439  -0.41361  -0.40944  -0.40742
 Alpha  occ. eigenvalues --   -0.40528  -0.40511  -0.40392  -0.40165  -0.40090
 Alpha  occ. eigenvalues --   -0.39797  -0.39411  -0.39093  -0.38838  -0.38554
 Alpha  occ. eigenvalues --   -0.38413  -0.38307  -0.38162  -0.37900  -0.37790
 Alpha  occ. eigenvalues --   -0.37601  -0.37496  -0.37348  -0.37184  -0.37066
 Alpha  occ. eigenvalues --   -0.36978  -0.36850  -0.36530  -0.36414  -0.36328
 Alpha  occ. eigenvalues --   -0.36058  -0.35839  -0.35461  -0.34938  -0.34549
 Alpha  occ. eigenvalues --   -0.34226  -0.34089  -0.33955  -0.33798  -0.33717
 Alpha  occ. eigenvalues --   -0.33486  -0.33223  -0.32622  -0.32603  -0.32218
 Alpha  occ. eigenvalues --   -0.32172  -0.31857  -0.31368  -0.31296  -0.31229
 Alpha  occ. eigenvalues --   -0.30754  -0.30133  -0.29960  -0.29830  -0.29723
 Alpha  occ. eigenvalues --   -0.29240  -0.28619  -0.27786  -0.27055  -0.26308
 Alpha  occ. eigenvalues --   -0.26259  -0.25133  -0.24962  -0.24600  -0.21315
 Alpha  occ. eigenvalues --   -0.19471
 Alpha virt. eigenvalues --   -0.11853  -0.05300  -0.04205  -0.02399  -0.01675
 Alpha virt. eigenvalues --   -0.00077   0.00209   0.00732   0.00790   0.03257
 Alpha virt. eigenvalues --    0.04092   0.04436   0.04736   0.05775   0.06025

 Mulliken charges:
               1
     1  Mg   0.943830
     2  C   -0.007676
     3  C   -0.074110
     4  C   -0.097270
     5  C   -0.066941
     6  N   -0.361536
     7  C    0.044870
     8  C   -0.095488
     9  C   -0.133358
    10  C    0.036494
    11  C    0.018992
    12  C    0.004252
    13  C    0.007774
    14  C    0.207960
    15  O   -0.314239
    16  O   -0.357055
    17  N   -0.480306
    18  C    0.205059
    19  C   -0.179629
    20  C   -0.073244
    21  C    0.181480
    22  C    0.079566
    23  C    0.000328
    24  O   -0.220013
    25  C   -0.017519
    26  N   -0.386897
    27  C    0.060723
    28  C   -0.074307
    29  C   -0.089034
    30  C    0.036724
    31  C   -0.019584
    32  C   -0.058463
    33  C   -0.079530
    34  N   -0.438609
    35  C    0.155225
    36  C   -0.208208
    37  C   -0.051910
    38  C    0.163171
    39  C    0.080386
    40  C    0.155216
    41  O   -0.212700
    42  C   -0.153200
    43  C    0.305686
    44  O   -0.225573
    45  O   -0.388690
    46  C    0.112055
    47  C    0.252173
    48  C   -0.124781
    49  C   -0.278429
    50  C    0.052586
    51  C    0.022610
    52  C   -0.046212
    53  C   -0.036955
    54  C   -0.199003
    55  C    0.011411
    56  C   -0.006367
    57  C   -0.047217
    58  C    0.019166
    59  C   -0.226844
    60  C   -0.005128
    61  C   -0.014348
    62  C   -0.026901
    63  C   -0.040012
    64  C   -0.221836
    65  C   -0.002568
    66  C   -0.011657
    67  H    0.001575
    68  H   -0.005022
    69  H    0.014753
    70  H    0.048125
    71  H    0.054985
    72  H    0.045396
    73  H    0.055679
    74  H    0.043353
    75  H    0.062567
    76  H    0.048945
    77  H    0.074540
    78  H    0.078603
    79  H    0.061318
    80  H    0.061727
    81  H    0.013532
    82  H    0.070504
    83  H    0.055489
    84  H    0.054937
    85  H    0.051155
    86  H    0.036214
    87  H    0.062209
    88  H    0.055806
    89  H    0.048133
    90  H    0.062534
    91  H    0.041097
    92  H    0.042893
    93  H    0.036889
    94  H    0.038056
    95  H    0.063004
    96  H    0.065309
    97  H    0.050411
    98  H    0.086497
    99  H    0.070416
   100  H    0.051802
   101  H    0.058429
   102  H    0.044993
   103  H    0.070543
   104  H    0.029866
   105  H    0.065198
   106  H    0.030159
   107  H    0.060264
   108  H    0.057502
   109  H    0.017321
   110  H    0.027778
   111  H    0.029148
   112  H    0.019566
   113  H    0.021585
   114  H    0.024657
   115  H    0.026443
   116  H    0.042074
   117  H    0.029396
   118  H    0.023219
   119  H    0.025249
   120  H    0.025843
   121  H    0.013283
   122  H    0.025080
   123  H    0.038432
   124  H    0.026254
   125  H    0.029666
   126  H    0.035863
   127  H    0.032438
   128  H    0.009047
   129  H    0.014825
   130  H    0.018686
   131  H    0.028391
   132  H    0.022255
   133  H    0.031960
   134  H    0.035395
   135  H    0.040586
   136  H    0.032089
   137  H    0.033658
   138  H    0.030010
   139  H    0.030836
   140  H    0.034193
 Sum of Mulliken charges =  -0.00000

 Dipole moment (field-independent basis, Debye):
    X=             -0.2320    Y=              6.0220    Z=              1.4665  Tot=              6.2024
 Quadrupole moment (field-independent basis, Debye-Ang):
   XX=           -399.1126   YY=           -435.7356   ZZ=           -385.1285
   XY=             58.7112   XZ=            -11.3939   YZ=             28.8176

 Normal termination of Gaussian 16 at Tue Apr 26 20:29:48 2022.
