 Gaussian 16, Revision A.03,
 Gaussian 16:  ES64L-G16RevA.03 25-Dec-2016

 --------------------------------
 #p wB97XD/Def2SVP td=(nstates=5)
 --------------------------------

 ----------------------------------------------------
 step_1001_chromophore_2 TDDFT with wB97XD functional
 ----------------------------------------------------
 Symbolic Z-matrix:
 Charge =  0 Multiplicity = 1

                         Standard orientation:
 ---------------------------------------------------------------------
 Center     Atomic      Atomic             Coordinates (Angstroms)
 Number     Number       Type             X           Y           Z
 ---------------------------------------------------------------------
      1         12           0        4.500914    1.455178   -0.566692
      2          6           0        5.245556   -1.978230   -0.373590
      3          6           0        2.182539    0.575446   -3.046742
      4          6           0        3.239803    4.439620   -0.332451
      5          6           0        6.364737    1.851632    2.380938
      6          7           0        3.606523   -0.513156   -1.376580
      7          6           0        4.176641   -1.715598   -1.217757
      8          6           0        3.543835   -2.746159   -2.084432
      9          6           0        2.548080   -1.903345   -2.982176
     10          6           0        2.787889   -0.529967   -2.506141
     11          6           0        2.675078   -2.095533   -4.496746
     12          6           0        2.922423   -3.927330   -1.302402
     13          6           0        2.293895   -3.704289    0.079344
     14          6           0        0.986904   -4.517126    0.365365
     15          8           0        0.845036   -5.736241    0.049399
     16          8           0       -0.026674   -3.773278    0.913180
     17          7           0        2.967728    2.450616   -1.641844
     18          6           0        2.237874    1.926637   -2.667712
     19          6           0        1.413538    2.957588   -3.152097
     20          6           0        1.613763    4.107184   -2.316979
     21          6           0        2.580206    3.713081   -1.346396
     22          6           0        0.399168    2.751927   -4.212455
     23          6           0        0.912375    5.401337   -2.549899
     24          8           0        0.141615    5.520445   -3.457270
     25          6           0        1.058903    6.589204   -1.619276
     26          7           0        4.551604    2.903423    1.029201
     27          6           0        4.024064    4.095534    0.783227
     28          6           0        4.525971    5.140624    1.816273
     29          6           0        5.525436    4.296217    2.729914
     30          6           0        5.560271    2.935739    1.957950
     31          6           0        5.167272    6.579069    1.300041
     32          6           0        5.242649    4.024184    4.242912
     33          6           0        6.194391    4.444300    5.399398
     34          7           0        5.702271    0.283471    0.718378
     35          6           0        6.469297    0.590698    1.763789
     36          6           0        7.280930   -0.518288    2.134674
     37          6           0        6.871898   -1.571544    1.292328
     38          6           0        5.894148   -1.026612    0.445567
     39          6           0        8.272726   -0.609224    3.273541
     40          6           0        7.089103   -2.983696    0.971668
     41          8           0        7.839072   -3.867959    1.407655
     42          6           0        5.990614   -3.313481   -0.182597
     43          6           0        6.659325   -3.822437   -1.432035
     44          8           0        6.834115   -5.002401   -1.623963
     45          8           0        7.070804   -2.809610   -2.331610
     46          6           0        7.716178   -3.271210   -3.523171
     47          6           0       -1.288913   -4.474061    1.240253
     48          6           0       -2.387872   -3.424500    1.504104
     49          6           0       -3.120244   -3.064689    2.592654
     50          6           0       -3.172072   -3.861825    3.823224
     51          6           0       -3.855511   -1.720307    2.617257
     52          6           0       -4.845734   -1.380255    1.417132
     53          6           0       -6.266086   -1.836641    1.675323
     54          6           0       -7.279921   -0.704079    1.980538
     55          6           0       -7.534777   -0.498606    3.497526
     56          6           0       -8.531998   -0.931013    1.192117
     57          6           0       -8.461672   -0.493084   -0.317452
     58          6           0       -9.428968    0.685815   -0.619149
     59          6           0      -10.614400    0.175197   -1.563097
     60          6           0      -10.293912    0.253801   -3.036409
     61          6           0      -11.935688    0.740717   -1.099689
     62          6           0      -12.574755    0.082679    0.088295
     63          6           0      -14.073737   -0.144451   -0.065675
     64          6           0      -14.978675    1.025523    0.556758
     65          6           0      -16.272054    0.374699    1.133453
     66          6           0      -15.233352    2.051666   -0.524788
     67          1           0        1.450755    0.276945   -3.800254
     68          1           0        3.043044    5.508819   -0.440025
     69          1           0        7.071338    2.210331    3.133025
     70          1           0        4.179786   -3.194550   -2.847471
     71          1           0        1.502980   -2.088893   -2.736398
     72          1           0        3.242588   -3.009234   -4.672470
     73          1           0        3.117364   -1.211550   -4.955447
     74          1           0        1.668352   -2.269800   -4.876598
     75          1           0        3.735834   -4.650620   -1.270263
     76          1           0        2.138290   -4.301718   -1.960470
     77          1           0        1.885040   -2.700570    0.194485
     78          1           0        2.925444   -4.175727    0.832271
     79          1           0        0.563537    3.543264   -4.943967
     80          1           0       -0.615456    2.641284   -3.832098
     81          1           0        0.488835    1.882263   -4.862703
     82          1           0        2.013155    7.005687   -1.942552
     83          1           0        1.033902    6.207522   -0.597895
     84          1           0        0.225258    7.289735   -1.668666
     85          1           0        3.612800    5.285827    2.393682
     86          1           0        6.457332    4.859766    2.777367
     87          1           0        5.380518    6.311054    0.265276
     88          1           0        5.994724    6.973897    1.890414
     89          1           0        4.447588    7.394675    1.380911
     90          1           0        5.060156    2.959615    4.390570
     91          1           0        4.385227    4.650805    4.485246
     92          1           0        5.639570    4.897429    6.221545
     93          1           0        7.009815    5.129239    5.166383
     94          1           0        6.678210    3.579705    5.852410
     95          1           0        9.230480   -0.300491    2.854413
     96          1           0        8.315756   -1.667902    3.528947
     97          1           0        7.955525    0.001263    4.120181
     98          1           0        5.423623   -4.094003    0.325642
     99          1           0        8.099048   -4.291821   -3.515111
    100          1           0        8.620141   -2.665067   -3.459267
    101          1           0        7.118865   -3.051817   -4.407240
    102          1           0       -1.024023   -5.093277    2.096509
    103          1           0       -1.737614   -5.137759    0.501579
    104          1           0       -2.401320   -2.627608    0.760103
    105          1           0       -2.918917   -3.142800    4.603199
    106          1           0       -2.470558   -4.684845    3.691248
    107          1           0       -4.188305   -4.253001    3.784424
    108          1           0       -3.221777   -0.836950    2.688724
    109          1           0       -4.484541   -1.776329    3.505883
    110          1           0       -4.486752   -2.024864    0.615259
    111          1           0       -4.892846   -0.363857    1.028096
    112          1           0       -6.280337   -2.600459    2.452002
    113          1           0       -6.536387   -2.391588    0.776713
    114          1           0       -6.756382    0.165021    1.580772
    115          1           0       -6.802266   -1.013511    4.119117
    116          1           0       -8.561838   -0.728969    3.781217
    117          1           0       -7.304439    0.543402    3.719859
    118          1           0       -9.398760   -0.462531    1.658752
    119          1           0       -8.715294   -2.005661    1.180741
    120          1           0       -8.560105   -1.334115   -1.003909
    121          1           0       -7.420931   -0.230162   -0.508785
    122          1           0       -8.840906    1.378056   -1.222117
    123          1           0       -9.836278    1.198062    0.252256
    124          1           0      -10.816201   -0.892275   -1.476207
    125          1           0      -11.209793    0.068130   -3.596123
    126          1           0       -9.586003   -0.514547   -3.348021
    127          1           0       -9.912378    1.242341   -3.291544
    128          1           0      -12.472590    0.816845   -2.045244
    129          1           0      -11.817112    1.795644   -0.850611
    130          1           0      -12.447118    0.691848    0.983170
    131          1           0      -12.029801   -0.826562    0.341141
    132          1           0      -14.211991   -1.092293    0.455960
    133          1           0      -14.310386   -0.311014   -1.115503
    134          1           0      -14.313781    1.505858    1.275541
    135          1           0      -16.168266   -0.709797    1.121976
    136          1           0      -17.257744    0.599525    0.726239
    137          1           0      -16.382482    0.824622    2.120065
    138          1           0      -15.176406    3.040682   -0.069151
    139          1           0      -16.185832    1.993814   -1.052074
    140          1           0      -14.503396    2.020067   -1.333524
 ---------------------------------------------------------------------

 SCF Done:  E(RwB97XD) =  -3007.82777121     A.U. after   17 cycles

 Excitation energies and oscillator strengths:

 Excited State   1:      Singlet-A      1.6497 eV  751.54 nm  f=0.3835  <S**2>=0.000
     245 -> 248       -0.18429
     246 -> 247        0.68447
     245 <- 248       -0.11780
 This state for optimization and/or second-order correction.
 Total Energy, E(TD-HF/TD-DFT) =  -3007.76714495
 Copying the excited state density for this state as the 1-particle RhoCI density.

 Excited State   2:      Singlet-A      2.1205 eV  584.68 nm  f=0.1377  <S**2>=0.000
     245 -> 247        0.65440
     246 -> 248        0.24877

 Excited State   3:      Singlet-A      3.1841 eV  389.38 nm  f=0.0039  <S**2>=0.000
     242 -> 247       -0.24223
     244 -> 247        0.63079

 Excited State   4:      Singlet-A      3.4528 eV  359.08 nm  f=0.0054  <S**2>=0.000
     240 -> 247        0.14223
     241 -> 247        0.53596
     242 -> 247       -0.27594
     242 -> 251        0.10505
     244 -> 247       -0.13231
     246 -> 248       -0.18734

 Excited State   5:      Singlet-A      3.4984 eV  354.41 nm  f=0.0010  <S**2>=0.000
     240 -> 247        0.46611
     240 -> 249        0.31776
     242 -> 247        0.29945
     242 -> 251       -0.13873
     244 -> 247        0.10728

 The electronic state is 1-A.
 Alpha  occ. eigenvalues --  -46.96842 -19.30967 -19.30317 -19.25321 -19.25244
 Alpha  occ. eigenvalues --  -19.23976 -19.22638 -14.46948 -14.46892 -14.44337
 Alpha  occ. eigenvalues --  -14.43752 -10.43690 -10.43419 -10.40598 -10.37767
 Alpha  occ. eigenvalues --  -10.36701 -10.35822 -10.35793 -10.35072 -10.35000
 Alpha  occ. eigenvalues --  -10.34452 -10.34133 -10.34038 -10.33519 -10.33409
 Alpha  occ. eigenvalues --  -10.33219 -10.33034 -10.32639 -10.32565 -10.32338
 Alpha  occ. eigenvalues --  -10.32213 -10.32024 -10.31626 -10.31529 -10.31460
 Alpha  occ. eigenvalues --  -10.31393 -10.31281 -10.31182 -10.31165 -10.30884
 Alpha  occ. eigenvalues --  -10.30854 -10.30503 -10.30397 -10.30220 -10.30100
 Alpha  occ. eigenvalues --  -10.30083 -10.29947 -10.29942 -10.29672 -10.29546
 Alpha  occ. eigenvalues --  -10.29480 -10.29135 -10.29075 -10.28838 -10.28774
 Alpha  occ. eigenvalues --  -10.28689 -10.28626 -10.28415 -10.28230 -10.28172
 Alpha  occ. eigenvalues --  -10.28166 -10.28161 -10.28119 -10.28066 -10.27674
 Alpha  occ. eigenvalues --  -10.27488  -3.22630  -1.96163  -1.95786  -1.95562
 Alpha  occ. eigenvalues --   -1.18335  -1.17543  -1.12945  -1.12027  -1.10764
 Alpha  occ. eigenvalues --   -1.07775  -1.07660  -1.06421  -1.06328  -1.05344
 Alpha  occ. eigenvalues --   -0.95076  -0.92592  -0.91786  -0.91677  -0.91277
 Alpha  occ. eigenvalues --   -0.90795  -0.90643  -0.89654  -0.89073  -0.89053
 Alpha  occ. eigenvalues --   -0.88074  -0.87663  -0.86212  -0.85735  -0.85426
 Alpha  occ. eigenvalues --   -0.84311  -0.84012  -0.83537  -0.82829  -0.82511
 Alpha  occ. eigenvalues --   -0.82058  -0.80676  -0.79938  -0.79424  -0.78556
 Alpha  occ. eigenvalues --   -0.77886  -0.77650  -0.77389  -0.76692  -0.76128
 Alpha  occ. eigenvalues --   -0.75665  -0.75135  -0.74529  -0.72887  -0.71870
 Alpha  occ. eigenvalues --   -0.71395  -0.69943  -0.69455  -0.68520  -0.67821
 Alpha  occ. eigenvalues --   -0.67558  -0.67435  -0.67290  -0.66738  -0.65562
 Alpha  occ. eigenvalues --   -0.65412  -0.65338  -0.65281  -0.64483  -0.62098
 Alpha  occ. eigenvalues --   -0.61981  -0.61633  -0.61095  -0.60651  -0.60470
 Alpha  occ. eigenvalues --   -0.59530  -0.59166  -0.58515  -0.57832  -0.57562
 Alpha  occ. eigenvalues --   -0.57088  -0.56880  -0.56600  -0.56260  -0.55944
 Alpha  occ. eigenvalues --   -0.55887  -0.55382  -0.54907  -0.54673  -0.54591
 Alpha  occ. eigenvalues --   -0.54516  -0.54437  -0.54309  -0.54260  -0.54059
 Alpha  occ. eigenvalues --   -0.53782  -0.53353  -0.53170  -0.53029  -0.52517
 Alpha  occ. eigenvalues --   -0.52391  -0.52301  -0.52167  -0.52007  -0.51826
 Alpha  occ. eigenvalues --   -0.51666  -0.51420  -0.51304  -0.51059  -0.50965
 Alpha  occ. eigenvalues --   -0.50737  -0.50182  -0.50163  -0.49847  -0.49727
 Alpha  occ. eigenvalues --   -0.49512  -0.49320  -0.49172  -0.49040  -0.48934
 Alpha  occ. eigenvalues --   -0.48852  -0.48645  -0.48520  -0.48192  -0.47956
 Alpha  occ. eigenvalues --   -0.47766  -0.47737  -0.47599  -0.47440  -0.47314
 Alpha  occ. eigenvalues --   -0.46854  -0.46615  -0.46264  -0.46043  -0.45773
 Alpha  occ. eigenvalues --   -0.45681  -0.45467  -0.45297  -0.44970  -0.44867
 Alpha  occ. eigenvalues --   -0.44730  -0.44623  -0.44488  -0.44273  -0.44182
 Alpha  occ. eigenvalues --   -0.44122  -0.43914  -0.43626  -0.43535  -0.43307
 Alpha  occ. eigenvalues --   -0.43149  -0.42900  -0.42522  -0.41992  -0.41524
 Alpha  occ. eigenvalues --   -0.41285  -0.41090  -0.40960  -0.40790  -0.40716
 Alpha  occ. eigenvalues --   -0.40558  -0.40237  -0.39629  -0.39577  -0.39228
 Alpha  occ. eigenvalues --   -0.39188  -0.38762  -0.38539  -0.38340  -0.38275
 Alpha  occ. eigenvalues --   -0.37746  -0.37096  -0.36971  -0.36834  -0.36542
 Alpha  occ. eigenvalues --   -0.36059  -0.35480  -0.34921  -0.33622  -0.33452
 Alpha  occ. eigenvalues --   -0.32890  -0.31875  -0.31706  -0.31431  -0.26283
 Alpha  occ. eigenvalues --   -0.23679
 Alpha virt. eigenvalues --   -0.07805   0.00129   0.02063   0.03592   0.04875
 Alpha virt. eigenvalues --    0.06710   0.06872   0.07495   0.07546   0.09990
 Alpha virt. eigenvalues --    0.10548   0.11228   0.11334   0.12481   0.12743

 Mulliken charges:
               1
     1  Mg   0.940474
     2  C   -0.010626
     3  C   -0.089582
     4  C   -0.104267
     5  C   -0.086876
     6  N   -0.324943
     7  C    0.017745
     8  C   -0.073586
     9  C   -0.109294
    10  C    0.022298
    11  C    0.030371
    12  C    0.015075
    13  C    0.028583
    14  C    0.196940
    15  O   -0.312407
    16  O   -0.356599
    17  N   -0.447660
    18  C    0.192127
    19  C   -0.167913
    20  C   -0.066671
    21  C    0.172755
    22  C    0.089290
    23  C   -0.006406
    24  O   -0.216157
    25  C   -0.003341
    26  N   -0.356277
    27  C    0.046809
    28  C   -0.054582
    29  C   -0.067551
    30  C    0.028897
    31  C   -0.002964
    32  C   -0.041915
    33  C   -0.064523
    34  N   -0.399830
    35  C    0.150111
    36  C   -0.203403
    37  C   -0.049170
    38  C    0.142919
    39  C    0.091822
    40  C    0.137413
    41  O   -0.202451
    42  C   -0.116141
    43  C    0.283692
    44  O   -0.219979
    45  O   -0.387419
    46  C    0.126514
    47  C    0.265241
    48  C   -0.133799
    49  C   -0.266618
    50  C    0.071476
    51  C    0.045140
    52  C   -0.026269
    53  C   -0.025150
    54  C   -0.165349
    55  C    0.022907
    56  C    0.013051
    57  C   -0.032543
    58  C    0.033777
    59  C   -0.194917
    60  C    0.006954
    61  C    0.001560
    62  C   -0.008778
    63  C   -0.021287
    64  C   -0.192701
    65  C    0.008663
    66  C   -0.000283
    67  H   -0.006354
    68  H   -0.019570
    69  H    0.007862
    70  H    0.034767
    71  H    0.044237
    72  H    0.039319
    73  H    0.049402
    74  H    0.038550
    75  H    0.053828
    76  H    0.041294
    77  H    0.067287
    78  H    0.071768
    79  H    0.056346
    80  H    0.057650
    81  H    0.008082
    82  H    0.065369
    83  H    0.048760
    84  H    0.053676
    85  H    0.039991
    86  H    0.023046
    87  H    0.054089
    88  H    0.051057
    89  H    0.042669
    90  H    0.053182
    91  H    0.032378
    92  H    0.037536
    93  H    0.031002
    94  H    0.031593
    95  H    0.058461
    96  H    0.061476
    97  H    0.045934
    98  H    0.078918
    99  H    0.067041
   100  H    0.047450
   101  H    0.054953
   102  H    0.040124
   103  H    0.066540
   104  H    0.025013
   105  H    0.059872
   106  H    0.022793
   107  H    0.053415
   108  H    0.051775
   109  H    0.001875
   110  H    0.016084
   111  H    0.022384
   112  H    0.007686
   113  H    0.012659
   114  H    0.008207
   115  H    0.019366
   116  H    0.037259
   117  H    0.023927
   118  H    0.011622
   119  H    0.015149
   120  H    0.017572
   121  H    0.002678
   122  H    0.016680
   123  H    0.029440
   124  H    0.010287
   125  H    0.023617
   126  H    0.030374
   127  H    0.025717
   128  H   -0.003247
   129  H    0.004726
   130  H    0.008725
   131  H    0.018837
   132  H    0.013609
   133  H    0.021906
   134  H    0.024129
   135  H    0.034376
   136  H    0.026952
   137  H    0.027806
   138  H    0.024850
   139  H    0.025343
   140  H    0.024446
 Sum of Mulliken charges =  -0.00000

 Dipole moment (field-independent basis, Debye):
    X=             -0.0473    Y=              5.9382    Z=              1.4935  Tot=              6.1233
 Quadrupole moment (field-independent basis, Debye-Ang):
   XX=           -396.8315   YY=           -435.8123   ZZ=           -384.9771
   XY=             57.8731   XZ=            -11.7252   YZ=             28.5259

 Normal termination of Gaussian 16 at Tue Apr 26 20:58:51 2022.
