 Gaussian 16, Revision A.03,
 Gaussian 16:  ES64L-G16RevA.03 25-Dec-2016

 --------------------
 #p ZINDO=(nstates=5)
 --------------------

 -----------------------------
 step_1001_chromophore_2 ZINDO
 -----------------------------
 Symbolic Z-matrix:
 Charge =  0 Multiplicity = 1

                         Standard orientation:
 ---------------------------------------------------------------------
 Center     Atomic      Atomic             Coordinates (Angstroms)
 Number     Number       Type             X           Y           Z
 ---------------------------------------------------------------------
      1         12           0        4.500914    1.455178   -0.566692
      2          6           0        5.245556   -1.978230   -0.373590
      3          6           0        2.182539    0.575446   -3.046742
      4          6           0        3.239803    4.439620   -0.332451
      5          6           0        6.364737    1.851632    2.380938
      6          7           0        3.606523   -0.513156   -1.376580
      7          6           0        4.176641   -1.715598   -1.217757
      8          6           0        3.543835   -2.746159   -2.084432
      9          6           0        2.548080   -1.903345   -2.982176
     10          6           0        2.787889   -0.529967   -2.506141
     11          6           0        2.675078   -2.095533   -4.496746
     12          6           0        2.922423   -3.927330   -1.302402
     13          6           0        2.293895   -3.704289    0.079344
     14          6           0        0.986904   -4.517126    0.365365
     15          8           0        0.845036   -5.736241    0.049399
     16          8           0       -0.026674   -3.773278    0.913180
     17          7           0        2.967728    2.450616   -1.641844
     18          6           0        2.237874    1.926637   -2.667712
     19          6           0        1.413538    2.957588   -3.152097
     20          6           0        1.613763    4.107184   -2.316979
     21          6           0        2.580206    3.713081   -1.346396
     22          6           0        0.399168    2.751927   -4.212455
     23          6           0        0.912375    5.401337   -2.549899
     24          8           0        0.141615    5.520445   -3.457270
     25          6           0        1.058903    6.589204   -1.619276
     26          7           0        4.551604    2.903423    1.029201
     27          6           0        4.024064    4.095534    0.783227
     28          6           0        4.525971    5.140624    1.816273
     29          6           0        5.525436    4.296217    2.729914
     30          6           0        5.560271    2.935739    1.957950
     31          6           0        5.167272    6.579069    1.300041
     32          6           0        5.242649    4.024184    4.242912
     33          6           0        6.194391    4.444300    5.399398
     34          7           0        5.702271    0.283471    0.718378
     35          6           0        6.469297    0.590698    1.763789
     36          6           0        7.280930   -0.518288    2.134674
     37          6           0        6.871898   -1.571544    1.292328
     38          6           0        5.894148   -1.026612    0.445567
     39          6           0        8.272726   -0.609224    3.273541
     40          6           0        7.089103   -2.983696    0.971668
     41          8           0        7.839072   -3.867959    1.407655
     42          6           0        5.990614   -3.313481   -0.182597
     43          6           0        6.659325   -3.822437   -1.432035
     44          8           0        6.834115   -5.002401   -1.623963
     45          8           0        7.070804   -2.809610   -2.331610
     46          6           0        7.716178   -3.271210   -3.523171
     47          6           0       -1.288913   -4.474061    1.240253
     48          6           0       -2.387872   -3.424500    1.504104
     49          6           0       -3.120244   -3.064689    2.592654
     50          6           0       -3.172072   -3.861825    3.823224
     51          6           0       -3.855511   -1.720307    2.617257
     52          6           0       -4.845734   -1.380255    1.417132
     53          6           0       -6.266086   -1.836641    1.675323
     54          6           0       -7.279921   -0.704079    1.980538
     55          6           0       -7.534777   -0.498606    3.497526
     56          6           0       -8.531998   -0.931013    1.192117
     57          6           0       -8.461672   -0.493084   -0.317452
     58          6           0       -9.428968    0.685815   -0.619149
     59          6           0      -10.614400    0.175197   -1.563097
     60          6           0      -10.293912    0.253801   -3.036409
     61          6           0      -11.935688    0.740717   -1.099689
     62          6           0      -12.574755    0.082679    0.088295
     63          6           0      -14.073737   -0.144451   -0.065675
     64          6           0      -14.978675    1.025523    0.556758
     65          6           0      -16.272054    0.374699    1.133453
     66          6           0      -15.233352    2.051666   -0.524788
     67          1           0        1.450755    0.276945   -3.800254
     68          1           0        3.043044    5.508819   -0.440025
     69          1           0        7.071338    2.210331    3.133025
     70          1           0        4.179786   -3.194550   -2.847471
     71          1           0        1.502980   -2.088893   -2.736398
     72          1           0        3.242588   -3.009234   -4.672470
     73          1           0        3.117364   -1.211550   -4.955447
     74          1           0        1.668352   -2.269800   -4.876598
     75          1           0        3.735834   -4.650620   -1.270263
     76          1           0        2.138290   -4.301718   -1.960470
     77          1           0        1.885040   -2.700570    0.194485
     78          1           0        2.925444   -4.175727    0.832271
     79          1           0        0.563537    3.543264   -4.943967
     80          1           0       -0.615456    2.641284   -3.832098
     81          1           0        0.488835    1.882263   -4.862703
     82          1           0        2.013155    7.005687   -1.942552
     83          1           0        1.033902    6.207522   -0.597895
     84          1           0        0.225258    7.289735   -1.668666
     85          1           0        3.612800    5.285827    2.393682
     86          1           0        6.457332    4.859766    2.777367
     87          1           0        5.380518    6.311054    0.265276
     88          1           0        5.994724    6.973897    1.890414
     89          1           0        4.447588    7.394675    1.380911
     90          1           0        5.060156    2.959615    4.390570
     91          1           0        4.385227    4.650805    4.485246
     92          1           0        5.639570    4.897429    6.221545
     93          1           0        7.009815    5.129239    5.166383
     94          1           0        6.678210    3.579705    5.852410
     95          1           0        9.230480   -0.300491    2.854413
     96          1           0        8.315756   -1.667902    3.528947
     97          1           0        7.955525    0.001263    4.120181
     98          1           0        5.423623   -4.094003    0.325642
     99          1           0        8.099048   -4.291821   -3.515111
    100          1           0        8.620141   -2.665067   -3.459267
    101          1           0        7.118865   -3.051817   -4.407240
    102          1           0       -1.024023   -5.093277    2.096509
    103          1           0       -1.737614   -5.137759    0.501579
    104          1           0       -2.401320   -2.627608    0.760103
    105          1           0       -2.918917   -3.142800    4.603199
    106          1           0       -2.470558   -4.684845    3.691248
    107          1           0       -4.188305   -4.253001    3.784424
    108          1           0       -3.221777   -0.836950    2.688724
    109          1           0       -4.484541   -1.776329    3.505883
    110          1           0       -4.486752   -2.024864    0.615259
    111          1           0       -4.892846   -0.363857    1.028096
    112          1           0       -6.280337   -2.600459    2.452002
    113          1           0       -6.536387   -2.391588    0.776713
    114          1           0       -6.756382    0.165021    1.580772
    115          1           0       -6.802266   -1.013511    4.119117
    116          1           0       -8.561838   -0.728969    3.781217
    117          1           0       -7.304439    0.543402    3.719859
    118          1           0       -9.398760   -0.462531    1.658752
    119          1           0       -8.715294   -2.005661    1.180741
    120          1           0       -8.560105   -1.334115   -1.003909
    121          1           0       -7.420931   -0.230162   -0.508785
    122          1           0       -8.840906    1.378056   -1.222117
    123          1           0       -9.836278    1.198062    0.252256
    124          1           0      -10.816201   -0.892275   -1.476207
    125          1           0      -11.209793    0.068130   -3.596123
    126          1           0       -9.586003   -0.514547   -3.348021
    127          1           0       -9.912378    1.242341   -3.291544
    128          1           0      -12.472590    0.816845   -2.045244
    129          1           0      -11.817112    1.795644   -0.850611
    130          1           0      -12.447118    0.691848    0.983170
    131          1           0      -12.029801   -0.826562    0.341141
    132          1           0      -14.211991   -1.092293    0.455960
    133          1           0      -14.310386   -0.311014   -1.115503
    134          1           0      -14.313781    1.505858    1.275541
    135          1           0      -16.168266   -0.709797    1.121976
    136          1           0      -17.257744    0.599525    0.726239
    137          1           0      -16.382482    0.824622    2.120065
    138          1           0      -15.176406    3.040682   -0.069151
    139          1           0      -16.185832    1.993814   -1.052074
    140          1           0      -14.503396    2.020067   -1.333524
 ---------------------------------------------------------------------

 SCF Done:  E(RZINDO/S) =  -474.410775761     A.U. after   20 cycles

 Excitation energies and oscillator strengths:

 Excited State   1:      Singlet-A      1.2238 eV 1013.07 nm  f=0.6017  <S**2>=0.000
     175 ->178         0.19951
     176 ->177         0.66108
 This state for optimization and/or second-order correction.
 Total Energy, E(CIS/TDA) =  -474.365800341
 Copying the excited state density for this state as the 1-particle RhoCI density.

 Excited State   2:      Singlet-A      1.8544 eV  668.58 nm  f=0.0935  <S**2>=0.000
     175 ->177         0.58570
     176 ->178        -0.36825

 Excited State   3:      Singlet-A      2.9290 eV  423.30 nm  f=0.0041  <S**2>=0.000
     170 ->177        -0.12369
     170 ->181        -0.15360
     170 ->186        -0.10223
     172 ->177        -0.10761
     176 ->180         0.62215

 Excited State   4:      Singlet-A      2.9301 eV  423.15 nm  f=0.0047  <S**2>=0.000
     170 ->177         0.25339
     170 ->178         0.13825
     170 ->179         0.18831
     170 ->181         0.31912
     170 ->182        -0.10522
     170 ->184        -0.10564
     170 ->186         0.21043
     170 ->187        -0.15380
     173 ->177        -0.14036
     176 ->180         0.31678

 Excited State   5:      Singlet-A      2.9871 eV  415.07 nm  f=0.0062  <S**2>=0.000
     168 ->177         0.31715
     168 ->179        -0.42581
     168 ->181         0.15034
     168 ->186        -0.17655
     169 ->177         0.14644
     169 ->179        -0.19098

 The electronic state is 1-A.
 Alpha  occ. eigenvalues --   -1.86493  -1.83340  -1.80908  -1.73184  -1.71922
 Alpha  occ. eigenvalues --   -1.69946  -1.66410  -1.62563  -1.61652  -1.57741
 Alpha  occ. eigenvalues --   -1.55004  -1.51836  -1.48715  -1.48260  -1.46524
 Alpha  occ. eigenvalues --   -1.46476  -1.42301  -1.40808  -1.39879  -1.37615
 Alpha  occ. eigenvalues --   -1.35619  -1.34633  -1.33010  -1.31005  -1.28368
 Alpha  occ. eigenvalues --   -1.28023  -1.27752  -1.23338  -1.21968  -1.19026
 Alpha  occ. eigenvalues --   -1.17042  -1.16912  -1.15829  -1.14218  -1.12977
 Alpha  occ. eigenvalues --   -1.12919  -1.10641  -1.09697  -1.06054  -1.04765
 Alpha  occ. eigenvalues --   -1.02464  -1.01776  -0.99461  -0.97797  -0.95804
 Alpha  occ. eigenvalues --   -0.95546  -0.94496  -0.94093  -0.93147  -0.92475
 Alpha  occ. eigenvalues --   -0.92211  -0.91381  -0.90393  -0.89024  -0.88901
 Alpha  occ. eigenvalues --   -0.86203  -0.84623  -0.83854  -0.83185  -0.80684
 Alpha  occ. eigenvalues --   -0.79510  -0.77812  -0.77485  -0.77054  -0.76681
 Alpha  occ. eigenvalues --   -0.76065  -0.75295  -0.74508  -0.73596  -0.73271
 Alpha  occ. eigenvalues --   -0.73123  -0.72882  -0.71886  -0.71593  -0.70912
 Alpha  occ. eigenvalues --   -0.70190  -0.69053  -0.68755  -0.68573  -0.67865
 Alpha  occ. eigenvalues --   -0.67616  -0.67177  -0.66642  -0.66290  -0.65728
 Alpha  occ. eigenvalues --   -0.65552  -0.65202  -0.65111  -0.64335  -0.64214
 Alpha  occ. eigenvalues --   -0.63374  -0.63190  -0.62821  -0.62554  -0.62315
 Alpha  occ. eigenvalues --   -0.62075  -0.61583  -0.61221  -0.60664  -0.60377
 Alpha  occ. eigenvalues --   -0.60307  -0.59613  -0.59419  -0.59150  -0.58887
 Alpha  occ. eigenvalues --   -0.58046  -0.57521  -0.57058  -0.56464  -0.56192
 Alpha  occ. eigenvalues --   -0.55981  -0.55729  -0.55063  -0.54967  -0.54748
 Alpha  occ. eigenvalues --   -0.54500  -0.54149  -0.53846  -0.53783  -0.53339
 Alpha  occ. eigenvalues --   -0.53249  -0.52896  -0.52688  -0.51927  -0.51844
 Alpha  occ. eigenvalues --   -0.51202  -0.50938  -0.50529  -0.50075  -0.49771
 Alpha  occ. eigenvalues --   -0.49601  -0.49432  -0.49048  -0.48935  -0.48550
 Alpha  occ. eigenvalues --   -0.48180  -0.48098  -0.47945  -0.47921  -0.47643
 Alpha  occ. eigenvalues --   -0.47534  -0.47413  -0.47303  -0.46876  -0.46707
 Alpha  occ. eigenvalues --   -0.46094  -0.46066  -0.45845  -0.45683  -0.45614
 Alpha  occ. eigenvalues --   -0.45429  -0.45137  -0.45095  -0.44499  -0.44123
 Alpha  occ. eigenvalues --   -0.43322  -0.42988  -0.42961  -0.42264  -0.42057
 Alpha  occ. eigenvalues --   -0.41996  -0.41470  -0.41069  -0.39610  -0.38594
 Alpha  occ. eigenvalues --   -0.38503  -0.37540  -0.35777  -0.35635  -0.34488
 Alpha  occ. eigenvalues --   -0.33640  -0.32967  -0.32487  -0.31886  -0.26937
 Alpha  occ. eigenvalues --   -0.22532
 Alpha virt. eigenvalues --   -0.09400  -0.02399  -0.00801  -0.00204   0.01407
 Alpha virt. eigenvalues --    0.01466   0.02308   0.02491   0.04258   0.04599
 Alpha virt. eigenvalues --    0.05746   0.06577   0.07088   0.07838   0.07851

 Mulliken charges:
               1
     1  Mg   0.434319
     2  C   -0.061912
     3  C   -0.066317
     4  C   -0.085165
     5  C   -0.073407
     6  N   -0.300112
     7  C    0.153366
     8  C   -0.001659
     9  C   -0.002125
    10  C    0.126733
    11  C   -0.050412
    12  C   -0.018213
    13  C    0.007494
    14  C    0.449612
    15  O   -0.540287
    16  O   -0.259483
    17  N   -0.329124
    18  C    0.106525
    19  C    0.040072
    20  C   -0.056787
    21  C    0.130171
    22  C   -0.038885
    23  C    0.325179
    24  O   -0.523972
    25  C   -0.031726
    26  N   -0.262652
    27  C    0.145660
    28  C   -0.010895
    29  C   -0.004259
    30  C    0.116506
    31  C   -0.057627
    32  C   -0.031314
    33  C   -0.057583
    34  N   -0.322068
    35  C    0.118374
    36  C    0.029213
    37  C   -0.054977
    38  C    0.114983
    39  C   -0.040199
    40  C    0.325412
    41  O   -0.507080
    42  C    0.047473
    43  C    0.479350
    44  O   -0.496133
    45  O   -0.279438
    46  C    0.074755
    47  C    0.112872
    48  C   -0.112766
    49  C    0.008399
    50  C   -0.045944
    51  C   -0.022833
    52  C   -0.042498
    53  C   -0.034363
    54  C   -0.005740
    55  C   -0.059408
    56  C   -0.029618
    57  C   -0.042348
    58  C   -0.035021
    59  C   -0.017845
    60  C   -0.050901
    61  C   -0.030099
    62  C   -0.027988
    63  C   -0.040966
    64  C   -0.007083
    65  C   -0.060388
    66  C   -0.053545
    67  H    0.026502
    68  H    0.016021
    69  H    0.027309
    70  H    0.037701
    71  H    0.033798
    72  H    0.023651
    73  H    0.030159
    74  H    0.020326
    75  H    0.033243
    76  H    0.028391
    77  H    0.048925
    78  H    0.061078
    79  H    0.038073
    80  H    0.041538
    81  H    0.009872
    82  H    0.045104
    83  H    0.027016
    84  H    0.039461
    85  H    0.030694
    86  H    0.028444
    87  H    0.032539
    88  H    0.032516
    89  H    0.021869
    90  H    0.030658
    91  H    0.016376
    92  H    0.018275
    93  H    0.020736
    94  H    0.014409
    95  H    0.038663
    96  H    0.036850
    97  H    0.030124
    98  H    0.066363
    99  H    0.055922
   100  H    0.027397
   101  H    0.040563
   102  H    0.041894
   103  H    0.058109
   104  H    0.017621
   105  H    0.040311
   106  H    0.026150
   107  H    0.039009
   108  H    0.030028
   109  H    0.012903
   110  H    0.013750
   111  H    0.030362
   112  H    0.014815
   113  H    0.010522
   114  H    0.019658
   115  H    0.018407
   116  H    0.027056
   117  H    0.012083
   118  H    0.015438
   119  H    0.012491
   120  H    0.022671
   121  H    0.010587
   122  H    0.016517
   123  H    0.031461
   124  H    0.012684
   125  H    0.013498
   126  H    0.018250
   127  H    0.017322
   128  H    0.016839
   129  H    0.005157
   130  H    0.013729
   131  H    0.016280
   132  H    0.009663
   133  H    0.022068
   134  H    0.031215
   135  H    0.025780
   136  H    0.023154
   137  H    0.013260
   138  H    0.010598
   139  H    0.018223
   140  H    0.016568
 Sum of Mulliken charges =  -0.00000

 Dipole moment (field-independent basis, Debye):
    X=              0.2430    Y=              8.3174    Z=              2.3570  Tot=              8.6483
 N-N= 4.355602439091D+03 E-N= 0.000000000000D+00  KE=-9.384938125419D+03
 Leave Link  601 at Tue Apr 26 21:11:34 2022, MaxMem=  6710886400 cpu:               0.8 elap:               0.0
 (Enter /sw/apps/gaussian-16.0/g16/l9999.exe)
 1\1\GINC-BP1-COMPUTE140\SP\RZINDO CIS\STO-3G\C55H74Mg1N4O6\OF15641\26-
 Apr-2022\0\\#p ZINDO=(nstates=5)\\step_1001_chromophore_2 ZINDO\\0,1\M
 g,0,3.35,0.76,44.079\C,0,6.354,2.589,43.975\C,0,1.872,3.546,42.545\C,0
 ,0.731,-1.064,43.474\C,0,5.283,-2.04,44.941\N,0,4.107,2.706,43.094\C,0
 ,5.319,3.234,43.314\C,0,5.421,4.622,42.788\C,0,3.939,4.948,42.335\C,0,
 3.225,3.711,42.696\C,0,3.328,6.236,42.896\C,0,6.518,4.806,41.713\C,0,6
 .854,3.67,40.738\C,0,7.158,4.111,39.267\O,0,7.874,5.116,38.978\O,0,6.5

 Normal termination of Gaussian 16 at Tue Apr 26 21:11:34 2022.
