 Gaussian 16, Revision A.03,
 Gaussian 16:  ES64L-G16RevA.03 25-Dec-2016

 ------------------------------
 #p blyp/Def2SVP td=(nstates=5)
 ------------------------------

 --------------------------------------------------
 step_701_chromophore_26 TDDFT with blyp functional
 --------------------------------------------------
 Symbolic Z-matrix:
 Charge =  0 Multiplicity = 1

                         Standard orientation:
 ---------------------------------------------------------------------
 Center     Atomic      Atomic             Coordinates (Angstroms)
 Number     Number       Type             X           Y           Z
 ---------------------------------------------------------------------
      1         12           0       -3.833009    1.168284    0.688457
      2          6           0       -4.965454   -1.978015   -0.300809
      3          6           0       -2.294790   -0.247625    3.350263
      4          6           0       -2.384941    4.143659    1.307883
      5          6           0       -4.929184    2.497101   -2.454413
      6          7           0       -3.430405   -0.940731    1.201151
      7          6           0       -4.134515   -2.038514    0.799816
      8          6           0       -3.718043   -3.325074    1.683755
      9          6           0       -3.075061   -2.614573    2.940802
     10          6           0       -2.886146   -1.169648    2.439522
     11          6           0       -4.019953   -2.672849    4.221704
     12          6           0       -2.688729   -4.436148    1.104164
     13          6           0       -1.499013   -4.040131    0.100903
     14          6           0       -0.103358   -4.445977    0.547863
     15          8           0        0.259683   -4.770914    1.680030
     16          8           0        0.692523   -4.456067   -0.520842
     17          7           0       -2.528163    1.875733    2.186998
     18          6           0       -2.059313    1.118212    3.220497
     19          6           0       -1.284823    1.915887    4.057585
     20          6           0       -1.188498    3.227656    3.395477
     21          6           0       -2.072960    3.146539    2.232966
     22          6           0       -0.597863    1.468731    5.255536
     23          6           0       -0.363474    4.398846    3.862139
     24          8           0        0.216512    4.398785    4.930907
     25          6           0       -0.324053    5.711488    3.212649
     26          7           0       -3.632428    3.129139   -0.446859
     27          6           0       -3.075883    4.203445    0.072287
     28          6           0       -3.404857    5.492414   -0.825377
     29          6           0       -4.186076    4.900021   -2.054795
     30          6           0       -4.282127    3.466358   -1.620369
     31          6           0       -4.062554    6.761016   -0.187478
     32          6           0       -3.536097    5.112888   -3.448775
     33          6           0       -3.940680    6.423117   -4.175886
     34          7           0       -4.729141    0.424377   -1.032059
     35          6           0       -5.219092    1.083616   -2.165246
     36          6           0       -5.962964    0.111305   -2.964933
     37          6           0       -5.898288   -1.129520   -2.258875
     38          6           0       -5.098378   -0.884318   -1.125348
     39          6           0       -6.581886    0.359548   -4.341484
     40          6           0       -6.229274   -2.565412   -2.326263
     41          8           0       -6.792453   -3.217378   -3.207411
     42          6           0       -5.650984   -3.188196   -1.024588
     43          6           0       -6.838205   -3.699320   -0.227099
     44          8           0       -6.895151   -4.798739    0.259561
     45          8           0       -7.767373   -2.740781   -0.114947
     46          6           0       -8.955484   -3.204046    0.597467
     47          6           0        2.003465   -4.951838   -0.454527
     48          6           0        2.847164   -3.734615   -0.723459
     49          6           0        3.323460   -3.159235   -1.867400
     50          6           0        2.703497   -3.575762   -3.219001
     51          6           0        4.452437   -2.173136   -1.856933
     52          6           0        4.076934   -0.708309   -2.197713
     53          6           0        5.320292    0.157286   -2.648662
     54          6           0        5.500866    1.416884   -1.791422
     55          6           0        4.969487    2.700398   -2.497677
     56          6           0        6.933895    1.502404   -1.148527
     57          6           0        7.197171    0.551505    0.083668
     58          6           0        8.481227   -0.410334   -0.087581
     59          6           0        9.176898   -0.823950    1.208595
     60          6           0        8.371382   -1.752717    2.071820
     61          6           0       10.504266   -1.391802    0.826313
     62          6           0       11.674315   -0.403767    1.114278
     63          6           0       12.860265   -0.502702    0.148765
     64          6           0       12.731159    0.498137   -0.988716
     65          6           0       13.361109    0.053751   -2.307348
     66          6           0       13.218396    1.936570   -0.562625
     67          1           0       -2.033833   -0.659619    4.327817
     68          1           0       -2.054600    5.152658    1.562187
     69          1           0       -5.322883    2.796099   -3.428463
     70          1           0       -4.670708   -3.821938    1.863515
     71          1           0       -2.073922   -3.018497    3.093409
     72          1           0       -4.447117   -1.702817    4.476819
     73          1           0       -3.440719   -2.898004    5.116823
     74          1           0       -4.843225   -3.373017    4.080616
     75          1           0       -3.265749   -5.284628    0.737861
     76          1           0       -2.204188   -4.765493    2.023589
     77          1           0       -1.462274   -2.951495    0.052244
     78          1           0       -1.670767   -4.480792   -0.880597
     79          1           0        0.426654    1.170878    5.031494
     80          1           0       -1.103155    0.602781    5.684134
     81          1           0       -0.482348    2.159242    6.090289
     82          1           0       -1.310253    6.167397    3.300309
     83          1           0       -0.182187    5.556240    2.142517
     84          1           0        0.475481    6.354154    3.580680
     85          1           0       -2.436702    5.858303   -1.166184
     86          1           0       -5.206293    5.284834   -2.055861
     87          1           0       -4.243155    6.536834    0.863827
     88          1           0       -4.983584    7.139559   -0.631687
     89          1           0       -3.345819    7.578822   -0.259040
     90          1           0       -3.660592    4.292462   -4.156283
     91          1           0       -2.463792    5.160153   -3.261279
     92          1           0       -4.844321    6.880253   -3.771854
     93          1           0       -4.144733    6.139081   -5.207932
     94          1           0       -3.056566    7.057354   -4.111689
     95          1           0       -7.368560   -0.365364   -4.552696
     96          1           0       -5.867589    0.192399   -5.147633
     97          1           0       -6.930546    1.390144   -4.409548
     98          1           0       -5.070789   -4.010021   -1.443877
     99          1           0       -9.524456   -2.362609    0.993019
    100          1           0       -8.728222   -3.828922    1.461269
    101          1           0       -9.580463   -3.688146   -0.153104
    102          1           0        2.190924   -5.686754   -1.237358
    103          1           0        2.156355   -5.394442    0.529635
    104          1           0        3.404705   -3.278313    0.093589
    105          1           0        2.073916   -4.459088   -3.117351
    106          1           0        3.490187   -3.800820   -3.939554
    107          1           0        2.046899   -2.754380   -3.505882
    108          1           0        5.107890   -2.370297   -2.705422
    109          1           0        5.029031   -2.201255   -0.932766
    110          1           0        3.656229   -0.358790   -1.255084
    111          1           0        3.311445   -0.668399   -2.972102
    112          1           0        5.171267    0.471233   -3.681768
    113          1           0        6.201791   -0.483057   -2.679157
    114          1           0        4.900184    1.209588   -0.905197
    115          1           0        4.639171    3.344466   -1.683037
    116          1           0        4.178481    2.560257   -3.233916
    117          1           0        5.840226    3.204078   -2.916214
    118          1           0        7.185163    2.493878   -0.773697
    119          1           0        7.621404    1.333529   -1.977488
    120          1           0        6.358569   -0.120096    0.267022
    121          1           0        7.195134    1.132465    1.005175
    122          1           0        9.171529    0.111503   -0.750884
    123          1           0        8.091476   -1.285244   -0.607132
    124          1           0        9.253210    0.050178    1.854780
    125          1           0        7.328092   -1.812534    1.759979
    126          1           0        8.336420   -1.462501    3.121844
    127          1           0        8.751339   -2.773781    2.028503
    128          1           0       10.480816   -1.878887   -0.149036
    129          1           0       10.729920   -2.137073    1.588411
    130          1           0       12.194408   -0.658689    2.037349
    131          1           0       11.390490    0.645906    1.182029
    132          1           0       12.813175   -1.511683   -0.261192
    133          1           0       13.817344   -0.344529    0.646323
    134          1           0       11.712157    0.695504   -1.319164
    135          1           0       12.703035    0.067927   -3.175985
    136          1           0       13.726636   -0.959365   -2.138507
    137          1           0       14.336894    0.496097   -2.510307
    138          1           0       14.155523    2.146586   -1.077977
    139          1           0       13.321308    2.020873    0.520012
    140          1           0       12.408256    2.611823   -0.837964
 ---------------------------------------------------------------------

 SCF Done:  E(RB-LYP) =  -3007.38903027     A.U. after   21 cycles

 Excitation energies and oscillator strengths:

 Excited State   1:      Singlet-A      1.5411 eV  804.51 nm  f=0.0054  <S**2>=0.000
     244 -> 247        0.38643
     245 -> 247        0.57870
     246 -> 247       -0.12279
 This state for optimization and/or second-order correction.
 Total Energy, E(TD-HF/TD-DFT) =  -3007.33239549
 Copying the excited state density for this state as the 1-particle RhoCI density.

 Excited State   2:      Singlet-A      1.8171 eV  682.31 nm  f=0.1975  <S**2>=0.000
     243 -> 247       -0.32342
     244 -> 248        0.14426
     245 -> 247        0.16937
     246 -> 247        0.58536
     246 <- 247       -0.12091

 Excited State   3:      Singlet-A      1.8745 eV  661.43 nm  f=0.1030  <S**2>=0.000
     243 -> 247        0.56194
     244 -> 247        0.22503
     246 -> 247        0.33986

 Excited State   4:      Singlet-A      2.0330 eV  609.85 nm  f=0.0785  <S**2>=0.000
     243 -> 247       -0.27566
     244 -> 247        0.49441
     245 -> 247       -0.32398
     246 -> 248       -0.23444

 Excited State   5:      Singlet-A      2.2036 eV  562.66 nm  f=0.0001  <S**2>=0.000
     241 -> 247        0.70681

 The electronic state is 1-A.
 Alpha  occ. eigenvalues --  -46.28345 -18.83048 -18.82151 -18.76768 -18.76673
 Alpha  occ. eigenvalues --  -18.75769 -18.74232 -14.03713 -14.03560 -14.01183
 Alpha  occ. eigenvalues --  -14.00925 -10.04211 -10.04091  -9.99673  -9.98680
 Alpha  occ. eigenvalues --   -9.98036  -9.98004  -9.97229  -9.96972  -9.96932
 Alpha  occ. eigenvalues --   -9.96773  -9.96242  -9.96121  -9.95092  -9.95000
 Alpha  occ. eigenvalues --   -9.94531  -9.94491  -9.94405  -9.94069  -9.94050
 Alpha  occ. eigenvalues --   -9.94010  -9.93858  -9.93769  -9.93765  -9.93309
 Alpha  occ. eigenvalues --   -9.93244  -9.93230  -9.93195  -9.93176  -9.92991
 Alpha  occ. eigenvalues --   -9.92906  -9.92659  -9.92533  -9.92527  -9.92444
 Alpha  occ. eigenvalues --   -9.92183  -9.92066  -9.91815  -9.91726  -9.91542
 Alpha  occ. eigenvalues --   -9.91486  -9.91339  -9.91334  -9.91287  -9.91273
 Alpha  occ. eigenvalues --   -9.91244  -9.91224  -9.91218  -9.91159  -9.91016
 Alpha  occ. eigenvalues --   -9.90837  -9.90799  -9.90566  -9.90561  -9.90291
 Alpha  occ. eigenvalues --   -9.90166  -2.92802  -1.73208  -1.72725  -1.72488
 Alpha  occ. eigenvalues --   -0.99803  -0.99681  -0.91259  -0.91014  -0.90778
 Alpha  occ. eigenvalues --   -0.90055  -0.86931  -0.86144  -0.85736  -0.84707
 Alpha  occ. eigenvalues --   -0.75415  -0.73557  -0.73329  -0.73189  -0.72052
 Alpha  occ. eigenvalues --   -0.71871  -0.71330  -0.71035  -0.70273  -0.69861
 Alpha  occ. eigenvalues --   -0.69264  -0.69136  -0.67884  -0.67549  -0.67065
 Alpha  occ. eigenvalues --   -0.66360  -0.66030  -0.65197  -0.64989  -0.64668
 Alpha  occ. eigenvalues --   -0.64108  -0.62723  -0.61948  -0.61442  -0.61182
 Alpha  occ. eigenvalues --   -0.60474  -0.60063  -0.59895  -0.59717  -0.59043
 Alpha  occ. eigenvalues --   -0.58433  -0.57668  -0.57159  -0.55667  -0.54997
 Alpha  occ. eigenvalues --   -0.53895  -0.53605  -0.52783  -0.52288  -0.51915
 Alpha  occ. eigenvalues --   -0.51254  -0.51065  -0.50818  -0.50517  -0.49944
 Alpha  occ. eigenvalues --   -0.49749  -0.49435  -0.49174  -0.48490  -0.46442
 Alpha  occ. eigenvalues --   -0.45978  -0.45872  -0.45465  -0.45113  -0.44766
 Alpha  occ. eigenvalues --   -0.44165  -0.43938  -0.43144  -0.42965  -0.42813
 Alpha  occ. eigenvalues --   -0.42065  -0.41764  -0.41569  -0.41519  -0.41306
 Alpha  occ. eigenvalues --   -0.40927  -0.40592  -0.40418  -0.40408  -0.40349
 Alpha  occ. eigenvalues --   -0.39898  -0.39756  -0.39477  -0.39293  -0.39089
 Alpha  occ. eigenvalues --   -0.38950  -0.38690  -0.38510  -0.38351  -0.38195
 Alpha  occ. eigenvalues --   -0.37757  -0.37729  -0.37625  -0.37594  -0.37131
 Alpha  occ. eigenvalues --   -0.36826  -0.36753  -0.36545  -0.36433  -0.36385
 Alpha  occ. eigenvalues --   -0.36102  -0.36018  -0.35914  -0.35788  -0.35485
 Alpha  occ. eigenvalues --   -0.35350  -0.35216  -0.35008  -0.34723  -0.34673
 Alpha  occ. eigenvalues --   -0.34489  -0.34403  -0.34256  -0.34089  -0.34033
 Alpha  occ. eigenvalues --   -0.33814  -0.33746  -0.33697  -0.33473  -0.33387
 Alpha  occ. eigenvalues --   -0.33131  -0.32906  -0.32682  -0.32489  -0.32235
 Alpha  occ. eigenvalues --   -0.32017  -0.31631  -0.31523  -0.31486  -0.31194
 Alpha  occ. eigenvalues --   -0.31161  -0.31067  -0.30906  -0.30712  -0.30580
 Alpha  occ. eigenvalues --   -0.30551  -0.30446  -0.30293  -0.29678  -0.29629
 Alpha  occ. eigenvalues --   -0.29548  -0.29461  -0.29156  -0.29111  -0.28586
 Alpha  occ. eigenvalues --   -0.28455  -0.28434  -0.28373  -0.28115  -0.27776
 Alpha  occ. eigenvalues --   -0.27681  -0.27470  -0.26762  -0.26731  -0.26437
 Alpha  occ. eigenvalues --   -0.26227  -0.26199  -0.25939  -0.25770  -0.25729
 Alpha  occ. eigenvalues --   -0.25407  -0.24804  -0.24572  -0.24315  -0.24152
 Alpha  occ. eigenvalues --   -0.23568  -0.22577  -0.22322  -0.21660  -0.20526
 Alpha  occ. eigenvalues --   -0.19965  -0.19812  -0.18681  -0.17464  -0.17458
 Alpha  occ. eigenvalues --   -0.16259
 Alpha virt. eigenvalues --   -0.11868  -0.07049  -0.06045  -0.04435  -0.03819
 Alpha virt. eigenvalues --   -0.02677  -0.02075  -0.01928  -0.01875   0.00173
 Alpha virt. eigenvalues --    0.00839   0.01898   0.02111   0.02377   0.02965

 Mulliken charges:
               1
     1  Mg   0.678637
     2  C   -0.028924
     3  C   -0.080664
     4  C   -0.064319
     5  C   -0.047330
     6  N   -0.215661
     7  C   -0.091084
     8  C    0.042708
     9  C   -0.020282
    10  C    0.031740
    11  C    0.112898
    12  C    0.093624
    13  C    0.107479
    14  C    0.052210
    15  O   -0.201309
    16  O   -0.227013
    17  N   -0.277596
    18  C    0.159180
    19  C   -0.114362
    20  C    0.040561
    21  C    0.158115
    22  C    0.177771
    23  C   -0.112031
    24  O   -0.170611
    25  C    0.158595
    26  N   -0.170694
    27  C   -0.047392
    28  C    0.034607
    29  C    0.063135
    30  C   -0.000743
    31  C    0.117313
    32  C    0.059300
    33  C    0.073207
    34  N   -0.274200
    35  C    0.085038
    36  C   -0.178626
    37  C    0.068682
    38  C    0.120871
    39  C    0.158410
    40  C   -0.064854
    41  O   -0.140345
    42  C    0.091763
    43  C    0.090041
    44  O   -0.162093
    45  O   -0.248516
    46  C    0.215384
    47  C    0.354408
    48  C   -0.094795
    49  C   -0.180149
    50  C    0.132691
    51  C    0.136374
    52  C    0.038978
    53  C    0.116560
    54  C   -0.083743
    55  C    0.124867
    56  C    0.089345
    57  C    0.049710
    58  C    0.058013
    59  C   -0.058783
    60  C    0.111483
    61  C    0.169957
    62  C    0.055835
    63  C    0.116086
    64  C   -0.129664
    65  C    0.117017
    66  C    0.103334
    67  H   -0.060027
    68  H   -0.091924
    69  H   -0.062438
    70  H   -0.021689
    71  H    0.001627
    72  H   -0.009545
    73  H   -0.000823
    74  H    0.003271
    75  H   -0.006263
    76  H   -0.004686
    77  H    0.023312
    78  H    0.008776
    79  H    0.004555
    80  H   -0.026552
    81  H    0.001338
    82  H    0.017921
    83  H   -0.014271
    84  H   -0.006034
    85  H   -0.022275
    86  H   -0.021701
    87  H   -0.004316
    88  H   -0.001461
    89  H   -0.010506
    90  H   -0.012417
    91  H   -0.026924
    92  H   -0.004101
    93  H   -0.006250
    94  H    0.000903
    95  H    0.005716
    96  H    0.003493
    97  H   -0.006837
    98  H   -0.005191
    99  H    0.006106
   100  H    0.023601
   101  H    0.022607
   102  H   -0.003122
   103  H   -0.008344
   104  H   -0.049518
   105  H   -0.017319
   106  H   -0.004461
   107  H    0.011470
   108  H   -0.032944
   109  H   -0.016378
   110  H   -0.020491
   111  H   -0.026907
   112  H   -0.040528
   113  H   -0.031726
   114  H   -0.033841
   115  H   -0.018568
   116  H   -0.005267
   117  H   -0.017960
   118  H   -0.037817
   119  H   -0.031107
   120  H   -0.028376
   121  H   -0.032272
   122  H   -0.019473
   123  H   -0.024649
   124  H   -0.041514
   125  H   -0.030095
   126  H   -0.017617
   127  H   -0.025766
   128  H   -0.023994
   129  H   -0.047338
   130  H   -0.037561
   131  H   -0.029855
   132  H   -0.038049
   133  H   -0.034938
   134  H   -0.034295
   135  H   -0.004682
   136  H   -0.042776
   137  H   -0.032126
   138  H   -0.011156
   139  H   -0.017578
   140  H   -0.018199
 Sum of Mulliken charges =  -0.00000

 Dipole moment (field-independent basis, Debye):
    X=             -0.8986    Y=              4.1858    Z=             -1.9482  Tot=              4.7036
 Quadrupole moment (field-independent basis, Debye-Ang):
   XX=           -393.5420   YY=           -408.2394   ZZ=           -417.9092
   XY=            -38.1858   XZ=            -22.8463   YZ=            -24.2024

 Normal termination of Gaussian 16 at Sat Apr 30 11:57:55 2022.
