 Gaussian 16, Revision A.03,
 Gaussian 16:  ES64L-G16RevA.03 25-Dec-2016

 -----------------------------------
 #p cam-b3lyp/Def2SVP td=(nstates=5)
 -----------------------------------

 -------------------------------------------------------
 step_701_chromophore_26 TDDFT with cam-b3lyp functional
 -------------------------------------------------------
 Symbolic Z-matrix:
 Charge =  0 Multiplicity = 1

                         Standard orientation:
 ---------------------------------------------------------------------
 Center     Atomic      Atomic             Coordinates (Angstroms)
 Number     Number       Type             X           Y           Z
 ---------------------------------------------------------------------
      1         12           0       -3.833009    1.168284    0.688457
      2          6           0       -4.965454   -1.978015   -0.300809
      3          6           0       -2.294790   -0.247625    3.350263
      4          6           0       -2.384941    4.143659    1.307883
      5          6           0       -4.929184    2.497101   -2.454413
      6          7           0       -3.430405   -0.940731    1.201151
      7          6           0       -4.134515   -2.038514    0.799816
      8          6           0       -3.718043   -3.325074    1.683755
      9          6           0       -3.075061   -2.614573    2.940802
     10          6           0       -2.886146   -1.169648    2.439522
     11          6           0       -4.019953   -2.672849    4.221704
     12          6           0       -2.688729   -4.436148    1.104164
     13          6           0       -1.499013   -4.040131    0.100903
     14          6           0       -0.103358   -4.445977    0.547863
     15          8           0        0.259683   -4.770914    1.680030
     16          8           0        0.692523   -4.456067   -0.520842
     17          7           0       -2.528163    1.875733    2.186998
     18          6           0       -2.059313    1.118212    3.220497
     19          6           0       -1.284823    1.915887    4.057585
     20          6           0       -1.188498    3.227656    3.395477
     21          6           0       -2.072960    3.146539    2.232966
     22          6           0       -0.597863    1.468731    5.255536
     23          6           0       -0.363474    4.398846    3.862139
     24          8           0        0.216512    4.398785    4.930907
     25          6           0       -0.324053    5.711488    3.212649
     26          7           0       -3.632428    3.129139   -0.446859
     27          6           0       -3.075883    4.203445    0.072287
     28          6           0       -3.404857    5.492414   -0.825377
     29          6           0       -4.186076    4.900021   -2.054795
     30          6           0       -4.282127    3.466358   -1.620369
     31          6           0       -4.062554    6.761016   -0.187478
     32          6           0       -3.536097    5.112888   -3.448775
     33          6           0       -3.940680    6.423117   -4.175886
     34          7           0       -4.729141    0.424377   -1.032059
     35          6           0       -5.219092    1.083616   -2.165246
     36          6           0       -5.962964    0.111305   -2.964933
     37          6           0       -5.898288   -1.129520   -2.258875
     38          6           0       -5.098378   -0.884318   -1.125348
     39          6           0       -6.581886    0.359548   -4.341484
     40          6           0       -6.229274   -2.565412   -2.326263
     41          8           0       -6.792453   -3.217378   -3.207411
     42          6           0       -5.650984   -3.188196   -1.024588
     43          6           0       -6.838205   -3.699320   -0.227099
     44          8           0       -6.895151   -4.798739    0.259561
     45          8           0       -7.767373   -2.740781   -0.114947
     46          6           0       -8.955484   -3.204046    0.597467
     47          6           0        2.003465   -4.951838   -0.454527
     48          6           0        2.847164   -3.734615   -0.723459
     49          6           0        3.323460   -3.159235   -1.867400
     50          6           0        2.703497   -3.575762   -3.219001
     51          6           0        4.452437   -2.173136   -1.856933
     52          6           0        4.076934   -0.708309   -2.197713
     53          6           0        5.320292    0.157286   -2.648662
     54          6           0        5.500866    1.416884   -1.791422
     55          6           0        4.969487    2.700398   -2.497677
     56          6           0        6.933895    1.502404   -1.148527
     57          6           0        7.197171    0.551505    0.083668
     58          6           0        8.481227   -0.410334   -0.087581
     59          6           0        9.176898   -0.823950    1.208595
     60          6           0        8.371382   -1.752717    2.071820
     61          6           0       10.504266   -1.391802    0.826313
     62          6           0       11.674315   -0.403767    1.114278
     63          6           0       12.860265   -0.502702    0.148765
     64          6           0       12.731159    0.498137   -0.988716
     65          6           0       13.361109    0.053751   -2.307348
     66          6           0       13.218396    1.936570   -0.562625
     67          1           0       -2.033833   -0.659619    4.327817
     68          1           0       -2.054600    5.152658    1.562187
     69          1           0       -5.322883    2.796099   -3.428463
     70          1           0       -4.670708   -3.821938    1.863515
     71          1           0       -2.073922   -3.018497    3.093409
     72          1           0       -4.447117   -1.702817    4.476819
     73          1           0       -3.440719   -2.898004    5.116823
     74          1           0       -4.843225   -3.373017    4.080616
     75          1           0       -3.265749   -5.284628    0.737861
     76          1           0       -2.204188   -4.765493    2.023589
     77          1           0       -1.462274   -2.951495    0.052244
     78          1           0       -1.670767   -4.480792   -0.880597
     79          1           0        0.426654    1.170878    5.031494
     80          1           0       -1.103155    0.602781    5.684134
     81          1           0       -0.482348    2.159242    6.090289
     82          1           0       -1.310253    6.167397    3.300309
     83          1           0       -0.182187    5.556240    2.142517
     84          1           0        0.475481    6.354154    3.580680
     85          1           0       -2.436702    5.858303   -1.166184
     86          1           0       -5.206293    5.284834   -2.055861
     87          1           0       -4.243155    6.536834    0.863827
     88          1           0       -4.983584    7.139559   -0.631687
     89          1           0       -3.345819    7.578822   -0.259040
     90          1           0       -3.660592    4.292462   -4.156283
     91          1           0       -2.463792    5.160153   -3.261279
     92          1           0       -4.844321    6.880253   -3.771854
     93          1           0       -4.144733    6.139081   -5.207932
     94          1           0       -3.056566    7.057354   -4.111689
     95          1           0       -7.368560   -0.365364   -4.552696
     96          1           0       -5.867589    0.192399   -5.147633
     97          1           0       -6.930546    1.390144   -4.409548
     98          1           0       -5.070789   -4.010021   -1.443877
     99          1           0       -9.524456   -2.362609    0.993019
    100          1           0       -8.728222   -3.828922    1.461269
    101          1           0       -9.580463   -3.688146   -0.153104
    102          1           0        2.190924   -5.686754   -1.237358
    103          1           0        2.156355   -5.394442    0.529635
    104          1           0        3.404705   -3.278313    0.093589
    105          1           0        2.073916   -4.459088   -3.117351
    106          1           0        3.490187   -3.800820   -3.939554
    107          1           0        2.046899   -2.754380   -3.505882
    108          1           0        5.107890   -2.370297   -2.705422
    109          1           0        5.029031   -2.201255   -0.932766
    110          1           0        3.656229   -0.358790   -1.255084
    111          1           0        3.311445   -0.668399   -2.972102
    112          1           0        5.171267    0.471233   -3.681768
    113          1           0        6.201791   -0.483057   -2.679157
    114          1           0        4.900184    1.209588   -0.905197
    115          1           0        4.639171    3.344466   -1.683037
    116          1           0        4.178481    2.560257   -3.233916
    117          1           0        5.840226    3.204078   -2.916214
    118          1           0        7.185163    2.493878   -0.773697
    119          1           0        7.621404    1.333529   -1.977488
    120          1           0        6.358569   -0.120096    0.267022
    121          1           0        7.195134    1.132465    1.005175
    122          1           0        9.171529    0.111503   -0.750884
    123          1           0        8.091476   -1.285244   -0.607132
    124          1           0        9.253210    0.050178    1.854780
    125          1           0        7.328092   -1.812534    1.759979
    126          1           0        8.336420   -1.462501    3.121844
    127          1           0        8.751339   -2.773781    2.028503
    128          1           0       10.480816   -1.878887   -0.149036
    129          1           0       10.729920   -2.137073    1.588411
    130          1           0       12.194408   -0.658689    2.037349
    131          1           0       11.390490    0.645906    1.182029
    132          1           0       12.813175   -1.511683   -0.261192
    133          1           0       13.817344   -0.344529    0.646323
    134          1           0       11.712157    0.695504   -1.319164
    135          1           0       12.703035    0.067927   -3.175985
    136          1           0       13.726636   -0.959365   -2.138507
    137          1           0       14.336894    0.496097   -2.510307
    138          1           0       14.155523    2.146586   -1.077977
    139          1           0       13.321308    2.020873    0.520012
    140          1           0       12.408256    2.611823   -0.837964
 ---------------------------------------------------------------------

 SCF Done:  E(RCAM-B3LYP) =  -3007.18137283     A.U. after   18 cycles

 Excitation energies and oscillator strengths:

 Excited State   1:      Singlet-A      1.7217 eV  720.14 nm  f=0.3623  <S**2>=0.000
     245 -> 248        0.18858
     246 -> 247        0.68375
     245 <- 248        0.11053
 This state for optimization and/or second-order correction.
 Total Energy, E(TD-HF/TD-DFT) =  -3007.11810249
 Copying the excited state density for this state as the 1-particle RhoCI density.

 Excited State   2:      Singlet-A      2.2149 eV  559.76 nm  f=0.1261  <S**2>=0.000
     245 -> 247        0.64483
     246 -> 248       -0.27416

 Excited State   3:      Singlet-A      3.1465 eV  394.04 nm  f=0.0051  <S**2>=0.000
     244 -> 247        0.68684

 Excited State   4:      Singlet-A      3.3126 eV  374.28 nm  f=0.0002  <S**2>=0.000
     241 -> 247        0.58794
     241 -> 248        0.12767
     241 -> 249        0.22276
     241 -> 251        0.23365

 Excited State   5:      Singlet-A      3.3834 eV  366.44 nm  f=0.0015  <S**2>=0.000
     242 -> 247        0.66810
     246 -> 248        0.13148

 The electronic state is 1-A.
 Alpha  occ. eigenvalues --  -46.90011 -19.25921 -19.24909 -19.19790 -19.19522
 Alpha  occ. eigenvalues --  -19.18885 -19.17532 -14.42657 -14.42499 -14.39535
 Alpha  occ. eigenvalues --  -14.39422 -10.39430 -10.39367 -10.34945 -10.33870
 Alpha  occ. eigenvalues --  -10.31975 -10.31945 -10.31922 -10.31692 -10.31262
 Alpha  occ. eigenvalues --  -10.31252 -10.30757 -10.30353 -10.29500 -10.29213
 Alpha  occ. eigenvalues --  -10.28733 -10.28641 -10.28438 -10.28331 -10.28299
 Alpha  occ. eigenvalues --  -10.28108 -10.28028 -10.27994 -10.27947 -10.27807
 Alpha  occ. eigenvalues --  -10.27277 -10.27234 -10.27216 -10.27123 -10.27105
 Alpha  occ. eigenvalues --  -10.27031 -10.26996 -10.26453 -10.26159 -10.26059
 Alpha  occ. eigenvalues --  -10.25827 -10.25659 -10.25530 -10.25358 -10.25341
 Alpha  occ. eigenvalues --  -10.25280 -10.25232 -10.25209 -10.25184 -10.25042
 Alpha  occ. eigenvalues --  -10.25000 -10.24932 -10.24907 -10.24791 -10.24617
 Alpha  occ. eigenvalues --  -10.24483 -10.24404 -10.24193 -10.24163 -10.23843
 Alpha  occ. eigenvalues --  -10.23750  -3.18360  -1.93245  -1.92839  -1.92635
 Alpha  occ. eigenvalues --   -1.18214  -1.18200  -1.09785  -1.09116  -1.08931
 Alpha  occ. eigenvalues --   -1.07888  -1.04727  -1.03899  -1.03414  -1.02137
 Alpha  occ. eigenvalues --   -0.92461  -0.90383  -0.90108  -0.89951  -0.88844
 Alpha  occ. eigenvalues --   -0.88515  -0.87990  -0.87659  -0.86809  -0.86467
 Alpha  occ. eigenvalues --   -0.85699  -0.85516  -0.84141  -0.83652  -0.83201
 Alpha  occ. eigenvalues --   -0.82419  -0.82181  -0.81178  -0.80824  -0.80561
 Alpha  occ. eigenvalues --   -0.79857  -0.78253  -0.77584  -0.77126  -0.76643
 Alpha  occ. eigenvalues --   -0.75787  -0.75403  -0.75244  -0.75026  -0.74260
 Alpha  occ. eigenvalues --   -0.73486  -0.72651  -0.72105  -0.70519  -0.69596
 Alpha  occ. eigenvalues --   -0.68492  -0.68206  -0.67309  -0.66631  -0.66017
 Alpha  occ. eigenvalues --   -0.65462  -0.65180  -0.64748  -0.64605  -0.63762
 Alpha  occ. eigenvalues --   -0.63496  -0.63407  -0.63095  -0.62377  -0.60196
 Alpha  occ. eigenvalues --   -0.59499  -0.59295  -0.59009  -0.58646  -0.58304
 Alpha  occ. eigenvalues --   -0.57657  -0.57304  -0.56468  -0.56276  -0.56041
 Alpha  occ. eigenvalues --   -0.55285  -0.54923  -0.54571  -0.54351  -0.54204
 Alpha  occ. eigenvalues --   -0.53597  -0.53351  -0.53222  -0.53089  -0.52912
 Alpha  occ. eigenvalues --   -0.52781  -0.52612  -0.52292  -0.51882  -0.51577
 Alpha  occ. eigenvalues --   -0.51518  -0.51333  -0.51078  -0.50941  -0.50529
 Alpha  occ. eigenvalues --   -0.50179  -0.50096  -0.49925  -0.49680  -0.49354
 Alpha  occ. eigenvalues --   -0.49075  -0.49025  -0.48855  -0.48829  -0.48589
 Alpha  occ. eigenvalues --   -0.48441  -0.48271  -0.48126  -0.47927  -0.47745
 Alpha  occ. eigenvalues --   -0.47594  -0.47256  -0.47063  -0.46716  -0.46549
 Alpha  occ. eigenvalues --   -0.46498  -0.46290  -0.46239  -0.45976  -0.45796
 Alpha  occ. eigenvalues --   -0.45755  -0.45580  -0.45415  -0.45354  -0.44980
 Alpha  occ. eigenvalues --   -0.44876  -0.44465  -0.44243  -0.44089  -0.43744
 Alpha  occ. eigenvalues --   -0.43654  -0.43181  -0.43059  -0.42978  -0.42837
 Alpha  occ. eigenvalues --   -0.42695  -0.42571  -0.42419  -0.42372  -0.42180
 Alpha  occ. eigenvalues --   -0.41940  -0.41699  -0.41506  -0.41179  -0.40982
 Alpha  occ. eigenvalues --   -0.40924  -0.40715  -0.40422  -0.40371  -0.39751
 Alpha  occ. eigenvalues --   -0.39625  -0.39475  -0.39429  -0.39155  -0.38732
 Alpha  occ. eigenvalues --   -0.38600  -0.38282  -0.37764  -0.37559  -0.37505
 Alpha  occ. eigenvalues --   -0.37173  -0.37145  -0.36952  -0.36665  -0.36418
 Alpha  occ. eigenvalues --   -0.36047  -0.35764  -0.35061  -0.34890  -0.34593
 Alpha  occ. eigenvalues --   -0.34468  -0.34366  -0.33369  -0.31259  -0.30664
 Alpha  occ. eigenvalues --   -0.30004  -0.29624  -0.29503  -0.29216  -0.24196
 Alpha  occ. eigenvalues --   -0.21666
 Alpha virt. eigenvalues --   -0.09077  -0.01993   0.00409   0.01217   0.02571
 Alpha virt. eigenvalues --    0.04789   0.05190   0.05956   0.06170   0.06915
 Alpha virt. eigenvalues --    0.07823   0.08041   0.08329   0.08974   0.09171

 Mulliken charges:
               1
     1  Mg   0.807943
     2  C   -0.061161
     3  C   -0.093135
     4  C   -0.093940
     5  C   -0.052781
     6  N   -0.283716
     7  C   -0.049560
     8  C    0.008638
     9  C   -0.081980
    10  C    0.054736
    11  C    0.055000
    12  C    0.041505
    13  C    0.034937
    14  C    0.139885
    15  O   -0.247592
    16  O   -0.290317
    17  N   -0.370365
    18  C    0.165565
    19  C   -0.116725
    20  C   -0.031094
    21  C    0.193080
    22  C    0.117581
    23  C   -0.031419
    24  O   -0.209911
    25  C    0.071440
    26  N   -0.238691
    27  C   -0.018309
    28  C   -0.015472
    29  C    0.008310
    30  C    0.016275
    31  C    0.057691
    32  C    0.003803
    33  C    0.012871
    34  N   -0.361615
    35  C    0.088239
    36  C   -0.179226
    37  C   -0.005425
    38  C    0.153200
    39  C    0.109460
    40  C    0.035009
    41  O   -0.180106
    42  C    0.016106
    43  C    0.178619
    44  O   -0.203617
    45  O   -0.309413
    46  C    0.173295
    47  C    0.307844
    48  C   -0.115320
    49  C   -0.197063
    50  C    0.076311
    51  C    0.078750
    52  C   -0.009168
    53  C    0.056455
    54  C   -0.137444
    55  C    0.066575
    56  C    0.038235
    57  C    0.002145
    58  C    0.014275
    59  C   -0.117106
    60  C    0.051713
    61  C    0.102695
    62  C    0.007230
    63  C    0.058170
    64  C   -0.188277
    65  C    0.056206
    66  C    0.046308
    67  H   -0.024102
    68  H   -0.055817
    69  H   -0.027249
    70  H    0.012359
    71  H    0.036828
    72  H    0.016409
    73  H    0.023093
    74  H    0.027994
    75  H    0.023177
    76  H    0.028725
    77  H    0.053490
    78  H    0.041805
    79  H    0.033935
    80  H   -0.000666
    81  H    0.033922
    82  H    0.043850
    83  H    0.014359
    84  H    0.030784
    85  H    0.011873
    86  H    0.012659
    87  H    0.020013
    88  H    0.023460
    89  H    0.013834
    90  H    0.017097
    91  H    0.001252
    92  H    0.017504
    93  H    0.017562
    94  H    0.023032
    95  H    0.032541
    96  H    0.029035
    97  H    0.015001
    98  H    0.036005
    99  H    0.030045
   100  H    0.048032
   101  H    0.045131
   102  H    0.024649
   103  H    0.029979
   104  H   -0.018445
   105  H    0.007670
   106  H    0.018597
   107  H    0.034174
   108  H   -0.004314
   109  H    0.009035
   110  H    0.006407
   111  H    0.000918
   112  H   -0.009734
   113  H   -0.003979
   114  H   -0.003068
   115  H    0.005496
   116  H    0.018563
   117  H    0.005262
   118  H   -0.007572
   119  H   -0.004411
   120  H   -0.006644
   121  H   -0.003581
   122  H    0.004953
   123  H    0.000030
   124  H   -0.008042
   125  H   -0.006329
   126  H    0.007740
   127  H   -0.000215
   128  H    0.005011
   129  H   -0.013940
   130  H   -0.007609
   131  H   -0.004599
   132  H   -0.009580
   133  H   -0.004783
   134  H   -0.003604
   135  H    0.019484
   136  H   -0.016554
   137  H   -0.007087
   138  H    0.011813
   139  H    0.005419
   140  H    0.005764
 Sum of Mulliken charges =  -0.00000

 Dipole moment (field-independent basis, Debye):
    X=             -0.7420    Y=              4.5868    Z=             -1.5735  Tot=              4.9056
 Quadrupole moment (field-independent basis, Debye-Ang):
   XX=           -393.8627   YY=           -404.7670   ZZ=           -416.2782
   XY=            -39.0985   XZ=            -24.2439   YZ=            -24.3183

 Normal termination of Gaussian 16 at Sat Apr 30 10:45:10 2022.
