 Gaussian 16, Revision A.03,
 Gaussian 16:  ES64L-G16RevA.03 25-Dec-2016

 ---------------------------------
 #p PBE1PBE/Def2SVP td=(nstates=5)
 ---------------------------------

 -----------------------------------------------------
 step_701_chromophore_26 TDDFT with PBE1PBE functional
 -----------------------------------------------------
 Symbolic Z-matrix:
 Charge =  0 Multiplicity = 1

                         Standard orientation:
 ---------------------------------------------------------------------
 Center     Atomic      Atomic             Coordinates (Angstroms)
 Number     Number       Type             X           Y           Z
 ---------------------------------------------------------------------
      1         12           0       -3.833009    1.168284    0.688457
      2          6           0       -4.965454   -1.978015   -0.300809
      3          6           0       -2.294790   -0.247625    3.350263
      4          6           0       -2.384941    4.143659    1.307883
      5          6           0       -4.929184    2.497101   -2.454413
      6          7           0       -3.430405   -0.940731    1.201151
      7          6           0       -4.134515   -2.038514    0.799816
      8          6           0       -3.718043   -3.325074    1.683755
      9          6           0       -3.075061   -2.614573    2.940802
     10          6           0       -2.886146   -1.169648    2.439522
     11          6           0       -4.019953   -2.672849    4.221704
     12          6           0       -2.688729   -4.436148    1.104164
     13          6           0       -1.499013   -4.040131    0.100903
     14          6           0       -0.103358   -4.445977    0.547863
     15          8           0        0.259683   -4.770914    1.680030
     16          8           0        0.692523   -4.456067   -0.520842
     17          7           0       -2.528163    1.875733    2.186998
     18          6           0       -2.059313    1.118212    3.220497
     19          6           0       -1.284823    1.915887    4.057585
     20          6           0       -1.188498    3.227656    3.395477
     21          6           0       -2.072960    3.146539    2.232966
     22          6           0       -0.597863    1.468731    5.255536
     23          6           0       -0.363474    4.398846    3.862139
     24          8           0        0.216512    4.398785    4.930907
     25          6           0       -0.324053    5.711488    3.212649
     26          7           0       -3.632428    3.129139   -0.446859
     27          6           0       -3.075883    4.203445    0.072287
     28          6           0       -3.404857    5.492414   -0.825377
     29          6           0       -4.186076    4.900021   -2.054795
     30          6           0       -4.282127    3.466358   -1.620369
     31          6           0       -4.062554    6.761016   -0.187478
     32          6           0       -3.536097    5.112888   -3.448775
     33          6           0       -3.940680    6.423117   -4.175886
     34          7           0       -4.729141    0.424377   -1.032059
     35          6           0       -5.219092    1.083616   -2.165246
     36          6           0       -5.962964    0.111305   -2.964933
     37          6           0       -5.898288   -1.129520   -2.258875
     38          6           0       -5.098378   -0.884318   -1.125348
     39          6           0       -6.581886    0.359548   -4.341484
     40          6           0       -6.229274   -2.565412   -2.326263
     41          8           0       -6.792453   -3.217378   -3.207411
     42          6           0       -5.650984   -3.188196   -1.024588
     43          6           0       -6.838205   -3.699320   -0.227099
     44          8           0       -6.895151   -4.798739    0.259561
     45          8           0       -7.767373   -2.740781   -0.114947
     46          6           0       -8.955484   -3.204046    0.597467
     47          6           0        2.003465   -4.951838   -0.454527
     48          6           0        2.847164   -3.734615   -0.723459
     49          6           0        3.323460   -3.159235   -1.867400
     50          6           0        2.703497   -3.575762   -3.219001
     51          6           0        4.452437   -2.173136   -1.856933
     52          6           0        4.076934   -0.708309   -2.197713
     53          6           0        5.320292    0.157286   -2.648662
     54          6           0        5.500866    1.416884   -1.791422
     55          6           0        4.969487    2.700398   -2.497677
     56          6           0        6.933895    1.502404   -1.148527
     57          6           0        7.197171    0.551505    0.083668
     58          6           0        8.481227   -0.410334   -0.087581
     59          6           0        9.176898   -0.823950    1.208595
     60          6           0        8.371382   -1.752717    2.071820
     61          6           0       10.504266   -1.391802    0.826313
     62          6           0       11.674315   -0.403767    1.114278
     63          6           0       12.860265   -0.502702    0.148765
     64          6           0       12.731159    0.498137   -0.988716
     65          6           0       13.361109    0.053751   -2.307348
     66          6           0       13.218396    1.936570   -0.562625
     67          1           0       -2.033833   -0.659619    4.327817
     68          1           0       -2.054600    5.152658    1.562187
     69          1           0       -5.322883    2.796099   -3.428463
     70          1           0       -4.670708   -3.821938    1.863515
     71          1           0       -2.073922   -3.018497    3.093409
     72          1           0       -4.447117   -1.702817    4.476819
     73          1           0       -3.440719   -2.898004    5.116823
     74          1           0       -4.843225   -3.373017    4.080616
     75          1           0       -3.265749   -5.284628    0.737861
     76          1           0       -2.204188   -4.765493    2.023589
     77          1           0       -1.462274   -2.951495    0.052244
     78          1           0       -1.670767   -4.480792   -0.880597
     79          1           0        0.426654    1.170878    5.031494
     80          1           0       -1.103155    0.602781    5.684134
     81          1           0       -0.482348    2.159242    6.090289
     82          1           0       -1.310253    6.167397    3.300309
     83          1           0       -0.182187    5.556240    2.142517
     84          1           0        0.475481    6.354154    3.580680
     85          1           0       -2.436702    5.858303   -1.166184
     86          1           0       -5.206293    5.284834   -2.055861
     87          1           0       -4.243155    6.536834    0.863827
     88          1           0       -4.983584    7.139559   -0.631687
     89          1           0       -3.345819    7.578822   -0.259040
     90          1           0       -3.660592    4.292462   -4.156283
     91          1           0       -2.463792    5.160153   -3.261279
     92          1           0       -4.844321    6.880253   -3.771854
     93          1           0       -4.144733    6.139081   -5.207932
     94          1           0       -3.056566    7.057354   -4.111689
     95          1           0       -7.368560   -0.365364   -4.552696
     96          1           0       -5.867589    0.192399   -5.147633
     97          1           0       -6.930546    1.390144   -4.409548
     98          1           0       -5.070789   -4.010021   -1.443877
     99          1           0       -9.524456   -2.362609    0.993019
    100          1           0       -8.728222   -3.828922    1.461269
    101          1           0       -9.580463   -3.688146   -0.153104
    102          1           0        2.190924   -5.686754   -1.237358
    103          1           0        2.156355   -5.394442    0.529635
    104          1           0        3.404705   -3.278313    0.093589
    105          1           0        2.073916   -4.459088   -3.117351
    106          1           0        3.490187   -3.800820   -3.939554
    107          1           0        2.046899   -2.754380   -3.505882
    108          1           0        5.107890   -2.370297   -2.705422
    109          1           0        5.029031   -2.201255   -0.932766
    110          1           0        3.656229   -0.358790   -1.255084
    111          1           0        3.311445   -0.668399   -2.972102
    112          1           0        5.171267    0.471233   -3.681768
    113          1           0        6.201791   -0.483057   -2.679157
    114          1           0        4.900184    1.209588   -0.905197
    115          1           0        4.639171    3.344466   -1.683037
    116          1           0        4.178481    2.560257   -3.233916
    117          1           0        5.840226    3.204078   -2.916214
    118          1           0        7.185163    2.493878   -0.773697
    119          1           0        7.621404    1.333529   -1.977488
    120          1           0        6.358569   -0.120096    0.267022
    121          1           0        7.195134    1.132465    1.005175
    122          1           0        9.171529    0.111503   -0.750884
    123          1           0        8.091476   -1.285244   -0.607132
    124          1           0        9.253210    0.050178    1.854780
    125          1           0        7.328092   -1.812534    1.759979
    126          1           0        8.336420   -1.462501    3.121844
    127          1           0        8.751339   -2.773781    2.028503
    128          1           0       10.480816   -1.878887   -0.149036
    129          1           0       10.729920   -2.137073    1.588411
    130          1           0       12.194408   -0.658689    2.037349
    131          1           0       11.390490    0.645906    1.182029
    132          1           0       12.813175   -1.511683   -0.261192
    133          1           0       13.817344   -0.344529    0.646323
    134          1           0       11.712157    0.695504   -1.319164
    135          1           0       12.703035    0.067927   -3.175985
    136          1           0       13.726636   -0.959365   -2.138507
    137          1           0       14.336894    0.496097   -2.510307
    138          1           0       14.155523    2.146586   -1.077977
    139          1           0       13.321308    2.020873    0.520012
    140          1           0       12.408256    2.611823   -0.837964
 ---------------------------------------------------------------------

 SCF Done:  E(RPBE1PBE) =  -3005.37067064     A.U. after   16 cycles

 Excitation energies and oscillator strengths:

 Excited State   1:      Singlet-A      1.8768 eV  660.61 nm  f=0.3507  <S**2>=0.000
     245 -> 248        0.18242
     246 -> 247        0.69016
     246 <- 247       -0.10128
 This state for optimization and/or second-order correction.
 Total Energy, E(TD-HF/TD-DFT) =  -3005.30169898
 Copying the excited state density for this state as the 1-particle RhoCI density.

 Excited State   2:      Singlet-A      2.2283 eV  556.41 nm  f=0.1192  <S**2>=0.000
     245 -> 247        0.65349
     246 -> 248       -0.25188

 Excited State   3:      Singlet-A      2.6984 eV  459.47 nm  f=0.0005  <S**2>=0.000
     243 -> 247        0.19579
     244 -> 247        0.65303

 Excited State   4:      Singlet-A      2.8369 eV  437.04 nm  f=0.0066  <S**2>=0.000
     243 -> 247        0.65634
     244 -> 247       -0.20535

 Excited State   5:      Singlet-A      2.9457 eV  420.90 nm  f=0.0045  <S**2>=0.000
     240 -> 247       -0.30627
     240 -> 249       -0.11787
     241 -> 247        0.60507

 The electronic state is 1-A.
 Alpha  occ. eigenvalues --  -46.93382 -19.26565 -19.25590 -19.20083 -19.19814
 Alpha  occ. eigenvalues --  -19.19220 -19.17628 -14.42155 -14.41950 -14.39281
 Alpha  occ. eigenvalues --  -14.38993 -10.36427 -10.36414 -10.32213 -10.30880
 Alpha  occ. eigenvalues --  -10.29518 -10.29334 -10.29304 -10.29170 -10.29114
 Alpha  occ. eigenvalues --  -10.29072 -10.28297 -10.28238 -10.27006 -10.26943
 Alpha  occ. eigenvalues --  -10.26592 -10.26437 -10.26216 -10.26161 -10.26127
 Alpha  occ. eigenvalues --  -10.25898 -10.25826 -10.25657 -10.25468 -10.25290
 Alpha  occ. eigenvalues --  -10.24942 -10.24921 -10.24805 -10.24714 -10.24710
 Alpha  occ. eigenvalues --  -10.24692 -10.24437 -10.23916 -10.23618 -10.23592
 Alpha  occ. eigenvalues --  -10.23377 -10.23229 -10.23118 -10.23036 -10.22920
 Alpha  occ. eigenvalues --  -10.22832 -10.22751 -10.22595 -10.22570 -10.22566
 Alpha  occ. eigenvalues --  -10.22562 -10.22524 -10.22496 -10.22263 -10.22163
 Alpha  occ. eigenvalues --  -10.22019 -10.21959 -10.21720 -10.21555 -10.21207
 Alpha  occ. eigenvalues --  -10.21130  -3.15316  -1.88139  -1.87712  -1.87512
 Alpha  occ. eigenvalues --   -1.13054  -1.13007  -1.04414  -1.03951  -1.03804
 Alpha  occ. eigenvalues --   -1.02721  -0.99310  -0.98472  -0.98028  -0.96876
 Alpha  occ. eigenvalues --   -0.86884  -0.84473  -0.84240  -0.84233  -0.83093
 Alpha  occ. eigenvalues --   -0.82638  -0.82148  -0.81801  -0.81083  -0.80708
 Alpha  occ. eigenvalues --   -0.79969  -0.79837  -0.78374  -0.77937  -0.77373
 Alpha  occ. eigenvalues --   -0.76632  -0.76301  -0.75375  -0.75198  -0.74809
 Alpha  occ. eigenvalues --   -0.74026  -0.72579  -0.71841  -0.71331  -0.70973
 Alpha  occ. eigenvalues --   -0.69952  -0.69720  -0.69331  -0.69131  -0.68428
 Alpha  occ. eigenvalues --   -0.67803  -0.67095  -0.66530  -0.64828  -0.63955
 Alpha  occ. eigenvalues --   -0.62812  -0.62576  -0.61737  -0.60878  -0.60428
 Alpha  occ. eigenvalues --   -0.59785  -0.59535  -0.59314  -0.59138  -0.58241
 Alpha  occ. eigenvalues --   -0.58068  -0.57532  -0.57244  -0.56540  -0.54683
 Alpha  occ. eigenvalues --   -0.54112  -0.53655  -0.53566  -0.53186  -0.52791
 Alpha  occ. eigenvalues --   -0.52147  -0.51755  -0.50989  -0.50665  -0.50486
 Alpha  occ. eigenvalues --   -0.49936  -0.49514  -0.49158  -0.48887  -0.48719
 Alpha  occ. eigenvalues --   -0.48001  -0.47962  -0.47743  -0.47672  -0.47357
 Alpha  occ. eigenvalues --   -0.47265  -0.47170  -0.46742  -0.46332  -0.46176
 Alpha  occ. eigenvalues --   -0.45998  -0.45894  -0.45542  -0.45449  -0.45151
 Alpha  occ. eigenvalues --   -0.44726  -0.44624  -0.44475  -0.44164  -0.43932
 Alpha  occ. eigenvalues --   -0.43743  -0.43614  -0.43489  -0.43347  -0.43165
 Alpha  occ. eigenvalues --   -0.43051  -0.42921  -0.42720  -0.42515  -0.42422
 Alpha  occ. eigenvalues --   -0.42171  -0.41859  -0.41707  -0.41375  -0.41223
 Alpha  occ. eigenvalues --   -0.41136  -0.41015  -0.40872  -0.40731  -0.40542
 Alpha  occ. eigenvalues --   -0.40346  -0.40296  -0.40121  -0.40000  -0.39742
 Alpha  occ. eigenvalues --   -0.39585  -0.39207  -0.38991  -0.38811  -0.38585
 Alpha  occ. eigenvalues --   -0.38385  -0.38053  -0.37868  -0.37698  -0.37590
 Alpha  occ. eigenvalues --   -0.37518  -0.37397  -0.37242  -0.37174  -0.37009
 Alpha  occ. eigenvalues --   -0.36809  -0.36594  -0.36257  -0.35910  -0.35851
 Alpha  occ. eigenvalues --   -0.35760  -0.35438  -0.35296  -0.35087  -0.34635
 Alpha  occ. eigenvalues --   -0.34522  -0.34388  -0.34173  -0.34111  -0.33496
 Alpha  occ. eigenvalues --   -0.33360  -0.33104  -0.32738  -0.32544  -0.32287
 Alpha  occ. eigenvalues --   -0.32208  -0.31962  -0.31739  -0.31736  -0.31215
 Alpha  occ. eigenvalues --   -0.30919  -0.30712  -0.30004  -0.29978  -0.29562
 Alpha  occ. eigenvalues --   -0.29500  -0.29222  -0.28808  -0.26928  -0.25702
 Alpha  occ. eigenvalues --   -0.25284  -0.24841  -0.24816  -0.24485  -0.21163
 Alpha  occ. eigenvalues --   -0.19263
 Alpha virt. eigenvalues --   -0.11507  -0.05459  -0.03770  -0.01858  -0.01570
 Alpha virt. eigenvalues --    0.00388   0.00832   0.01306   0.01443   0.03165
 Alpha virt. eigenvalues --    0.03718   0.04775   0.04945   0.05111   0.05947

 Mulliken charges:
               1
     1  Mg   0.946441
     2  C   -0.079504
     3  C   -0.078338
     4  C   -0.102107
     5  C   -0.048191
     6  N   -0.381673
     7  C    0.032736
     8  C   -0.045320
     9  C   -0.164840
    10  C    0.089972
    11  C   -0.001023
    12  C   -0.010335
    13  C   -0.044011
    14  C    0.210995
    15  O   -0.282302
    16  O   -0.322229
    17  N   -0.491406
    18  C    0.185704
    19  C   -0.144935
    20  C   -0.085321
    21  C    0.226253
    22  C    0.062838
    23  C    0.023133
    24  O   -0.245529
    25  C   -0.008240
    26  N   -0.337789
    27  C    0.030738
    28  C   -0.084169
    29  C   -0.067441
    30  C    0.055046
    31  C   -0.001643
    32  C   -0.057031
    33  C   -0.057562
    34  N   -0.484189
    35  C    0.114662
    36  C   -0.199977
    37  C   -0.044505
    38  C    0.193349
    39  C    0.056473
    40  C    0.128320
    41  O   -0.225517
    42  C   -0.096715
    43  C    0.271677
    44  O   -0.241234
    45  O   -0.337839
    46  C    0.117562
    47  C    0.257604
    48  C   -0.123881
    49  C   -0.232977
    50  C    0.015811
    51  C    0.004411
    52  C   -0.068304
    53  C    0.004007
    54  C   -0.224652
    55  C    0.002307
    56  C   -0.014948
    57  C   -0.055738
    58  C   -0.048443
    59  C   -0.201674
    60  C   -0.005622
    61  C    0.040481
    62  C   -0.051307
    63  C   -0.005458
    64  C   -0.280764
    65  C   -0.001251
    66  C   -0.012390
    67  H    0.007026
    68  H   -0.019871
    69  H    0.004577
    70  H    0.051717
    71  H    0.072016
    72  H    0.044257
    73  H    0.049901
    74  H    0.054545
    75  H    0.053971
    76  H    0.061445
    77  H    0.088426
    78  H    0.072420
    79  H    0.061414
    80  H    0.026148
    81  H    0.060340
    82  H    0.070549
    83  H    0.041830
    84  H    0.058277
    85  H    0.049338
    86  H    0.050544
    87  H    0.047664
    88  H    0.049095
    89  H    0.040684
    90  H    0.048159
    91  H    0.034934
    92  H    0.044257
    93  H    0.045210
    94  H    0.050517
    95  H    0.060494
    96  H    0.057663
    97  H    0.041873
    98  H    0.071677
    99  H    0.052348
   100  H    0.068785
   101  H    0.067434
   102  H    0.051361
   103  H    0.056423
   104  H    0.012795
   105  H    0.035344
   106  H    0.045387
   107  H    0.061648
   108  H    0.031074
   109  H    0.041200
   110  H    0.039225
   111  H    0.033818
   112  H    0.023637
   113  H    0.027830
   114  H    0.037111
   115  H    0.034224
   116  H    0.045209
   117  H    0.033533
   118  H    0.025312
   119  H    0.027287
   120  H    0.027382
   121  H    0.027843
   122  H    0.042185
   123  H    0.033651
   124  H    0.029447
   125  H    0.021659
   126  H    0.035137
   127  H    0.026968
   128  H    0.035140
   129  H    0.021700
   130  H    0.025519
   131  H    0.027779
   132  H    0.023536
   133  H    0.027875
   134  H    0.038901
   135  H    0.045553
   136  H    0.011481
   137  H    0.019814
   138  H    0.038707
   139  H    0.032431
   140  H    0.033021
 Sum of Mulliken charges =  -0.00000

 Dipole moment (field-independent basis, Debye):
    X=             -0.8961    Y=              4.5667    Z=             -1.8413  Tot=              5.0048
 Quadrupole moment (field-independent basis, Debye-Ang):
   XX=           -389.8806   YY=           -401.2174   ZZ=           -412.4759
   XY=            -39.2605   XZ=            -22.9210   YZ=            -25.7715

 Normal termination of Gaussian 16 at Sat Apr 30 11:07:37 2022.
