 Gaussian 16, Revision A.03,
 Gaussian 16:  ES64L-G16RevA.03 25-Dec-2016

 --------------------------------
 #p wB97XD/Def2SVP td=(nstates=5)
 --------------------------------

 ----------------------------------------------------
 step_701_chromophore_26 TDDFT with wB97XD functional
 ----------------------------------------------------
 Symbolic Z-matrix:
 Charge =  0 Multiplicity = 1

                         Standard orientation:
 ---------------------------------------------------------------------
 Center     Atomic      Atomic             Coordinates (Angstroms)
 Number     Number       Type             X           Y           Z
 ---------------------------------------------------------------------
      1         12           0       -3.833009    1.168284    0.688457
      2          6           0       -4.965454   -1.978015   -0.300809
      3          6           0       -2.294790   -0.247625    3.350263
      4          6           0       -2.384941    4.143659    1.307883
      5          6           0       -4.929184    2.497101   -2.454413
      6          7           0       -3.430405   -0.940731    1.201151
      7          6           0       -4.134515   -2.038514    0.799816
      8          6           0       -3.718043   -3.325074    1.683755
      9          6           0       -3.075061   -2.614573    2.940802
     10          6           0       -2.886146   -1.169648    2.439522
     11          6           0       -4.019953   -2.672849    4.221704
     12          6           0       -2.688729   -4.436148    1.104164
     13          6           0       -1.499013   -4.040131    0.100903
     14          6           0       -0.103358   -4.445977    0.547863
     15          8           0        0.259683   -4.770914    1.680030
     16          8           0        0.692523   -4.456067   -0.520842
     17          7           0       -2.528163    1.875733    2.186998
     18          6           0       -2.059313    1.118212    3.220497
     19          6           0       -1.284823    1.915887    4.057585
     20          6           0       -1.188498    3.227656    3.395477
     21          6           0       -2.072960    3.146539    2.232966
     22          6           0       -0.597863    1.468731    5.255536
     23          6           0       -0.363474    4.398846    3.862139
     24          8           0        0.216512    4.398785    4.930907
     25          6           0       -0.324053    5.711488    3.212649
     26          7           0       -3.632428    3.129139   -0.446859
     27          6           0       -3.075883    4.203445    0.072287
     28          6           0       -3.404857    5.492414   -0.825377
     29          6           0       -4.186076    4.900021   -2.054795
     30          6           0       -4.282127    3.466358   -1.620369
     31          6           0       -4.062554    6.761016   -0.187478
     32          6           0       -3.536097    5.112888   -3.448775
     33          6           0       -3.940680    6.423117   -4.175886
     34          7           0       -4.729141    0.424377   -1.032059
     35          6           0       -5.219092    1.083616   -2.165246
     36          6           0       -5.962964    0.111305   -2.964933
     37          6           0       -5.898288   -1.129520   -2.258875
     38          6           0       -5.098378   -0.884318   -1.125348
     39          6           0       -6.581886    0.359548   -4.341484
     40          6           0       -6.229274   -2.565412   -2.326263
     41          8           0       -6.792453   -3.217378   -3.207411
     42          6           0       -5.650984   -3.188196   -1.024588
     43          6           0       -6.838205   -3.699320   -0.227099
     44          8           0       -6.895151   -4.798739    0.259561
     45          8           0       -7.767373   -2.740781   -0.114947
     46          6           0       -8.955484   -3.204046    0.597467
     47          6           0        2.003465   -4.951838   -0.454527
     48          6           0        2.847164   -3.734615   -0.723459
     49          6           0        3.323460   -3.159235   -1.867400
     50          6           0        2.703497   -3.575762   -3.219001
     51          6           0        4.452437   -2.173136   -1.856933
     52          6           0        4.076934   -0.708309   -2.197713
     53          6           0        5.320292    0.157286   -2.648662
     54          6           0        5.500866    1.416884   -1.791422
     55          6           0        4.969487    2.700398   -2.497677
     56          6           0        6.933895    1.502404   -1.148527
     57          6           0        7.197171    0.551505    0.083668
     58          6           0        8.481227   -0.410334   -0.087581
     59          6           0        9.176898   -0.823950    1.208595
     60          6           0        8.371382   -1.752717    2.071820
     61          6           0       10.504266   -1.391802    0.826313
     62          6           0       11.674315   -0.403767    1.114278
     63          6           0       12.860265   -0.502702    0.148765
     64          6           0       12.731159    0.498137   -0.988716
     65          6           0       13.361109    0.053751   -2.307348
     66          6           0       13.218396    1.936570   -0.562625
     67          1           0       -2.033833   -0.659619    4.327817
     68          1           0       -2.054600    5.152658    1.562187
     69          1           0       -5.322883    2.796099   -3.428463
     70          1           0       -4.670708   -3.821938    1.863515
     71          1           0       -2.073922   -3.018497    3.093409
     72          1           0       -4.447117   -1.702817    4.476819
     73          1           0       -3.440719   -2.898004    5.116823
     74          1           0       -4.843225   -3.373017    4.080616
     75          1           0       -3.265749   -5.284628    0.737861
     76          1           0       -2.204188   -4.765493    2.023589
     77          1           0       -1.462274   -2.951495    0.052244
     78          1           0       -1.670767   -4.480792   -0.880597
     79          1           0        0.426654    1.170878    5.031494
     80          1           0       -1.103155    0.602781    5.684134
     81          1           0       -0.482348    2.159242    6.090289
     82          1           0       -1.310253    6.167397    3.300309
     83          1           0       -0.182187    5.556240    2.142517
     84          1           0        0.475481    6.354154    3.580680
     85          1           0       -2.436702    5.858303   -1.166184
     86          1           0       -5.206293    5.284834   -2.055861
     87          1           0       -4.243155    6.536834    0.863827
     88          1           0       -4.983584    7.139559   -0.631687
     89          1           0       -3.345819    7.578822   -0.259040
     90          1           0       -3.660592    4.292462   -4.156283
     91          1           0       -2.463792    5.160153   -3.261279
     92          1           0       -4.844321    6.880253   -3.771854
     93          1           0       -4.144733    6.139081   -5.207932
     94          1           0       -3.056566    7.057354   -4.111689
     95          1           0       -7.368560   -0.365364   -4.552696
     96          1           0       -5.867589    0.192399   -5.147633
     97          1           0       -6.930546    1.390144   -4.409548
     98          1           0       -5.070789   -4.010021   -1.443877
     99          1           0       -9.524456   -2.362609    0.993019
    100          1           0       -8.728222   -3.828922    1.461269
    101          1           0       -9.580463   -3.688146   -0.153104
    102          1           0        2.190924   -5.686754   -1.237358
    103          1           0        2.156355   -5.394442    0.529635
    104          1           0        3.404705   -3.278313    0.093589
    105          1           0        2.073916   -4.459088   -3.117351
    106          1           0        3.490187   -3.800820   -3.939554
    107          1           0        2.046899   -2.754380   -3.505882
    108          1           0        5.107890   -2.370297   -2.705422
    109          1           0        5.029031   -2.201255   -0.932766
    110          1           0        3.656229   -0.358790   -1.255084
    111          1           0        3.311445   -0.668399   -2.972102
    112          1           0        5.171267    0.471233   -3.681768
    113          1           0        6.201791   -0.483057   -2.679157
    114          1           0        4.900184    1.209588   -0.905197
    115          1           0        4.639171    3.344466   -1.683037
    116          1           0        4.178481    2.560257   -3.233916
    117          1           0        5.840226    3.204078   -2.916214
    118          1           0        7.185163    2.493878   -0.773697
    119          1           0        7.621404    1.333529   -1.977488
    120          1           0        6.358569   -0.120096    0.267022
    121          1           0        7.195134    1.132465    1.005175
    122          1           0        9.171529    0.111503   -0.750884
    123          1           0        8.091476   -1.285244   -0.607132
    124          1           0        9.253210    0.050178    1.854780
    125          1           0        7.328092   -1.812534    1.759979
    126          1           0        8.336420   -1.462501    3.121844
    127          1           0        8.751339   -2.773781    2.028503
    128          1           0       10.480816   -1.878887   -0.149036
    129          1           0       10.729920   -2.137073    1.588411
    130          1           0       12.194408   -0.658689    2.037349
    131          1           0       11.390490    0.645906    1.182029
    132          1           0       12.813175   -1.511683   -0.261192
    133          1           0       13.817344   -0.344529    0.646323
    134          1           0       11.712157    0.695504   -1.319164
    135          1           0       12.703035    0.067927   -3.175985
    136          1           0       13.726636   -0.959365   -2.138507
    137          1           0       14.336894    0.496097   -2.510307
    138          1           0       14.155523    2.146586   -1.077977
    139          1           0       13.321308    2.020873    0.520012
    140          1           0       12.408256    2.611823   -0.837964
 ---------------------------------------------------------------------

 SCF Done:  E(RwB97XD) =  -3007.87857184     A.U. after   19 cycles

 Excitation energies and oscillator strengths:

 Excited State   1:      Singlet-A      1.6665 eV  743.99 nm  f=0.3611  <S**2>=0.000
     245 -> 248        0.19385
     246 -> 247        0.68180
     245 <- 248        0.11986
 This state for optimization and/or second-order correction.
 Total Energy, E(TD-HF/TD-DFT) =  -3007.81733021
 Copying the excited state density for this state as the 1-particle RhoCI density.

 Excited State   2:      Singlet-A      2.1596 eV  574.10 nm  f=0.1218  <S**2>=0.000
     245 -> 247        0.64199
     246 -> 248       -0.27727

 Excited State   3:      Singlet-A      3.1674 eV  391.44 nm  f=0.0043  <S**2>=0.000
     244 -> 247        0.67200

 Excited State   4:      Singlet-A      3.3243 eV  372.97 nm  f=0.0002  <S**2>=0.000
     241 -> 247        0.56254
     241 -> 248        0.12493
     241 -> 249       -0.24991
     241 -> 251        0.23227
     242 -> 247       -0.10710

 Excited State   5:      Singlet-A      3.4205 eV  362.48 nm  f=0.0029  <S**2>=0.000
     241 -> 247        0.11468
     242 -> 247        0.64497
     246 -> 248        0.17312

 The electronic state is 1-A.
 Alpha  occ. eigenvalues --  -46.96363 -19.31114 -19.30117 -19.24730 -19.24447
 Alpha  occ. eigenvalues --  -19.23914 -19.22571 -14.47256 -14.47083 -14.44117
 Alpha  occ. eigenvalues --  -14.44027 -10.43200 -10.43191 -10.38949 -10.37837
 Alpha  occ. eigenvalues --  -10.35972 -10.35828 -10.35769 -10.35656 -10.35270
 Alpha  occ. eigenvalues --  -10.35258 -10.34834 -10.34363 -10.33562 -10.33268
 Alpha  occ. eigenvalues --  -10.32828 -10.32591 -10.32479 -10.32426 -10.32336
 Alpha  occ. eigenvalues --  -10.32203 -10.32182 -10.32092 -10.32006 -10.31691
 Alpha  occ. eigenvalues --  -10.31293 -10.31263 -10.31262 -10.31233 -10.31205
 Alpha  occ. eigenvalues --  -10.30964 -10.30859 -10.30349 -10.29973 -10.29908
 Alpha  occ. eigenvalues --  -10.29738 -10.29503 -10.29465 -10.29267 -10.29245
 Alpha  occ. eigenvalues --  -10.29221 -10.29211 -10.29149 -10.29116 -10.28972
 Alpha  occ. eigenvalues --  -10.28908 -10.28850 -10.28836 -10.28601 -10.28562
 Alpha  occ. eigenvalues --  -10.28392 -10.28329 -10.28088 -10.27974 -10.27645
 Alpha  occ. eigenvalues --  -10.27547  -3.22181  -1.95748  -1.95320  -1.95120
 Alpha  occ. eigenvalues --   -1.20396  -1.20363  -1.12017  -1.11322  -1.11125
 Alpha  occ. eigenvalues --   -1.10043  -1.06735  -1.05928  -1.05452  -1.04152
 Alpha  occ. eigenvalues --   -0.94422  -0.92134  -0.91886  -0.91834  -0.90789
 Alpha  occ. eigenvalues --   -0.90300  -0.89805  -0.89452  -0.88713  -0.88428
 Alpha  occ. eigenvalues --   -0.87628  -0.87413  -0.86032  -0.85526  -0.85033
 Alpha  occ. eigenvalues --   -0.84325  -0.84018  -0.83062  -0.82803  -0.82441
 Alpha  occ. eigenvalues --   -0.81684  -0.80162  -0.79513  -0.79060  -0.78564
 Alpha  occ. eigenvalues --   -0.77615  -0.77352  -0.77022  -0.76819  -0.76090
 Alpha  occ. eigenvalues --   -0.75390  -0.74615  -0.74086  -0.72453  -0.71507
 Alpha  occ. eigenvalues --   -0.70396  -0.70154  -0.69328  -0.68495  -0.67927
 Alpha  occ. eigenvalues --   -0.67340  -0.67104  -0.66760  -0.66607  -0.65697
 Alpha  occ. eigenvalues --   -0.65464  -0.65206  -0.64898  -0.64184  -0.62200
 Alpha  occ. eigenvalues --   -0.61487  -0.61158  -0.60986  -0.60586  -0.60237
 Alpha  occ. eigenvalues --   -0.59580  -0.59240  -0.58461  -0.58132  -0.57917
 Alpha  occ. eigenvalues --   -0.57277  -0.56881  -0.56525  -0.56263  -0.56127
 Alpha  occ. eigenvalues --   -0.55430  -0.55276  -0.55085  -0.55012  -0.54766
 Alpha  occ. eigenvalues --   -0.54699  -0.54533  -0.54233  -0.53788  -0.53478
 Alpha  occ. eigenvalues --   -0.53455  -0.53263  -0.52931  -0.52820  -0.52450
 Alpha  occ. eigenvalues --   -0.52150  -0.52020  -0.51796  -0.51524  -0.51284
 Alpha  occ. eigenvalues --   -0.51036  -0.50982  -0.50761  -0.50669  -0.50464
 Alpha  occ. eigenvalues --   -0.50338  -0.50165  -0.50020  -0.49796  -0.49664
 Alpha  occ. eigenvalues --   -0.49524  -0.49153  -0.48953  -0.48665  -0.48481
 Alpha  occ. eigenvalues --   -0.48378  -0.48192  -0.48119  -0.47908  -0.47700
 Alpha  occ. eigenvalues --   -0.47580  -0.47484  -0.47362  -0.47240  -0.46895
 Alpha  occ. eigenvalues --   -0.46759  -0.46349  -0.46122  -0.45967  -0.45674
 Alpha  occ. eigenvalues --   -0.45535  -0.45099  -0.44941  -0.44864  -0.44773
 Alpha  occ. eigenvalues --   -0.44631  -0.44510  -0.44301  -0.44290  -0.44093
 Alpha  occ. eigenvalues --   -0.43904  -0.43625  -0.43378  -0.43205  -0.42888
 Alpha  occ. eigenvalues --   -0.42804  -0.42555  -0.42314  -0.42211  -0.41639
 Alpha  occ. eigenvalues --   -0.41521  -0.41366  -0.41255  -0.41105  -0.40575
 Alpha  occ. eigenvalues --   -0.40425  -0.40117  -0.39793  -0.39511  -0.39331
 Alpha  occ. eigenvalues --   -0.39221  -0.38967  -0.38772  -0.38645  -0.38244
 Alpha  occ. eigenvalues --   -0.37929  -0.37671  -0.36920  -0.36878  -0.36420
 Alpha  occ. eigenvalues --   -0.36391  -0.36310  -0.35562  -0.33490  -0.32620
 Alpha  occ. eigenvalues --   -0.31960  -0.31754  -0.31505  -0.31420  -0.26115
 Alpha  occ. eigenvalues --   -0.23471
 Alpha virt. eigenvalues --   -0.07430  -0.00093   0.02531   0.04329   0.04678
 Alpha virt. eigenvalues --    0.07062   0.07547   0.08199   0.08351   0.09749
 Alpha virt. eigenvalues --    0.10397   0.11328   0.11613   0.11732   0.12667

 Mulliken charges:
               1
     1  Mg   0.940474
     2  C   -0.076216
     3  C   -0.098717
     4  C   -0.109128
     5  C   -0.060313
     6  N   -0.350048
     7  C   -0.009949
     8  C   -0.025084
     9  C   -0.136724
    10  C    0.078828
    11  C    0.008752
    12  C    0.002934
    13  C   -0.027869
    14  C    0.200832
    15  O   -0.279599
    16  O   -0.320449
    17  N   -0.457362
    18  C    0.180928
    19  C   -0.133514
    20  C   -0.077829
    21  C    0.221022
    22  C    0.070235
    23  C    0.017940
    24  O   -0.240284
    25  C    0.008047
    26  N   -0.305269
    27  C    0.012364
    28  C   -0.063047
    29  C   -0.039985
    30  C    0.039205
    31  C    0.009992
    32  C   -0.041602
    33  C   -0.042696
    34  N   -0.449117
    35  C    0.102934
    36  C   -0.196878
    37  C   -0.044283
    38  C    0.180158
    39  C    0.067528
    40  C    0.110953
    41  O   -0.216774
    42  C   -0.056709
    43  C    0.248530
    44  O   -0.236344
    45  O   -0.338961
    46  C    0.132838
    47  C    0.270676
    48  C   -0.131375
    49  C   -0.223974
    50  C    0.029204
    51  C    0.031320
    52  C   -0.052376
    53  C    0.014853
    54  C   -0.189999
    55  C    0.015348
    56  C   -0.001730
    57  C   -0.039125
    58  C   -0.023589
    59  C   -0.173364
    60  C    0.004333
    61  C    0.055497
    62  C   -0.035062
    63  C    0.014047
    64  C   -0.250201
    65  C    0.010498
    66  C   -0.002313
    67  H   -0.000302
    68  H   -0.033150
    69  H   -0.002350
    70  H    0.039247
    71  H    0.062471
    72  H    0.036994
    73  H    0.044894
    74  H    0.050161
    75  H    0.049151
    76  H    0.050915
    77  H    0.078673
    78  H    0.068243
    79  H    0.058460
    80  H    0.021392
    81  H    0.058381
    82  H    0.064904
    83  H    0.034584
    84  H    0.058169
    85  H    0.038054
    86  H    0.038152
    87  H    0.040730
    88  H    0.044516
    89  H    0.035589
    90  H    0.040501
    91  H    0.025505
    92  H    0.037836
    93  H    0.039914
    94  H    0.044508
    95  H    0.056482
    96  H    0.051984
    97  H    0.035257
    98  H    0.067246
    99  H    0.048735
   100  H    0.064597
   101  H    0.063484
   102  H    0.046865
   103  H    0.053802
   104  H    0.007558
   105  H    0.029515
   106  H    0.040177
   107  H    0.055580
   108  H    0.019413
   109  H    0.032214
   110  H    0.028633
   111  H    0.025794
   112  H    0.016084
   113  H    0.016382
   114  H    0.019876
   115  H    0.028112
   116  H    0.040454
   117  H    0.026894
   118  H    0.018553
   119  H    0.017288
   120  H    0.012083
   121  H    0.021090
   122  H    0.026502
   123  H    0.022518
   124  H    0.017274
   125  H    0.014628
   126  H    0.030574
   127  H    0.020726
   128  H    0.027469
   129  H    0.011874
   130  H    0.018589
   131  H    0.015779
   132  H    0.012571
   133  H    0.020617
   134  H    0.023064
   135  H    0.041650
   136  H    0.003897
   137  H    0.013192
   138  H    0.032472
   139  H    0.025916
   140  H    0.027983
 Sum of Mulliken charges =  -0.00000

 Dipole moment (field-independent basis, Debye):
    X=             -0.7295    Y=              4.7276    Z=             -1.4893  Tot=              5.0100
 Quadrupole moment (field-independent basis, Debye-Ang):
   XX=           -390.4611   YY=           -400.5462   ZZ=           -411.8852
   XY=            -39.2008   XZ=            -24.2058   YZ=            -24.6724

 Normal termination of Gaussian 16 at Sat Apr 30 11:41:07 2022.
