 Gaussian 16, Revision A.03,
 Gaussian 16:  ES64L-G16RevA.03 25-Dec-2016

 --------------------
 #p ZINDO=(nstates=5)
 --------------------

 -----------------------------
 step_701_chromophore_26 ZINDO
 -----------------------------
 Symbolic Z-matrix:
 Charge =  0 Multiplicity = 1

                         Standard orientation:
 ---------------------------------------------------------------------
 Center     Atomic      Atomic             Coordinates (Angstroms)
 Number     Number       Type             X           Y           Z
 ---------------------------------------------------------------------
      1         12           0       -3.833009    1.168284    0.688457
      2          6           0       -4.965454   -1.978015   -0.300809
      3          6           0       -2.294790   -0.247625    3.350263
      4          6           0       -2.384941    4.143659    1.307883
      5          6           0       -4.929184    2.497101   -2.454413
      6          7           0       -3.430405   -0.940731    1.201151
      7          6           0       -4.134515   -2.038514    0.799816
      8          6           0       -3.718043   -3.325074    1.683755
      9          6           0       -3.075061   -2.614573    2.940802
     10          6           0       -2.886146   -1.169648    2.439522
     11          6           0       -4.019953   -2.672849    4.221704
     12          6           0       -2.688729   -4.436148    1.104164
     13          6           0       -1.499013   -4.040131    0.100903
     14          6           0       -0.103358   -4.445977    0.547863
     15          8           0        0.259683   -4.770914    1.680030
     16          8           0        0.692523   -4.456067   -0.520842
     17          7           0       -2.528163    1.875733    2.186998
     18          6           0       -2.059313    1.118212    3.220497
     19          6           0       -1.284823    1.915887    4.057585
     20          6           0       -1.188498    3.227656    3.395477
     21          6           0       -2.072960    3.146539    2.232966
     22          6           0       -0.597863    1.468731    5.255536
     23          6           0       -0.363474    4.398846    3.862139
     24          8           0        0.216512    4.398785    4.930907
     25          6           0       -0.324053    5.711488    3.212649
     26          7           0       -3.632428    3.129139   -0.446859
     27          6           0       -3.075883    4.203445    0.072287
     28          6           0       -3.404857    5.492414   -0.825377
     29          6           0       -4.186076    4.900021   -2.054795
     30          6           0       -4.282127    3.466358   -1.620369
     31          6           0       -4.062554    6.761016   -0.187478
     32          6           0       -3.536097    5.112888   -3.448775
     33          6           0       -3.940680    6.423117   -4.175886
     34          7           0       -4.729141    0.424377   -1.032059
     35          6           0       -5.219092    1.083616   -2.165246
     36          6           0       -5.962964    0.111305   -2.964933
     37          6           0       -5.898288   -1.129520   -2.258875
     38          6           0       -5.098378   -0.884318   -1.125348
     39          6           0       -6.581886    0.359548   -4.341484
     40          6           0       -6.229274   -2.565412   -2.326263
     41          8           0       -6.792453   -3.217378   -3.207411
     42          6           0       -5.650984   -3.188196   -1.024588
     43          6           0       -6.838205   -3.699320   -0.227099
     44          8           0       -6.895151   -4.798739    0.259561
     45          8           0       -7.767373   -2.740781   -0.114947
     46          6           0       -8.955484   -3.204046    0.597467
     47          6           0        2.003465   -4.951838   -0.454527
     48          6           0        2.847164   -3.734615   -0.723459
     49          6           0        3.323460   -3.159235   -1.867400
     50          6           0        2.703497   -3.575762   -3.219001
     51          6           0        4.452437   -2.173136   -1.856933
     52          6           0        4.076934   -0.708309   -2.197713
     53          6           0        5.320292    0.157286   -2.648662
     54          6           0        5.500866    1.416884   -1.791422
     55          6           0        4.969487    2.700398   -2.497677
     56          6           0        6.933895    1.502404   -1.148527
     57          6           0        7.197171    0.551505    0.083668
     58          6           0        8.481227   -0.410334   -0.087581
     59          6           0        9.176898   -0.823950    1.208595
     60          6           0        8.371382   -1.752717    2.071820
     61          6           0       10.504266   -1.391802    0.826313
     62          6           0       11.674315   -0.403767    1.114278
     63          6           0       12.860265   -0.502702    0.148765
     64          6           0       12.731159    0.498137   -0.988716
     65          6           0       13.361109    0.053751   -2.307348
     66          6           0       13.218396    1.936570   -0.562625
     67          1           0       -2.033833   -0.659619    4.327817
     68          1           0       -2.054600    5.152658    1.562187
     69          1           0       -5.322883    2.796099   -3.428463
     70          1           0       -4.670708   -3.821938    1.863515
     71          1           0       -2.073922   -3.018497    3.093409
     72          1           0       -4.447117   -1.702817    4.476819
     73          1           0       -3.440719   -2.898004    5.116823
     74          1           0       -4.843225   -3.373017    4.080616
     75          1           0       -3.265749   -5.284628    0.737861
     76          1           0       -2.204188   -4.765493    2.023589
     77          1           0       -1.462274   -2.951495    0.052244
     78          1           0       -1.670767   -4.480792   -0.880597
     79          1           0        0.426654    1.170878    5.031494
     80          1           0       -1.103155    0.602781    5.684134
     81          1           0       -0.482348    2.159242    6.090289
     82          1           0       -1.310253    6.167397    3.300309
     83          1           0       -0.182187    5.556240    2.142517
     84          1           0        0.475481    6.354154    3.580680
     85          1           0       -2.436702    5.858303   -1.166184
     86          1           0       -5.206293    5.284834   -2.055861
     87          1           0       -4.243155    6.536834    0.863827
     88          1           0       -4.983584    7.139559   -0.631687
     89          1           0       -3.345819    7.578822   -0.259040
     90          1           0       -3.660592    4.292462   -4.156283
     91          1           0       -2.463792    5.160153   -3.261279
     92          1           0       -4.844321    6.880253   -3.771854
     93          1           0       -4.144733    6.139081   -5.207932
     94          1           0       -3.056566    7.057354   -4.111689
     95          1           0       -7.368560   -0.365364   -4.552696
     96          1           0       -5.867589    0.192399   -5.147633
     97          1           0       -6.930546    1.390144   -4.409548
     98          1           0       -5.070789   -4.010021   -1.443877
     99          1           0       -9.524456   -2.362609    0.993019
    100          1           0       -8.728222   -3.828922    1.461269
    101          1           0       -9.580463   -3.688146   -0.153104
    102          1           0        2.190924   -5.686754   -1.237358
    103          1           0        2.156355   -5.394442    0.529635
    104          1           0        3.404705   -3.278313    0.093589
    105          1           0        2.073916   -4.459088   -3.117351
    106          1           0        3.490187   -3.800820   -3.939554
    107          1           0        2.046899   -2.754380   -3.505882
    108          1           0        5.107890   -2.370297   -2.705422
    109          1           0        5.029031   -2.201255   -0.932766
    110          1           0        3.656229   -0.358790   -1.255084
    111          1           0        3.311445   -0.668399   -2.972102
    112          1           0        5.171267    0.471233   -3.681768
    113          1           0        6.201791   -0.483057   -2.679157
    114          1           0        4.900184    1.209588   -0.905197
    115          1           0        4.639171    3.344466   -1.683037
    116          1           0        4.178481    2.560257   -3.233916
    117          1           0        5.840226    3.204078   -2.916214
    118          1           0        7.185163    2.493878   -0.773697
    119          1           0        7.621404    1.333529   -1.977488
    120          1           0        6.358569   -0.120096    0.267022
    121          1           0        7.195134    1.132465    1.005175
    122          1           0        9.171529    0.111503   -0.750884
    123          1           0        8.091476   -1.285244   -0.607132
    124          1           0        9.253210    0.050178    1.854780
    125          1           0        7.328092   -1.812534    1.759979
    126          1           0        8.336420   -1.462501    3.121844
    127          1           0        8.751339   -2.773781    2.028503
    128          1           0       10.480816   -1.878887   -0.149036
    129          1           0       10.729920   -2.137073    1.588411
    130          1           0       12.194408   -0.658689    2.037349
    131          1           0       11.390490    0.645906    1.182029
    132          1           0       12.813175   -1.511683   -0.261192
    133          1           0       13.817344   -0.344529    0.646323
    134          1           0       11.712157    0.695504   -1.319164
    135          1           0       12.703035    0.067927   -3.175985
    136          1           0       13.726636   -0.959365   -2.138507
    137          1           0       14.336894    0.496097   -2.510307
    138          1           0       14.155523    2.146586   -1.077977
    139          1           0       13.321308    2.020873    0.520012
    140          1           0       12.408256    2.611823   -0.837964
 ---------------------------------------------------------------------

 SCF Done:  E(RZINDO/S) =  -474.291213053     A.U. after   19 cycles

 Excitation energies and oscillator strengths:

 Excited State   1:      Singlet-A      1.2667 eV  978.78 nm  f=0.5594  <S**2>=0.000
     175 ->178         0.19179
     176 ->177         0.66381
 This state for optimization and/or second-order correction.
 Total Energy, E(CIS/TDA) =  -474.244661803
 Copying the excited state density for this state as the 1-particle RhoCI density.

 Excited State   2:      Singlet-A      1.8996 eV  652.70 nm  f=0.0647  <S**2>=0.000
     175 ->177         0.55974
     176 ->178        -0.40522

 Excited State   3:      Singlet-A      2.7659 eV  448.27 nm  f=0.0002  <S**2>=0.000
     169 ->177         0.27402
     169 ->178        -0.11197
     169 ->179        -0.28503
     169 ->181         0.25687
     169 ->185        -0.19620
     169 ->187         0.11474
     170 ->177        -0.18365
     170 ->179         0.18050
     170 ->181        -0.16667
     170 ->185         0.12404

 Excited State   4:      Singlet-A      3.0337 eV  408.69 nm  f=0.4360  <S**2>=0.000
     171 ->177         0.44680
     172 ->177         0.15549
     173 ->177         0.21528
     175 ->177        -0.21846
     176 ->178        -0.35865

 Excited State   5:      Singlet-A      3.0538 eV  406.01 nm  f=0.3625  <S**2>=0.000
     169 ->177        -0.12923
     169 ->181        -0.12066
     170 ->177        -0.10903
     170 ->179        -0.17394
     170 ->181        -0.13771
     171 ->177         0.28835
     173 ->177         0.26045
     175 ->177         0.21524
     176 ->178         0.26618
     176 ->179        -0.20983
     176 ->180        -0.11497

 The electronic state is 1-A.
 Alpha  occ. eigenvalues --   -1.82836  -1.82247  -1.78524  -1.76991  -1.74868
 Alpha  occ. eigenvalues --   -1.70104  -1.65794  -1.61709  -1.61114  -1.57130
 Alpha  occ. eigenvalues --   -1.55474  -1.51849  -1.48729  -1.47713  -1.46987
 Alpha  occ. eigenvalues --   -1.45827  -1.41101  -1.40808  -1.37544  -1.37181
 Alpha  occ. eigenvalues --   -1.35438  -1.33048  -1.31876  -1.31055  -1.29547
 Alpha  occ. eigenvalues --   -1.28160  -1.26664  -1.21887  -1.20810  -1.18766
 Alpha  occ. eigenvalues --   -1.16101  -1.15991  -1.15002  -1.13714  -1.13184
 Alpha  occ. eigenvalues --   -1.12940  -1.11241  -1.09537  -1.05604  -1.04413
 Alpha  occ. eigenvalues --   -1.03569  -1.01025  -0.99816  -0.98267  -0.97367
 Alpha  occ. eigenvalues --   -0.95378  -0.94178  -0.93589  -0.92853  -0.91938
 Alpha  occ. eigenvalues --   -0.90672  -0.89777  -0.89348  -0.88635  -0.87734
 Alpha  occ. eigenvalues --   -0.86028  -0.84276  -0.83473  -0.83214  -0.81020
 Alpha  occ. eigenvalues --   -0.79565  -0.78688  -0.77868  -0.76694  -0.76410
 Alpha  occ. eigenvalues --   -0.75955  -0.75151  -0.74435  -0.74172  -0.73011
 Alpha  occ. eigenvalues --   -0.72850  -0.72433  -0.72225  -0.71477  -0.71226
 Alpha  occ. eigenvalues --   -0.70975  -0.70179  -0.69504  -0.68961  -0.68131
 Alpha  occ. eigenvalues --   -0.67314  -0.66755  -0.66390  -0.65941  -0.65402
 Alpha  occ. eigenvalues --   -0.65312  -0.65214  -0.64415  -0.63999  -0.63820
 Alpha  occ. eigenvalues --   -0.63172  -0.62828  -0.62809  -0.62379  -0.61727
 Alpha  occ. eigenvalues --   -0.61471  -0.60792  -0.60672  -0.60248  -0.60190
 Alpha  occ. eigenvalues --   -0.59131  -0.58895  -0.58707  -0.58601  -0.58391
 Alpha  occ. eigenvalues --   -0.57745  -0.57662  -0.57560  -0.57253  -0.56593
 Alpha  occ. eigenvalues --   -0.56138  -0.55882  -0.55776  -0.55605  -0.55087
 Alpha  occ. eigenvalues --   -0.54791  -0.54677  -0.53801  -0.53321  -0.52892
 Alpha  occ. eigenvalues --   -0.52699  -0.52500  -0.52230  -0.51980  -0.51836
 Alpha  occ. eigenvalues --   -0.51558  -0.51211  -0.50766  -0.50470  -0.50368
 Alpha  occ. eigenvalues --   -0.49796  -0.49676  -0.49459  -0.49299  -0.48993
 Alpha  occ. eigenvalues --   -0.48665  -0.48632  -0.48345  -0.47993  -0.47725
 Alpha  occ. eigenvalues --   -0.47341  -0.47176  -0.47049  -0.46886  -0.46311
 Alpha  occ. eigenvalues --   -0.45903  -0.45773  -0.45624  -0.45557  -0.45392
 Alpha  occ. eigenvalues --   -0.45152  -0.45090  -0.45006  -0.44446  -0.44231
 Alpha  occ. eigenvalues --   -0.44040  -0.43327  -0.43315  -0.42813  -0.42274
 Alpha  occ. eigenvalues --   -0.42037  -0.41988  -0.41015  -0.39649  -0.39014
 Alpha  occ. eigenvalues --   -0.38298  -0.37543  -0.35399  -0.34873  -0.34656
 Alpha  occ. eigenvalues --   -0.33222  -0.32917  -0.32165  -0.31564  -0.26959
 Alpha  occ. eigenvalues --   -0.22450
 Alpha virt. eigenvalues --   -0.09045  -0.02584  -0.00620   0.00586   0.01302
 Alpha virt. eigenvalues --    0.02003   0.02332   0.03136   0.04509   0.04669
 Alpha virt. eigenvalues --    0.05713   0.06586   0.06908   0.07565   0.07890

 Mulliken charges:
               1
     1  Mg   0.437609
     2  C   -0.032604
     3  C   -0.076318
     4  C   -0.089181
     5  C   -0.071747
     6  N   -0.279077
     7  C    0.101489
     8  C   -0.008590
     9  C    0.000183
    10  C    0.158043
    11  C   -0.049769
    12  C   -0.034351
    13  C    0.006298
    14  C    0.474385
    15  O   -0.536195
    16  O   -0.253020
    17  N   -0.337617
    18  C    0.135745
    19  C    0.060710
    20  C   -0.062560
    21  C    0.149297
    22  C   -0.031019
    23  C    0.327150
    24  O   -0.529389
    25  C   -0.019557
    26  N   -0.260945
    27  C    0.152029
    28  C    0.003639
    29  C    0.010187
    30  C    0.095280
    31  C   -0.050754
    32  C   -0.029858
    33  C   -0.061630
    34  N   -0.328138
    35  C    0.065468
    36  C    0.014384
    37  C   -0.066923
    38  C    0.113797
    39  C   -0.040346
    40  C    0.329283
    41  O   -0.531851
    42  C    0.041791
    43  C    0.494507
    44  O   -0.526674
    45  O   -0.252547
    46  C    0.075751
    47  C    0.120300
    48  C   -0.095710
    49  C   -0.011446
    50  C   -0.048057
    51  C   -0.016034
    52  C   -0.036225
    53  C   -0.034353
    54  C   -0.013841
    55  C   -0.055100
    56  C   -0.034768
    57  C   -0.049689
    58  C   -0.033647
    59  C    0.000901
    60  C   -0.054430
    61  C   -0.027812
    62  C   -0.040350
    63  C   -0.027419
    64  C   -0.015252
    65  C   -0.065531
    66  C   -0.063646
    67  H    0.031892
    68  H    0.015709
    69  H    0.029424
    70  H    0.039000
    71  H    0.048018
    72  H    0.021296
    73  H    0.022245
    74  H    0.030236
    75  H    0.030887
    76  H    0.032064
    77  H    0.050503
    78  H    0.045816
    79  H    0.039688
    80  H    0.015805
    81  H    0.041114
    82  H    0.041852
    83  H    0.019334
    84  H    0.043131
    85  H    0.026004
    86  H    0.032872
    87  H    0.021877
    88  H    0.029013
    89  H    0.018091
    90  H    0.027856
    91  H    0.015433
    92  H    0.025454
    93  H    0.019879
    94  H    0.023931
    95  H    0.033318
    96  H    0.030508
    97  H    0.022671
    98  H    0.066600
    99  H    0.024263
   100  H    0.049794
   101  H    0.046324
   102  H    0.039389
   103  H    0.056031
   104  H    0.017042
   105  H    0.021510
   106  H    0.025988
   107  H    0.031440
   108  H    0.020706
   109  H    0.028517
   110  H    0.020778
   111  H    0.022544
   112  H    0.013329
   113  H    0.020084
   114  H    0.014310
   115  H    0.013643
   116  H    0.029908
   117  H    0.019106
   118  H    0.014398
   119  H    0.016227
   120  H    0.014295
   121  H    0.021335
   122  H    0.017322
   123  H    0.019692
   124  H    0.020360
   125  H    0.012310
   126  H    0.016638
   127  H    0.014699
   128  H    0.033572
   129  H    0.010025
   130  H    0.013135
   131  H    0.022975
   132  H    0.013459
   133  H    0.022175
   134  H    0.015902
   135  H    0.025813
   136  H    0.007053
   137  H    0.017030
   138  H    0.025787
   139  H    0.018517
   140  H    0.016798
 Sum of Mulliken charges =  -0.00000

 Dipole moment (field-independent basis, Debye):
    X=              0.7463    Y=              6.6412    Z=             -0.7790  Tot=              6.7282
 N-N= 4.473377992832D+03 E-N= 0.000000000000D+00  KE=-9.620706742515D+03
 Leave Link  601 at Sat Apr 30 11:58:03 2022, MaxMem=  6710886400 cpu:               1.0 elap:               0.1
 (Enter /sw/apps/gaussian-16.0/g16/l9999.exe)
 1\1\GINC-BP1-COMPUTE137\SP\RZINDO CIS\STO-3G\C55H74Mg1N4O6\OF15641\30-
 Apr-2022\0\\#p ZINDO=(nstates=5)\\step_701_chromophore_26 ZINDO\\0,1\M
 g,0,-9.271,18.554,42.942\C,0,-5.822,18.08,43.142\C,0,-8.759,21.835,42.
 287\C,0,-12.562,18.835,42.291\C,0,-9.714,14.998,43.002\N,0,-7.442,19.6
 83,42.439\C,0,-6.157,19.367,42.772\C,0,-5.185,20.632,42.517\C,0,-6.242
 ,21.807,42.494\C,0,-7.575,21.046,42.357\C,0,-6.202,22.687,43.821\C,0,-
 4.255,20.714,41.191\C,0,-4.725,20.081,39.792\C,0,-4.741,21.04,38.612\O

 Normal termination of Gaussian 16 at Sat Apr 30 11:58:03 2022.
