 Gaussian 16, Revision A.03,
 Gaussian 16:  ES64L-G16RevA.03 25-Dec-2016

 ------------------------------
 #p blyp/Def2SVP td=(nstates=5)
 ------------------------------

 ---------------------------------------------------
 step_1601_chromophore_20 TDDFT with blyp functional
 ---------------------------------------------------
 Symbolic Z-matrix:
 Charge =  0 Multiplicity = 1

                         Standard orientation:
 ---------------------------------------------------------------------
 Center     Atomic      Atomic             Coordinates (Angstroms)
 Number     Number       Type             X           Y           Z
 ---------------------------------------------------------------------
      1         12           0       -4.117317   -1.418665   -0.530566
      2          6           0       -4.079215    2.137811   -1.157735
      3          6           0       -1.454518   -1.697196   -2.683004
      4          6           0       -3.857575   -4.659501    0.514596
      5          6           0       -6.336549   -0.724757    2.064730
      6          7           0       -2.936635    0.117094   -1.772639
      7          6           0       -3.020049    1.471632   -1.907400
      8          6           0       -1.962172    2.052646   -2.852969
      9          6           0       -1.498336    0.723354   -3.630531
     10          6           0       -1.982487   -0.357864   -2.615255
     11          6           0       -2.107389    0.481401   -5.010052
     12          6           0       -0.900123    2.760835   -1.992003
     13          6           0       -0.338632    4.071414   -2.380910
     14          6           0        0.308669    4.975317   -1.331343
     15          8           0       -0.059169    6.100184   -1.091934
     16          8           0        1.486684    4.372172   -0.861917
     17          7           0       -2.861118   -3.040765   -1.121126
     18          6           0       -1.841293   -2.914121   -2.040292
     19          6           0       -1.219955   -4.180771   -2.089267
     20          6           0       -1.884910   -5.076116   -1.173924
     21          6           0       -2.925209   -4.249525   -0.504465
     22          6           0       -0.170334   -4.528021   -3.218903
     23          6           0       -1.695010   -6.600755   -1.093499
     24          8           0       -0.675357   -7.137952   -1.519913
     25          6           0       -2.500436   -7.405075   -0.202515
     26          7           0       -4.843289   -2.510212    1.086650
     27          6           0       -4.787710   -3.851052    1.201827
     28          6           0       -5.667417   -4.463339    2.267908
     29          6           0       -6.305524   -3.134955    2.829505
     30          6           0       -5.774660   -2.029103    1.939134
     31          6           0       -6.552286   -5.624141    1.750024
     32          6           0       -6.010525   -2.907408    4.310764
     33          6           0       -7.081651   -3.608299    5.253506
     34          7           0       -5.128808    0.333643    0.263528
     35          6           0       -6.000376    0.388819    1.306815
     36          6           0       -6.585447    1.704337    1.354509
     37          6           0       -5.840418    2.399438    0.363039
     38          6           0       -4.904216    1.567114   -0.256021
     39          6           0       -7.746858    2.239387    2.324236
     40          6           0       -5.797124    3.655077   -0.402260
     41          8           0       -6.513569    4.621832   -0.363023
     42          6           0       -4.473606    3.557442   -1.387071
     43          6           0       -3.505529    4.656177   -0.926495
     44          8           0       -2.889952    4.749742    0.090225
     45          8           0       -3.599377    5.727851   -1.830506
     46          6           0       -3.176332    7.048181   -1.423512
     47          6           0        2.302488    5.289656    0.002436
     48          6           0        3.481681    4.623026    0.563444
     49          6           0        4.618747    5.202174    1.090791
     50          6           0        4.806521    6.697832    1.392729
     51          6           0        5.794621    4.318949    1.354441
     52          6           0        5.851390    3.795168    2.735225
     53          6           0        7.260243    3.283085    3.238810
     54          6           0        7.326881    1.667477    3.480991
     55          6           0        7.565938    1.366939    4.939388
     56          6           0        8.442955    0.976217    2.683093
     57          6           0        7.976898    0.338545    1.323840
     58          6           0        8.438373   -1.169185    1.279738
     59          6           0        7.236178   -2.053924    0.875235
     60          6           0        6.210368   -2.387997    2.088927
     61          6           0        7.743025   -3.429786    0.255443
     62          6           0        8.115388   -3.221527   -1.213277
     63          6           0        9.336602   -4.069118   -1.527581
     64          6           0       10.657251   -3.325183   -1.848193
     65          6           0       10.850893   -3.222193   -3.411337
     66          6           0       11.922845   -3.934399   -1.198824
     67          1           0       -0.668680   -1.859889   -3.423575
     68          1           0       -3.815419   -5.681286    0.898156
     69          1           0       -7.245501   -0.570951    2.649013
     70          1           0       -2.391823    2.746252   -3.577384
     71          1           0       -0.435481    0.516693   -3.754446
     72          1           0       -1.369466    0.276598   -5.784637
     73          1           0       -2.505954    1.481223   -5.178959
     74          1           0       -2.943640   -0.210313   -4.914672
     75          1           0       -0.022784    2.114406   -1.974388
     76          1           0       -1.245259    2.686891   -0.960313
     77          1           0       -1.158152    4.709412   -2.713208
     78          1           0        0.400594    3.858631   -3.152918
     79          1           0        0.709446   -4.715838   -2.604115
     80          1           0       -0.123987   -3.780077   -4.010219
     81          1           0       -0.585887   -5.370225   -3.772901
     82          1           0       -2.275116   -7.169027    0.837169
     83          1           0       -2.286920   -8.450703   -0.420477
     84          1           0       -3.534430   -7.118182   -0.394376
     85          1           0       -5.004100   -4.942865    2.989176
     86          1           0       -7.376236   -3.228391    2.645823
     87          1           0       -6.146641   -5.990599    0.807280
     88          1           0       -7.561088   -5.311768    1.479163
     89          1           0       -6.708302   -6.470938    2.417903
     90          1           0       -6.203120   -1.841250    4.425678
     91          1           0       -5.034310   -3.273689    4.628327
     92          1           0       -7.662620   -2.746661    5.582670
     93          1           0       -6.802489   -4.261171    6.080805
     94          1           0       -7.797590   -4.159472    4.644158
     95          1           0       -8.678423    2.394590    1.779795
     96          1           0       -7.436033    3.178366    2.782178
     97          1           0       -7.844398    1.467225    3.087378
     98          1           0       -4.847171    3.754915   -2.392494
     99          1           0       -3.974651    7.693856   -1.790890
    100          1           0       -2.288852    7.229477   -2.029598
    101          1           0       -3.018197    7.184806   -0.354257
    102          1           0        1.737262    5.690877    0.843936
    103          1           0        2.522517    6.120762   -0.667218
    104          1           0        3.576632    3.569387    0.299863
    105          1           0        4.937533    6.830186    2.466350
    106          1           0        3.961284    7.335827    1.138646
    107          1           0        5.719672    7.135196    0.988444
    108          1           0        6.745094    4.827225    1.195991
    109          1           0        5.685977    3.479740    0.666976
    110          1           0        5.140866    2.973023    2.820326
    111          1           0        5.500036    4.566464    3.419265
    112          1           0        7.437904    3.894470    4.122814
    113          1           0        8.042850    3.554791    2.530229
    114          1           0        6.360297    1.203637    3.287538
    115          1           0        6.909528    0.602258    5.357605
    116          1           0        7.640860    2.309113    5.483021
    117          1           0        8.502254    0.864635    5.181091
    118          1           0        9.158201    0.380421    3.250863
    119          1           0        9.128922    1.724134    2.285742
    120          1           0        8.433610    0.841528    0.470781
    121          1           0        6.899377    0.298613    1.170357
    122          1           0        8.839538   -1.688260    2.150019
    123          1           0        9.305556   -1.269702    0.626197
    124          1           0        6.749390   -1.533875    0.050483
    125          1           0        6.013598   -1.558786    2.767068
    126          1           0        6.615252   -3.189916    2.706967
    127          1           0        5.187902   -2.528627    1.740093
    128          1           0        6.934590   -4.146908    0.395485
    129          1           0        8.527742   -3.824267    0.901588
    130          1           0        8.310992   -2.163090   -1.382997
    131          1           0        7.217009   -3.420790   -1.796387
    132          1           0        8.972845   -4.551812   -2.435179
    133          1           0        9.484435   -4.761422   -0.698576
    134          1           0       10.617641   -2.306660   -1.462038
    135          1           0        9.911858   -3.164369   -3.960935
    136          1           0       11.460553   -3.961475   -3.931139
    137          1           0       11.358374   -2.269330   -3.562643
    138          1           0       12.514408   -3.304895   -0.534734
    139          1           0       12.548806   -4.481796   -1.904244
    140          1           0       11.489686   -4.706177   -0.562960
 ---------------------------------------------------------------------

 SCF Done:  E(RB-LYP) =  -3007.32948699     A.U. after   21 cycles

 Excitation energies and oscillator strengths:

 Excited State   1:      Singlet-A      1.6597 eV  747.04 nm  f=0.0026  <S**2>=0.000
     244 -> 247        0.68001
     245 -> 247       -0.16985
 This state for optimization and/or second-order correction.
 Total Energy, E(TD-HF/TD-DFT) =  -3007.26849543
 Copying the excited state density for this state as the 1-particle RhoCI density.

 Excited State   2:      Singlet-A      1.8562 eV  667.94 nm  f=0.2755  <S**2>=0.000
     243 -> 247       -0.11139
     245 -> 248        0.21298
     246 -> 247        0.66701
     246 <- 247       -0.13218

 Excited State   3:      Singlet-A      1.9610 eV  632.24 nm  f=0.0135  <S**2>=0.000
     243 -> 247        0.66317
     245 -> 247       -0.19862
     246 -> 247        0.10072

 Excited State   4:      Singlet-A      2.0346 eV  609.37 nm  f=0.0542  <S**2>=0.000
     240 -> 247        0.11448
     243 -> 247        0.21328
     244 -> 247        0.14223
     245 -> 247        0.58369
     246 -> 248       -0.26770

 Excited State   5:      Singlet-A      2.1034 eV  589.46 nm  f=0.0002  <S**2>=0.000
     242 -> 247        0.70681

 The electronic state is 1-A.
 Alpha  occ. eigenvalues --  -46.28398 -18.81808 -18.80013 -18.77421 -18.76535
 Alpha  occ. eigenvalues --  -18.76317 -18.74649 -14.04164 -14.03938 -14.01091
 Alpha  occ. eigenvalues --  -14.00629 -10.04069 -10.03391  -9.99983  -9.98940
 Alpha  occ. eigenvalues --   -9.97535  -9.97487  -9.97150  -9.97071  -9.96828
 Alpha  occ. eigenvalues --   -9.96474  -9.95690  -9.95530  -9.95427  -9.95306
 Alpha  occ. eigenvalues --   -9.94611  -9.94385  -9.94304  -9.94207  -9.94053
 Alpha  occ. eigenvalues --   -9.93990  -9.93917  -9.93861  -9.93459  -9.93326
 Alpha  occ. eigenvalues --   -9.93224  -9.93209  -9.93182  -9.93121  -9.93109
 Alpha  occ. eigenvalues --   -9.92998  -9.92846  -9.92669  -9.92492  -9.92444
 Alpha  occ. eigenvalues --   -9.92162  -9.92110  -9.92078  -9.92037  -9.91847
 Alpha  occ. eigenvalues --   -9.91835  -9.91662  -9.91487  -9.91448  -9.91285
 Alpha  occ. eigenvalues --   -9.91266  -9.91076  -9.91042  -9.90700  -9.90620
 Alpha  occ. eigenvalues --   -9.90599  -9.90531  -9.90472  -9.90359  -9.90333
 Alpha  occ. eigenvalues --   -9.90012  -2.92811  -1.73239  -1.72717  -1.72498
 Alpha  occ. eigenvalues --   -0.96932  -0.96775  -0.92463  -0.90718  -0.90033
 Alpha  occ. eigenvalues --   -0.89414  -0.87625  -0.86793  -0.85986  -0.84957
 Alpha  occ. eigenvalues --   -0.75921  -0.73744  -0.73329  -0.72848  -0.72436
 Alpha  occ. eigenvalues --   -0.72140  -0.71518  -0.71123  -0.70017  -0.69717
 Alpha  occ. eigenvalues --   -0.68989  -0.68392  -0.68196  -0.67742  -0.67090
 Alpha  occ. eigenvalues --   -0.66453  -0.65929  -0.65266  -0.64601  -0.64377
 Alpha  occ. eigenvalues --   -0.63621  -0.62875  -0.62168  -0.61291  -0.60530
 Alpha  occ. eigenvalues --   -0.60157  -0.59861  -0.59792  -0.59182  -0.58257
 Alpha  occ. eigenvalues --   -0.58078  -0.57348  -0.57148  -0.55410  -0.55104
 Alpha  occ. eigenvalues --   -0.53768  -0.53231  -0.52522  -0.52068  -0.51772
 Alpha  occ. eigenvalues --   -0.51579  -0.51077  -0.50731  -0.50330  -0.50122
 Alpha  occ. eigenvalues --   -0.49490  -0.49348  -0.48414  -0.47433  -0.46893
 Alpha  occ. eigenvalues --   -0.46287  -0.45999  -0.45857  -0.45184  -0.44205
 Alpha  occ. eigenvalues --   -0.43906  -0.43600  -0.42959  -0.42642  -0.42488
 Alpha  occ. eigenvalues --   -0.42229  -0.41981  -0.41485  -0.41190  -0.40753
 Alpha  occ. eigenvalues --   -0.40662  -0.40616  -0.40410  -0.40144  -0.39961
 Alpha  occ. eigenvalues --   -0.39874  -0.39372  -0.39273  -0.39233  -0.39027
 Alpha  occ. eigenvalues --   -0.38832  -0.38576  -0.38427  -0.38324  -0.38175
 Alpha  occ. eigenvalues --   -0.38034  -0.37820  -0.37558  -0.37475  -0.37125
 Alpha  occ. eigenvalues --   -0.36942  -0.36756  -0.36689  -0.36552  -0.36432
 Alpha  occ. eigenvalues --   -0.36234  -0.35935  -0.35892  -0.35724  -0.35627
 Alpha  occ. eigenvalues --   -0.35325  -0.35123  -0.34989  -0.34714  -0.34688
 Alpha  occ. eigenvalues --   -0.34351  -0.34171  -0.34153  -0.34024  -0.33896
 Alpha  occ. eigenvalues --   -0.33624  -0.33452  -0.33318  -0.33299  -0.33023
 Alpha  occ. eigenvalues --   -0.32998  -0.32821  -0.32718  -0.32611  -0.32406
 Alpha  occ. eigenvalues --   -0.32041  -0.31970  -0.31876  -0.31701  -0.31453
 Alpha  occ. eigenvalues --   -0.31416  -0.30982  -0.30606  -0.30501  -0.30431
 Alpha  occ. eigenvalues --   -0.30237  -0.30205  -0.30036  -0.29850  -0.29732
 Alpha  occ. eigenvalues --   -0.29448  -0.29326  -0.29253  -0.29224  -0.29072
 Alpha  occ. eigenvalues --   -0.28720  -0.28509  -0.28319  -0.28031  -0.27646
 Alpha  occ. eigenvalues --   -0.27366  -0.27097  -0.27005  -0.26876  -0.26677
 Alpha  occ. eigenvalues --   -0.26293  -0.26168  -0.25406  -0.25308  -0.25222
 Alpha  occ. eigenvalues --   -0.25027  -0.24509  -0.24145  -0.23598  -0.23289
 Alpha  occ. eigenvalues --   -0.22417  -0.22255  -0.22153  -0.21467  -0.20346
 Alpha  occ. eigenvalues --   -0.19834  -0.19453  -0.18830  -0.17745  -0.17623
 Alpha  occ. eigenvalues --   -0.16289
 Alpha virt. eigenvalues --   -0.11724  -0.07582  -0.06230  -0.04658  -0.03493
 Alpha virt. eigenvalues --   -0.02909  -0.02398  -0.02263  -0.01796  -0.00312
 Alpha virt. eigenvalues --    0.00853   0.01604   0.02251   0.02631   0.02943

 Mulliken charges:
               1
     1  Mg   0.674602
     2  C   -0.000008
     3  C   -0.016099
     4  C   -0.060822
     5  C   -0.108355
     6  N   -0.172396
     7  C   -0.111155
     8  C    0.044625
     9  C   -0.047396
    10  C    0.002669
    11  C    0.169564
    12  C    0.120125
    13  C    0.155842
    14  C    0.092971
    15  O   -0.166048
    16  O   -0.313834
    17  N   -0.290351
    18  C    0.109640
    19  C   -0.159446
    20  C    0.010282
    21  C    0.123963
    22  C    0.169752
    23  C   -0.085827
    24  O   -0.186127
    25  C    0.160658
    26  N   -0.221578
    27  C   -0.020385
    28  C    0.033786
    29  C    0.027893
    30  C    0.066622
    31  C    0.120953
    32  C    0.115641
    33  C    0.044665
    34  N   -0.239678
    35  C    0.108389
    36  C   -0.172303
    37  C    0.070675
    38  C    0.129005
    39  C    0.162102
    40  C   -0.069846
    41  O   -0.104665
    42  C    0.011175
    43  C    0.122417
    44  O   -0.143023
    45  O   -0.305105
    46  C    0.218842
    47  C    0.311286
    48  C   -0.095844
    49  C   -0.145562
    50  C    0.136478
    51  C    0.154235
    52  C    0.055987
    53  C    0.112104
    54  C   -0.049579
    55  C    0.098947
    56  C    0.117240
    57  C    0.078278
    58  C    0.072066
    59  C   -0.096288
    60  C    0.092143
    61  C    0.073630
    62  C    0.071199
    63  C    0.131291
    64  C   -0.084995
    65  C    0.080737
    66  C    0.110543
    67  H   -0.065736
    68  H   -0.070502
    69  H   -0.043515
    70  H   -0.022065
    71  H   -0.028835
    72  H    0.003452
    73  H   -0.026995
    74  H    0.002488
    75  H   -0.029959
    76  H    0.002466
    77  H   -0.005645
    78  H   -0.000812
    79  H    0.026345
    80  H   -0.019847
    81  H    0.007709
    82  H    0.028597
    83  H   -0.005583
    84  H   -0.004739
    85  H   -0.018384
    86  H   -0.030455
    87  H   -0.010491
    88  H   -0.022991
    89  H   -0.004526
    90  H   -0.024676
    91  H   -0.007167
    92  H   -0.012593
    93  H    0.005769
    94  H   -0.020697
    95  H    0.018386
    96  H    0.017753
    97  H   -0.013922
    98  H   -0.003108
    99  H    0.002328
   100  H    0.014626
   101  H    0.026498
   102  H    0.014870
   103  H    0.003854
   104  H   -0.029471
   105  H   -0.009830
   106  H   -0.011677
   107  H   -0.004561
   108  H   -0.039998
   109  H   -0.030378
   110  H   -0.033976
   111  H   -0.037481
   112  H   -0.027064
   113  H   -0.033040
   114  H   -0.018542
   115  H   -0.017589
   116  H   -0.022722
   117  H   -0.037265
   118  H   -0.024701
   119  H   -0.050989
   120  H   -0.027579
   121  H   -0.010027
   122  H   -0.040964
   123  H   -0.043729
   124  H   -0.036809
   125  H   -0.033369
   126  H   -0.005082
   127  H   -0.011833
   128  H   -0.038176
   129  H   -0.036520
   130  H   -0.028475
   131  H   -0.031970
   132  H   -0.036442
   133  H   -0.022855
   134  H   -0.025992
   135  H   -0.020462
   136  H   -0.008734
   137  H   -0.024665
   138  H   -0.008723
   139  H   -0.016008
   140  H   -0.040506
 Sum of Mulliken charges =  -0.00000

 Dipole moment (field-independent basis, Debye):
    X=             -0.7975    Y=             -1.4578    Z=              0.2114  Tot=              1.6751
 Quadrupole moment (field-independent basis, Debye-Ang):
   XX=           -382.2544   YY=           -434.5553   ZZ=           -388.0245
   XY=             52.2919   XZ=             -5.7247   YZ=            -16.6000

 Normal termination of Gaussian 16 at Thu Apr 28 15:14:28 2022.
