 Gaussian 16, Revision A.03,
 Gaussian 16:  ES64L-G16RevA.03 25-Dec-2016

 -----------------------------------
 #p cam-b3lyp/Def2SVP td=(nstates=5)
 -----------------------------------

 --------------------------------------------------------
 step_1601_chromophore_20 TDDFT with cam-b3lyp functional
 --------------------------------------------------------
 Symbolic Z-matrix:
 Charge =  0 Multiplicity = 1

                         Standard orientation:
 ---------------------------------------------------------------------
 Center     Atomic      Atomic             Coordinates (Angstroms)
 Number     Number       Type             X           Y           Z
 ---------------------------------------------------------------------
      1         12           0       -4.117317   -1.418665   -0.530566
      2          6           0       -4.079215    2.137811   -1.157735
      3          6           0       -1.454518   -1.697196   -2.683004
      4          6           0       -3.857575   -4.659501    0.514596
      5          6           0       -6.336549   -0.724757    2.064730
      6          7           0       -2.936635    0.117094   -1.772639
      7          6           0       -3.020049    1.471632   -1.907400
      8          6           0       -1.962172    2.052646   -2.852969
      9          6           0       -1.498336    0.723354   -3.630531
     10          6           0       -1.982487   -0.357864   -2.615255
     11          6           0       -2.107389    0.481401   -5.010052
     12          6           0       -0.900123    2.760835   -1.992003
     13          6           0       -0.338632    4.071414   -2.380910
     14          6           0        0.308669    4.975317   -1.331343
     15          8           0       -0.059169    6.100184   -1.091934
     16          8           0        1.486684    4.372172   -0.861917
     17          7           0       -2.861118   -3.040765   -1.121126
     18          6           0       -1.841293   -2.914121   -2.040292
     19          6           0       -1.219955   -4.180771   -2.089267
     20          6           0       -1.884910   -5.076116   -1.173924
     21          6           0       -2.925209   -4.249525   -0.504465
     22          6           0       -0.170334   -4.528021   -3.218903
     23          6           0       -1.695010   -6.600755   -1.093499
     24          8           0       -0.675357   -7.137952   -1.519913
     25          6           0       -2.500436   -7.405075   -0.202515
     26          7           0       -4.843289   -2.510212    1.086650
     27          6           0       -4.787710   -3.851052    1.201827
     28          6           0       -5.667417   -4.463339    2.267908
     29          6           0       -6.305524   -3.134955    2.829505
     30          6           0       -5.774660   -2.029103    1.939134
     31          6           0       -6.552286   -5.624141    1.750024
     32          6           0       -6.010525   -2.907408    4.310764
     33          6           0       -7.081651   -3.608299    5.253506
     34          7           0       -5.128808    0.333643    0.263528
     35          6           0       -6.000376    0.388819    1.306815
     36          6           0       -6.585447    1.704337    1.354509
     37          6           0       -5.840418    2.399438    0.363039
     38          6           0       -4.904216    1.567114   -0.256021
     39          6           0       -7.746858    2.239387    2.324236
     40          6           0       -5.797124    3.655077   -0.402260
     41          8           0       -6.513569    4.621832   -0.363023
     42          6           0       -4.473606    3.557442   -1.387071
     43          6           0       -3.505529    4.656177   -0.926495
     44          8           0       -2.889952    4.749742    0.090225
     45          8           0       -3.599377    5.727851   -1.830506
     46          6           0       -3.176332    7.048181   -1.423512
     47          6           0        2.302488    5.289656    0.002436
     48          6           0        3.481681    4.623026    0.563444
     49          6           0        4.618747    5.202174    1.090791
     50          6           0        4.806521    6.697832    1.392729
     51          6           0        5.794621    4.318949    1.354441
     52          6           0        5.851390    3.795168    2.735225
     53          6           0        7.260243    3.283085    3.238810
     54          6           0        7.326881    1.667477    3.480991
     55          6           0        7.565938    1.366939    4.939388
     56          6           0        8.442955    0.976217    2.683093
     57          6           0        7.976898    0.338545    1.323840
     58          6           0        8.438373   -1.169185    1.279738
     59          6           0        7.236178   -2.053924    0.875235
     60          6           0        6.210368   -2.387997    2.088927
     61          6           0        7.743025   -3.429786    0.255443
     62          6           0        8.115388   -3.221527   -1.213277
     63          6           0        9.336602   -4.069118   -1.527581
     64          6           0       10.657251   -3.325183   -1.848193
     65          6           0       10.850893   -3.222193   -3.411337
     66          6           0       11.922845   -3.934399   -1.198824
     67          1           0       -0.668680   -1.859889   -3.423575
     68          1           0       -3.815419   -5.681286    0.898156
     69          1           0       -7.245501   -0.570951    2.649013
     70          1           0       -2.391823    2.746252   -3.577384
     71          1           0       -0.435481    0.516693   -3.754446
     72          1           0       -1.369466    0.276598   -5.784637
     73          1           0       -2.505954    1.481223   -5.178959
     74          1           0       -2.943640   -0.210313   -4.914672
     75          1           0       -0.022784    2.114406   -1.974388
     76          1           0       -1.245259    2.686891   -0.960313
     77          1           0       -1.158152    4.709412   -2.713208
     78          1           0        0.400594    3.858631   -3.152918
     79          1           0        0.709446   -4.715838   -2.604115
     80          1           0       -0.123987   -3.780077   -4.010219
     81          1           0       -0.585887   -5.370225   -3.772901
     82          1           0       -2.275116   -7.169027    0.837169
     83          1           0       -2.286920   -8.450703   -0.420477
     84          1           0       -3.534430   -7.118182   -0.394376
     85          1           0       -5.004100   -4.942865    2.989176
     86          1           0       -7.376236   -3.228391    2.645823
     87          1           0       -6.146641   -5.990599    0.807280
     88          1           0       -7.561088   -5.311768    1.479163
     89          1           0       -6.708302   -6.470938    2.417903
     90          1           0       -6.203120   -1.841250    4.425678
     91          1           0       -5.034310   -3.273689    4.628327
     92          1           0       -7.662620   -2.746661    5.582670
     93          1           0       -6.802489   -4.261171    6.080805
     94          1           0       -7.797590   -4.159472    4.644158
     95          1           0       -8.678423    2.394590    1.779795
     96          1           0       -7.436033    3.178366    2.782178
     97          1           0       -7.844398    1.467225    3.087378
     98          1           0       -4.847171    3.754915   -2.392494
     99          1           0       -3.974651    7.693856   -1.790890
    100          1           0       -2.288852    7.229477   -2.029598
    101          1           0       -3.018197    7.184806   -0.354257
    102          1           0        1.737262    5.690877    0.843936
    103          1           0        2.522517    6.120762   -0.667218
    104          1           0        3.576632    3.569387    0.299863
    105          1           0        4.937533    6.830186    2.466350
    106          1           0        3.961284    7.335827    1.138646
    107          1           0        5.719672    7.135196    0.988444
    108          1           0        6.745094    4.827225    1.195991
    109          1           0        5.685977    3.479740    0.666976
    110          1           0        5.140866    2.973023    2.820326
    111          1           0        5.500036    4.566464    3.419265
    112          1           0        7.437904    3.894470    4.122814
    113          1           0        8.042850    3.554791    2.530229
    114          1           0        6.360297    1.203637    3.287538
    115          1           0        6.909528    0.602258    5.357605
    116          1           0        7.640860    2.309113    5.483021
    117          1           0        8.502254    0.864635    5.181091
    118          1           0        9.158201    0.380421    3.250863
    119          1           0        9.128922    1.724134    2.285742
    120          1           0        8.433610    0.841528    0.470781
    121          1           0        6.899377    0.298613    1.170357
    122          1           0        8.839538   -1.688260    2.150019
    123          1           0        9.305556   -1.269702    0.626197
    124          1           0        6.749390   -1.533875    0.050483
    125          1           0        6.013598   -1.558786    2.767068
    126          1           0        6.615252   -3.189916    2.706967
    127          1           0        5.187902   -2.528627    1.740093
    128          1           0        6.934590   -4.146908    0.395485
    129          1           0        8.527742   -3.824267    0.901588
    130          1           0        8.310992   -2.163090   -1.382997
    131          1           0        7.217009   -3.420790   -1.796387
    132          1           0        8.972845   -4.551812   -2.435179
    133          1           0        9.484435   -4.761422   -0.698576
    134          1           0       10.617641   -2.306660   -1.462038
    135          1           0        9.911858   -3.164369   -3.960935
    136          1           0       11.460553   -3.961475   -3.931139
    137          1           0       11.358374   -2.269330   -3.562643
    138          1           0       12.514408   -3.304895   -0.534734
    139          1           0       12.548806   -4.481796   -1.904244
    140          1           0       11.489686   -4.706177   -0.562960
 ---------------------------------------------------------------------

 SCF Done:  E(RCAM-B3LYP) =  -3007.11560155     A.U. after   17 cycles

 Excitation energies and oscillator strengths:

 Excited State   1:      Singlet-A      1.7510 eV  708.09 nm  f=0.3617  <S**2>=0.000
     245 -> 248        0.20189
     246 -> 247        0.67959
     245 <- 248        0.11136
 This state for optimization and/or second-order correction.
 Total Energy, E(TD-HF/TD-DFT) =  -3007.05125428
 Copying the excited state density for this state as the 1-particle RhoCI density.

 Excited State   2:      Singlet-A      2.2632 eV  547.84 nm  f=0.0774  <S**2>=0.000
     245 -> 247        0.61975
     246 -> 248       -0.32671

 Excited State   3:      Singlet-A      3.2034 eV  387.04 nm  f=0.0025  <S**2>=0.000
     242 -> 247       -0.13293
     244 -> 247        0.66715
     244 -> 249        0.10661

 Excited State   4:      Singlet-A      3.3022 eV  375.46 nm  f=0.0219  <S**2>=0.000
     240 -> 247       -0.18945
     240 -> 249        0.11797
     242 -> 247        0.59650
     246 -> 248        0.22114

 Excited State   5:      Singlet-A      3.4358 eV  360.86 nm  f=0.0643  <S**2>=0.000
     240 -> 247        0.55261
     240 -> 249       -0.23907
     240 -> 251       -0.12623
     242 -> 247        0.16685
     246 -> 248        0.22907

 The electronic state is 1-A.
 Alpha  occ. eigenvalues --  -46.90069 -19.24633 -19.23005 -19.20466 -19.19957
 Alpha  occ. eigenvalues --  -19.19704 -19.17664 -14.43346 -14.42644 -14.39453
 Alpha  occ. eigenvalues --  -14.39056 -10.39417 -10.39160 -10.35580 -10.33888
 Alpha  occ. eigenvalues --  -10.32175 -10.31803 -10.31556 -10.31415 -10.31279
 Alpha  occ. eigenvalues --  -10.30871 -10.29997 -10.29639 -10.29505 -10.29429
 Alpha  occ. eigenvalues --  -10.28823 -10.28746 -10.28671 -10.28658 -10.28573
 Alpha  occ. eigenvalues --  -10.28305 -10.28305 -10.27805 -10.27730 -10.27386
 Alpha  occ. eigenvalues --  -10.27376 -10.27101 -10.27091 -10.27052 -10.26986
 Alpha  occ. eigenvalues --  -10.26706 -10.26574 -10.26561 -10.26507 -10.26150
 Alpha  occ. eigenvalues --  -10.25843 -10.25838 -10.25820 -10.25815 -10.25786
 Alpha  occ. eigenvalues --  -10.25778 -10.25644 -10.25400 -10.25332 -10.24944
 Alpha  occ. eigenvalues --  -10.24905 -10.24701 -10.24653 -10.24336 -10.24277
 Alpha  occ. eigenvalues --  -10.24184 -10.24123 -10.24043 -10.24016 -10.23940
 Alpha  occ. eigenvalues --  -10.23547  -3.18374  -1.93282  -1.92852  -1.92637
 Alpha  occ. eigenvalues --   -1.15628  -1.15362  -1.11106  -1.08933  -1.07844
 Alpha  occ. eigenvalues --   -1.07493  -1.05370  -1.04626  -1.03689  -1.02365
 Alpha  occ. eigenvalues --   -0.93272  -0.90628  -0.90177  -0.89526  -0.89205
 Alpha  occ. eigenvalues --   -0.88783  -0.88161  -0.87717  -0.86521  -0.86163
 Alpha  occ. eigenvalues --   -0.85509  -0.84771  -0.84462  -0.84017  -0.83343
 Alpha  occ. eigenvalues --   -0.82536  -0.81983  -0.81214  -0.80431  -0.80199
 Alpha  occ. eigenvalues --   -0.79401  -0.78584  -0.77720  -0.76784  -0.75885
 Alpha  occ. eigenvalues --   -0.75552  -0.75210  -0.75118  -0.74431  -0.73442
 Alpha  occ. eigenvalues --   -0.73147  -0.72312  -0.72100  -0.70218  -0.69710
 Alpha  occ. eigenvalues --   -0.68424  -0.67756  -0.66862  -0.66146  -0.66087
 Alpha  occ. eigenvalues --   -0.65801  -0.65288  -0.64744  -0.64402  -0.64147
 Alpha  occ. eigenvalues --   -0.63337  -0.63266  -0.62307  -0.61244  -0.60518
 Alpha  occ. eigenvalues --   -0.59872  -0.59456  -0.59306  -0.58625  -0.58047
 Alpha  occ. eigenvalues --   -0.57380  -0.56948  -0.56075  -0.55811  -0.55579
 Alpha  occ. eigenvalues --   -0.55269  -0.54994  -0.54403  -0.54291  -0.53578
 Alpha  occ. eigenvalues --   -0.53453  -0.53291  -0.53238  -0.53185  -0.52809
 Alpha  occ. eigenvalues --   -0.52543  -0.52325  -0.51971  -0.51935  -0.51736
 Alpha  occ. eigenvalues --   -0.51449  -0.51308  -0.51047  -0.50899  -0.50694
 Alpha  occ. eigenvalues --   -0.50431  -0.50054  -0.49838  -0.49741  -0.49661
 Alpha  occ. eigenvalues --   -0.49223  -0.49018  -0.48922  -0.48779  -0.48580
 Alpha  occ. eigenvalues --   -0.48436  -0.48139  -0.47996  -0.47875  -0.47788
 Alpha  occ. eigenvalues --   -0.47593  -0.47038  -0.46917  -0.46819  -0.46666
 Alpha  occ. eigenvalues --   -0.46500  -0.46279  -0.46161  -0.45971  -0.45675
 Alpha  occ. eigenvalues --   -0.45444  -0.45172  -0.45140  -0.44913  -0.44820
 Alpha  occ. eigenvalues --   -0.44605  -0.44565  -0.44453  -0.44290  -0.44165
 Alpha  occ. eigenvalues --   -0.43975  -0.43606  -0.43400  -0.43144  -0.42979
 Alpha  occ. eigenvalues --   -0.42927  -0.42535  -0.42004  -0.41786  -0.41739
 Alpha  occ. eigenvalues --   -0.41621  -0.41405  -0.41240  -0.41153  -0.41047
 Alpha  occ. eigenvalues --   -0.40927  -0.40750  -0.40642  -0.40392  -0.40350
 Alpha  occ. eigenvalues --   -0.40301  -0.39536  -0.39488  -0.38916  -0.38525
 Alpha  occ. eigenvalues --   -0.38200  -0.37941  -0.37792  -0.37542  -0.37448
 Alpha  occ. eigenvalues --   -0.37246  -0.37020  -0.36779  -0.36545  -0.35978
 Alpha  occ. eigenvalues --   -0.35664  -0.35103  -0.34637  -0.34562  -0.34446
 Alpha  occ. eigenvalues --   -0.33964  -0.33698  -0.32482  -0.31260  -0.30689
 Alpha  occ. eigenvalues --   -0.30248  -0.29746  -0.28939  -0.28835  -0.24410
 Alpha  occ. eigenvalues --   -0.21594
 Alpha virt. eigenvalues --   -0.08755  -0.02650   0.00290   0.01534   0.02463
 Alpha virt. eigenvalues --    0.04643   0.04738   0.05204   0.05495   0.06920
 Alpha virt. eigenvalues --    0.07772   0.08197   0.08496   0.08809   0.09312

 Mulliken charges:
               1
     1  Mg   0.804714
     2  C   -0.020088
     3  C   -0.022004
     4  C   -0.084192
     5  C   -0.118893
     6  N   -0.233404
     7  C   -0.068445
     8  C   -0.006022
     9  C   -0.092864
    10  C    0.010118
    11  C    0.109478
    12  C    0.061475
    13  C    0.086757
    14  C    0.175279
    15  O   -0.206853
    16  O   -0.378153
    17  N   -0.378353
    18  C    0.110492
    19  C   -0.159890
    20  C   -0.056945
    21  C    0.154185
    22  C    0.115620
    23  C   -0.007949
    24  O   -0.224174
    25  C    0.068608
    26  N   -0.300677
    27  C    0.006868
    28  C   -0.021627
    29  C   -0.035303
    30  C    0.090676
    31  C    0.062924
    32  C    0.056641
    33  C   -0.013426
    34  N   -0.329503
    35  C    0.115867
    36  C   -0.171880
    37  C    0.005103
    38  C    0.148727
    39  C    0.123200
    40  C    0.024907
    41  O   -0.141932
    42  C   -0.061100
    43  C    0.207430
    44  O   -0.175687
    45  O   -0.368182
    46  C    0.180603
    47  C    0.278967
    48  C   -0.116343
    49  C   -0.170919
    50  C    0.078460
    51  C    0.091960
    52  C    0.005993
    53  C    0.061726
    54  C   -0.107888
    55  C    0.042834
    56  C    0.059133
    57  C    0.028662
    58  C    0.025170
    59  C   -0.153966
    60  C    0.037361
    61  C    0.022951
    62  C    0.019518
    63  C    0.068977
    64  C   -0.144518
    65  C    0.025247
    66  C    0.052267
    67  H   -0.029926
    68  H   -0.035411
    69  H   -0.011173
    70  H    0.012792
    71  H    0.006357
    72  H    0.028233
    73  H   -0.003222
    74  H    0.028527
    75  H    0.003771
    76  H    0.035972
    77  H    0.021739
    78  H    0.031427
    79  H    0.052199
    80  H    0.004807
    81  H    0.033220
    82  H    0.055193
    83  H    0.030594
    84  H    0.020576
    85  H    0.016878
    86  H    0.005649
    87  H    0.014348
    88  H    0.002559
    89  H    0.020621
    90  H    0.006415
    91  H    0.021392
    92  H    0.010626
    93  H    0.029814
    94  H    0.001544
    95  H    0.043765
    96  H    0.043273
    97  H    0.008505
    98  H    0.042086
    99  H    0.025342
   100  H    0.036172
   101  H    0.050986
   102  H    0.042129
   103  H    0.031153
   104  H    0.005584
   105  H    0.013714
   106  H    0.012847
   107  H    0.020413
   108  H   -0.009793
   109  H   -0.001161
   110  H   -0.006083
   111  H   -0.008833
   112  H    0.001590
   113  H   -0.006173
   114  H    0.009521
   115  H    0.006602
   116  H    0.001317
   117  H   -0.012012
   118  H    0.004622
   119  H   -0.020559
   120  H    0.000927
   121  H    0.013728
   122  H   -0.013896
   123  H   -0.016067
   124  H   -0.006551
   125  H   -0.011591
   126  H    0.017136
   127  H    0.013319
   128  H   -0.006944
   129  H   -0.010389
   130  H   -0.002547
   131  H   -0.001476
   132  H   -0.005813
   133  H    0.004454
   134  H    0.003593
   135  H    0.002514
   136  H    0.014216
   137  H   -0.000287
   138  H    0.015436
   139  H    0.007922
   140  H   -0.015930
 Sum of Mulliken charges =  -0.00000

 Dipole moment (field-independent basis, Debye):
    X=             -1.0479    Y=             -1.3819    Z=              0.1783  Tot=              1.7434
 Quadrupole moment (field-independent basis, Debye-Ang):
   XX=           -379.1877   YY=           -432.6798   ZZ=           -386.3232
   XY=             53.4031   XZ=             -6.4727   YZ=            -17.6957

 Normal termination of Gaussian 16 at Thu Apr 28 14:19:13 2022.
