 Gaussian 16, Revision A.03,
 Gaussian 16:  ES64L-G16RevA.03 25-Dec-2016

 ---------------------------------
 #p PBE1PBE/Def2SVP td=(nstates=5)
 ---------------------------------

 ------------------------------------------------------
 step_1601_chromophore_20 TDDFT with PBE1PBE functional
 ------------------------------------------------------
 Symbolic Z-matrix:
 Charge =  0 Multiplicity = 1

                         Standard orientation:
 ---------------------------------------------------------------------
 Center     Atomic      Atomic             Coordinates (Angstroms)
 Number     Number       Type             X           Y           Z
 ---------------------------------------------------------------------
      1         12           0       -4.117317   -1.418665   -0.530566
      2          6           0       -4.079215    2.137811   -1.157735
      3          6           0       -1.454518   -1.697196   -2.683004
      4          6           0       -3.857575   -4.659501    0.514596
      5          6           0       -6.336549   -0.724757    2.064730
      6          7           0       -2.936635    0.117094   -1.772639
      7          6           0       -3.020049    1.471632   -1.907400
      8          6           0       -1.962172    2.052646   -2.852969
      9          6           0       -1.498336    0.723354   -3.630531
     10          6           0       -1.982487   -0.357864   -2.615255
     11          6           0       -2.107389    0.481401   -5.010052
     12          6           0       -0.900123    2.760835   -1.992003
     13          6           0       -0.338632    4.071414   -2.380910
     14          6           0        0.308669    4.975317   -1.331343
     15          8           0       -0.059169    6.100184   -1.091934
     16          8           0        1.486684    4.372172   -0.861917
     17          7           0       -2.861118   -3.040765   -1.121126
     18          6           0       -1.841293   -2.914121   -2.040292
     19          6           0       -1.219955   -4.180771   -2.089267
     20          6           0       -1.884910   -5.076116   -1.173924
     21          6           0       -2.925209   -4.249525   -0.504465
     22          6           0       -0.170334   -4.528021   -3.218903
     23          6           0       -1.695010   -6.600755   -1.093499
     24          8           0       -0.675357   -7.137952   -1.519913
     25          6           0       -2.500436   -7.405075   -0.202515
     26          7           0       -4.843289   -2.510212    1.086650
     27          6           0       -4.787710   -3.851052    1.201827
     28          6           0       -5.667417   -4.463339    2.267908
     29          6           0       -6.305524   -3.134955    2.829505
     30          6           0       -5.774660   -2.029103    1.939134
     31          6           0       -6.552286   -5.624141    1.750024
     32          6           0       -6.010525   -2.907408    4.310764
     33          6           0       -7.081651   -3.608299    5.253506
     34          7           0       -5.128808    0.333643    0.263528
     35          6           0       -6.000376    0.388819    1.306815
     36          6           0       -6.585447    1.704337    1.354509
     37          6           0       -5.840418    2.399438    0.363039
     38          6           0       -4.904216    1.567114   -0.256021
     39          6           0       -7.746858    2.239387    2.324236
     40          6           0       -5.797124    3.655077   -0.402260
     41          8           0       -6.513569    4.621832   -0.363023
     42          6           0       -4.473606    3.557442   -1.387071
     43          6           0       -3.505529    4.656177   -0.926495
     44          8           0       -2.889952    4.749742    0.090225
     45          8           0       -3.599377    5.727851   -1.830506
     46          6           0       -3.176332    7.048181   -1.423512
     47          6           0        2.302488    5.289656    0.002436
     48          6           0        3.481681    4.623026    0.563444
     49          6           0        4.618747    5.202174    1.090791
     50          6           0        4.806521    6.697832    1.392729
     51          6           0        5.794621    4.318949    1.354441
     52          6           0        5.851390    3.795168    2.735225
     53          6           0        7.260243    3.283085    3.238810
     54          6           0        7.326881    1.667477    3.480991
     55          6           0        7.565938    1.366939    4.939388
     56          6           0        8.442955    0.976217    2.683093
     57          6           0        7.976898    0.338545    1.323840
     58          6           0        8.438373   -1.169185    1.279738
     59          6           0        7.236178   -2.053924    0.875235
     60          6           0        6.210368   -2.387997    2.088927
     61          6           0        7.743025   -3.429786    0.255443
     62          6           0        8.115388   -3.221527   -1.213277
     63          6           0        9.336602   -4.069118   -1.527581
     64          6           0       10.657251   -3.325183   -1.848193
     65          6           0       10.850893   -3.222193   -3.411337
     66          6           0       11.922845   -3.934399   -1.198824
     67          1           0       -0.668680   -1.859889   -3.423575
     68          1           0       -3.815419   -5.681286    0.898156
     69          1           0       -7.245501   -0.570951    2.649013
     70          1           0       -2.391823    2.746252   -3.577384
     71          1           0       -0.435481    0.516693   -3.754446
     72          1           0       -1.369466    0.276598   -5.784637
     73          1           0       -2.505954    1.481223   -5.178959
     74          1           0       -2.943640   -0.210313   -4.914672
     75          1           0       -0.022784    2.114406   -1.974388
     76          1           0       -1.245259    2.686891   -0.960313
     77          1           0       -1.158152    4.709412   -2.713208
     78          1           0        0.400594    3.858631   -3.152918
     79          1           0        0.709446   -4.715838   -2.604115
     80          1           0       -0.123987   -3.780077   -4.010219
     81          1           0       -0.585887   -5.370225   -3.772901
     82          1           0       -2.275116   -7.169027    0.837169
     83          1           0       -2.286920   -8.450703   -0.420477
     84          1           0       -3.534430   -7.118182   -0.394376
     85          1           0       -5.004100   -4.942865    2.989176
     86          1           0       -7.376236   -3.228391    2.645823
     87          1           0       -6.146641   -5.990599    0.807280
     88          1           0       -7.561088   -5.311768    1.479163
     89          1           0       -6.708302   -6.470938    2.417903
     90          1           0       -6.203120   -1.841250    4.425678
     91          1           0       -5.034310   -3.273689    4.628327
     92          1           0       -7.662620   -2.746661    5.582670
     93          1           0       -6.802489   -4.261171    6.080805
     94          1           0       -7.797590   -4.159472    4.644158
     95          1           0       -8.678423    2.394590    1.779795
     96          1           0       -7.436033    3.178366    2.782178
     97          1           0       -7.844398    1.467225    3.087378
     98          1           0       -4.847171    3.754915   -2.392494
     99          1           0       -3.974651    7.693856   -1.790890
    100          1           0       -2.288852    7.229477   -2.029598
    101          1           0       -3.018197    7.184806   -0.354257
    102          1           0        1.737262    5.690877    0.843936
    103          1           0        2.522517    6.120762   -0.667218
    104          1           0        3.576632    3.569387    0.299863
    105          1           0        4.937533    6.830186    2.466350
    106          1           0        3.961284    7.335827    1.138646
    107          1           0        5.719672    7.135196    0.988444
    108          1           0        6.745094    4.827225    1.195991
    109          1           0        5.685977    3.479740    0.666976
    110          1           0        5.140866    2.973023    2.820326
    111          1           0        5.500036    4.566464    3.419265
    112          1           0        7.437904    3.894470    4.122814
    113          1           0        8.042850    3.554791    2.530229
    114          1           0        6.360297    1.203637    3.287538
    115          1           0        6.909528    0.602258    5.357605
    116          1           0        7.640860    2.309113    5.483021
    117          1           0        8.502254    0.864635    5.181091
    118          1           0        9.158201    0.380421    3.250863
    119          1           0        9.128922    1.724134    2.285742
    120          1           0        8.433610    0.841528    0.470781
    121          1           0        6.899377    0.298613    1.170357
    122          1           0        8.839538   -1.688260    2.150019
    123          1           0        9.305556   -1.269702    0.626197
    124          1           0        6.749390   -1.533875    0.050483
    125          1           0        6.013598   -1.558786    2.767068
    126          1           0        6.615252   -3.189916    2.706967
    127          1           0        5.187902   -2.528627    1.740093
    128          1           0        6.934590   -4.146908    0.395485
    129          1           0        8.527742   -3.824267    0.901588
    130          1           0        8.310992   -2.163090   -1.382997
    131          1           0        7.217009   -3.420790   -1.796387
    132          1           0        8.972845   -4.551812   -2.435179
    133          1           0        9.484435   -4.761422   -0.698576
    134          1           0       10.617641   -2.306660   -1.462038
    135          1           0        9.911858   -3.164369   -3.960935
    136          1           0       11.460553   -3.961475   -3.931139
    137          1           0       11.358374   -2.269330   -3.562643
    138          1           0       12.514408   -3.304895   -0.534734
    139          1           0       12.548806   -4.481796   -1.904244
    140          1           0       11.489686   -4.706177   -0.562960
 ---------------------------------------------------------------------

 SCF Done:  E(RPBE1PBE) =  -3005.30488638     A.U. after   15 cycles

 Excitation energies and oscillator strengths:

 Excited State   1:      Singlet-A      1.9090 eV  649.47 nm  f=0.3506  <S**2>=0.000
     245 -> 248        0.19775
     246 -> 247        0.68532
 This state for optimization and/or second-order correction.
 Total Energy, E(TD-HF/TD-DFT) =  -3005.23473172
 Copying the excited state density for this state as the 1-particle RhoCI density.

 Excited State   2:      Singlet-A      2.2596 eV  548.69 nm  f=0.0773  <S**2>=0.000
     245 -> 247        0.63270
     246 -> 248       -0.29762

 Excited State   3:      Singlet-A      2.7560 eV  449.86 nm  f=0.0027  <S**2>=0.000
     243 -> 247        0.68912

 Excited State   4:      Singlet-A      2.8900 eV  429.02 nm  f=0.0006  <S**2>=0.000
     240 -> 247        0.31573
     240 -> 249       -0.10152
     241 -> 247       -0.23077
     242 -> 247        0.56121

 Excited State   5:      Singlet-A      2.9893 eV  414.76 nm  f=0.0013  <S**2>=0.000
     240 -> 247       -0.17943
     241 -> 247        0.56297
     242 -> 247        0.33974

 The electronic state is 1-A.
 Alpha  occ. eigenvalues --  -46.93435 -19.25322 -19.23605 -19.20684 -19.19982
 Alpha  occ. eigenvalues --  -19.19784 -19.17998 -14.42697 -14.42251 -14.39164
 Alpha  occ. eigenvalues --  -14.38676 -10.36434 -10.36028 -10.32625 -10.31133
 Alpha  occ. eigenvalues --  -10.29908 -10.29428 -10.29295 -10.29023 -10.28914
 Alpha  occ. eigenvalues --  -10.28625 -10.27528 -10.27297 -10.27292 -10.26827
 Alpha  occ. eigenvalues --  -10.26498 -10.26488 -10.26254 -10.26243 -10.26160
 Alpha  occ. eigenvalues --  -10.26149 -10.25871 -10.25622 -10.25530 -10.25024
 Alpha  occ. eigenvalues --  -10.24947 -10.24806 -10.24766 -10.24626 -10.24541
 Alpha  occ. eigenvalues --  -10.24500 -10.24232 -10.24127 -10.24006 -10.23513
 Alpha  occ. eigenvalues --  -10.23502 -10.23502 -10.23408 -10.23391 -10.23333
 Alpha  occ. eigenvalues --  -10.23294 -10.23289 -10.23009 -10.22730 -10.22502
 Alpha  occ. eigenvalues --  -10.22400 -10.22168 -10.22107 -10.21921 -10.21846
 Alpha  occ. eigenvalues --  -10.21658 -10.21593 -10.21587 -10.21508 -10.21440
 Alpha  occ. eigenvalues --  -10.20937  -3.15328  -1.88174  -1.87724  -1.87511
 Alpha  occ. eigenvalues --   -1.10262  -1.10115  -1.05745  -1.03779  -1.02704
 Alpha  occ. eigenvalues --   -1.02236  -1.00004  -0.99191  -0.98302  -0.97132
 Alpha  occ. eigenvalues --   -0.87531  -0.84764  -0.84355  -0.83821  -0.83279
 Alpha  occ. eigenvalues --   -0.83153  -0.82271  -0.82015  -0.80665  -0.80412
 Alpha  occ. eigenvalues --   -0.79766  -0.79132  -0.78665  -0.78282  -0.77590
 Alpha  occ. eigenvalues --   -0.76685  -0.76279  -0.75486  -0.74719  -0.74449
 Alpha  occ. eigenvalues --   -0.73526  -0.72820  -0.72005  -0.71147  -0.70031
 Alpha  occ. eigenvalues --   -0.69844  -0.69556  -0.69202  -0.68537  -0.67627
 Alpha  occ. eigenvalues --   -0.67555  -0.66721  -0.66460  -0.64517  -0.64085
 Alpha  occ. eigenvalues --   -0.62862  -0.61977  -0.61310  -0.60582  -0.60328
 Alpha  occ. eigenvalues --   -0.60287  -0.59483  -0.59322  -0.58935  -0.58265
 Alpha  occ. eigenvalues --   -0.57740  -0.57476  -0.56504  -0.55740  -0.54896
 Alpha  occ. eigenvalues --   -0.54423  -0.54038  -0.53876  -0.53256  -0.52333
 Alpha  occ. eigenvalues --   -0.51987  -0.51389  -0.50698  -0.50294  -0.50064
 Alpha  occ. eigenvalues --   -0.49786  -0.49496  -0.48938  -0.48740  -0.48118
 Alpha  occ. eigenvalues --   -0.47957  -0.47777  -0.47712  -0.47626  -0.47346
 Alpha  occ. eigenvalues --   -0.47119  -0.46886  -0.46492  -0.46389  -0.46244
 Alpha  occ. eigenvalues --   -0.45999  -0.45855  -0.45511  -0.45387  -0.45203
 Alpha  occ. eigenvalues --   -0.45034  -0.44654  -0.44401  -0.44351  -0.44250
 Alpha  occ. eigenvalues --   -0.43778  -0.43654  -0.43527  -0.43323  -0.43209
 Alpha  occ. eigenvalues --   -0.43049  -0.42797  -0.42640  -0.42564  -0.42456
 Alpha  occ. eigenvalues --   -0.42213  -0.41733  -0.41544  -0.41482  -0.41359
 Alpha  occ. eigenvalues --   -0.41223  -0.40951  -0.40815  -0.40558  -0.40370
 Alpha  occ. eigenvalues --   -0.40143  -0.39950  -0.39875  -0.39554  -0.39517
 Alpha  occ. eigenvalues --   -0.39338  -0.39259  -0.39199  -0.39087  -0.38872
 Alpha  occ. eigenvalues --   -0.38660  -0.38331  -0.38262  -0.37900  -0.37812
 Alpha  occ. eigenvalues --   -0.37783  -0.37283  -0.36829  -0.36655  -0.36521
 Alpha  occ. eigenvalues --   -0.36384  -0.36148  -0.36098  -0.35924  -0.35890
 Alpha  occ. eigenvalues --   -0.35769  -0.35613  -0.35502  -0.35218  -0.35106
 Alpha  occ. eigenvalues --   -0.35062  -0.34428  -0.34233  -0.33728  -0.33324
 Alpha  occ. eigenvalues --   -0.32974  -0.32915  -0.32613  -0.32559  -0.32301
 Alpha  occ. eigenvalues --   -0.32243  -0.31926  -0.31684  -0.31543  -0.30775
 Alpha  occ. eigenvalues --   -0.30462  -0.29954  -0.29751  -0.29630  -0.29553
 Alpha  occ. eigenvalues --   -0.28899  -0.28742  -0.27475  -0.26929  -0.25687
 Alpha  occ. eigenvalues --   -0.25278  -0.25135  -0.24302  -0.24231  -0.21354
 Alpha  occ. eigenvalues --   -0.19247
 Alpha virt. eigenvalues --   -0.11288  -0.06066  -0.03924  -0.02043  -0.01219
 Alpha virt. eigenvalues --    0.00243   0.00366   0.00808   0.01126   0.02721
 Alpha virt. eigenvalues --    0.03983   0.04154   0.05034   0.05586   0.05993

 Mulliken charges:
               1
     1  Mg   0.942857
     2  C   -0.020788
     3  C   -0.019963
     4  C   -0.077932
     5  C   -0.098977
     6  N   -0.332290
     7  C    0.014969
     8  C   -0.084295
     9  C   -0.164298
    10  C    0.047220
    11  C    0.052989
    12  C    0.023083
    13  C   -0.002895
    14  C    0.245559
    15  O   -0.240375
    16  O   -0.406669
    17  N   -0.495419
    18  C    0.142778
    19  C   -0.185403
    20  C   -0.101366
    21  C    0.192474
    22  C    0.055018
    23  C    0.043266
    24  O   -0.256180
    25  C   -0.014737
    26  N   -0.408108
    27  C    0.040952
    28  C   -0.089336
    29  C   -0.115989
    30  C    0.121780
    31  C    0.005629
    32  C   -0.008324
    33  C   -0.081243
    34  N   -0.454752
    35  C    0.130325
    36  C   -0.178144
    37  C   -0.042929
    38  C    0.177402
    39  C    0.067686
    40  C    0.115634
    41  O   -0.187419
    42  C   -0.166066
    43  C    0.297134
    44  O   -0.213856
    45  O   -0.400829
    46  C    0.127955
    47  C    0.242490
    48  C   -0.127656
    49  C   -0.217762
    50  C    0.020039
    51  C    0.021533
    52  C   -0.054535
    53  C    0.012529
    54  C   -0.199420
    55  C   -0.010267
    56  C    0.006815
    57  C   -0.034234
    58  C   -0.020142
    59  C   -0.248810
    60  C   -0.024339
    61  C   -0.028022
    62  C   -0.039036
    63  C    0.007635
    64  C   -0.237549
    65  C   -0.034453
    66  C   -0.006240
    67  H    0.001260
    68  H   -0.003098
    69  H    0.020172
    70  H    0.048362
    71  H    0.041723
    72  H    0.055024
    73  H    0.026822
    74  H    0.056739
    75  H    0.037048
    76  H    0.068994
    77  H    0.057023
    78  H    0.063605
    79  H    0.079690
    80  H    0.031252
    81  H    0.060886
    82  H    0.082477
    83  H    0.059099
    84  H    0.048462
    85  H    0.053545
    86  H    0.042804
    87  H    0.042208
    88  H    0.030707
    89  H    0.047651
    90  H    0.041775
    91  H    0.052698
    92  H    0.038549
    93  H    0.056404
    94  H    0.029572
    95  H    0.070315
    96  H    0.070098
    97  H    0.034750
    98  H    0.076969
    99  H    0.048109
   100  H    0.057984
   101  H    0.071173
   102  H    0.068277
   103  H    0.057324
   104  H    0.034908
   105  H    0.041101
   106  H    0.039462
   107  H    0.047139
   108  H    0.023315
   109  H    0.032051
   110  H    0.027133
   111  H    0.025125
   112  H    0.032371
   113  H    0.024667
   114  H    0.046092
   115  H    0.033401
   116  H    0.028360
   117  H    0.014974
   118  H    0.034127
   119  H    0.012837
   120  H    0.033049
   121  H    0.044980
   122  H    0.017484
   123  H    0.019362
   124  H    0.032032
   125  H    0.018114
   126  H    0.043876
   127  H    0.041086
   128  H    0.026604
   129  H    0.021088
   130  H    0.029715
   131  H    0.031148
   132  H    0.027538
   133  H    0.035311
   134  H    0.041825
   135  H    0.030296
   136  H    0.040644
   137  H    0.028102
   138  H    0.042210
   139  H    0.034951
   140  H    0.012359
 Sum of Mulliken charges =  -0.00000

 Dipole moment (field-independent basis, Debye):
    X=             -1.0109    Y=             -1.6616    Z=              0.1763  Tot=              1.9529
 Quadrupole moment (field-independent basis, Debye-Ang):
   XX=           -375.8245   YY=           -428.6868   ZZ=           -382.5683
   XY=             54.8127   XZ=             -7.4229   YZ=            -18.1278

 Normal termination of Gaussian 16 at Thu Apr 28 14:37:03 2022.
