 Gaussian 16, Revision A.03,
 Gaussian 16:  ES64L-G16RevA.03 25-Dec-2016

 --------------------------------
 #p wB97XD/Def2SVP td=(nstates=5)
 --------------------------------

 -----------------------------------------------------
 step_1601_chromophore_20 TDDFT with wB97XD functional
 -----------------------------------------------------
 Symbolic Z-matrix:
 Charge =  0 Multiplicity = 1

                         Standard orientation:
 ---------------------------------------------------------------------
 Center     Atomic      Atomic             Coordinates (Angstroms)
 Number     Number       Type             X           Y           Z
 ---------------------------------------------------------------------
      1         12           0       -4.117317   -1.418665   -0.530566
      2          6           0       -4.079215    2.137811   -1.157735
      3          6           0       -1.454518   -1.697196   -2.683004
      4          6           0       -3.857575   -4.659501    0.514596
      5          6           0       -6.336549   -0.724757    2.064730
      6          7           0       -2.936635    0.117094   -1.772639
      7          6           0       -3.020049    1.471632   -1.907400
      8          6           0       -1.962172    2.052646   -2.852969
      9          6           0       -1.498336    0.723354   -3.630531
     10          6           0       -1.982487   -0.357864   -2.615255
     11          6           0       -2.107389    0.481401   -5.010052
     12          6           0       -0.900123    2.760835   -1.992003
     13          6           0       -0.338632    4.071414   -2.380910
     14          6           0        0.308669    4.975317   -1.331343
     15          8           0       -0.059169    6.100184   -1.091934
     16          8           0        1.486684    4.372172   -0.861917
     17          7           0       -2.861118   -3.040765   -1.121126
     18          6           0       -1.841293   -2.914121   -2.040292
     19          6           0       -1.219955   -4.180771   -2.089267
     20          6           0       -1.884910   -5.076116   -1.173924
     21          6           0       -2.925209   -4.249525   -0.504465
     22          6           0       -0.170334   -4.528021   -3.218903
     23          6           0       -1.695010   -6.600755   -1.093499
     24          8           0       -0.675357   -7.137952   -1.519913
     25          6           0       -2.500436   -7.405075   -0.202515
     26          7           0       -4.843289   -2.510212    1.086650
     27          6           0       -4.787710   -3.851052    1.201827
     28          6           0       -5.667417   -4.463339    2.267908
     29          6           0       -6.305524   -3.134955    2.829505
     30          6           0       -5.774660   -2.029103    1.939134
     31          6           0       -6.552286   -5.624141    1.750024
     32          6           0       -6.010525   -2.907408    4.310764
     33          6           0       -7.081651   -3.608299    5.253506
     34          7           0       -5.128808    0.333643    0.263528
     35          6           0       -6.000376    0.388819    1.306815
     36          6           0       -6.585447    1.704337    1.354509
     37          6           0       -5.840418    2.399438    0.363039
     38          6           0       -4.904216    1.567114   -0.256021
     39          6           0       -7.746858    2.239387    2.324236
     40          6           0       -5.797124    3.655077   -0.402260
     41          8           0       -6.513569    4.621832   -0.363023
     42          6           0       -4.473606    3.557442   -1.387071
     43          6           0       -3.505529    4.656177   -0.926495
     44          8           0       -2.889952    4.749742    0.090225
     45          8           0       -3.599377    5.727851   -1.830506
     46          6           0       -3.176332    7.048181   -1.423512
     47          6           0        2.302488    5.289656    0.002436
     48          6           0        3.481681    4.623026    0.563444
     49          6           0        4.618747    5.202174    1.090791
     50          6           0        4.806521    6.697832    1.392729
     51          6           0        5.794621    4.318949    1.354441
     52          6           0        5.851390    3.795168    2.735225
     53          6           0        7.260243    3.283085    3.238810
     54          6           0        7.326881    1.667477    3.480991
     55          6           0        7.565938    1.366939    4.939388
     56          6           0        8.442955    0.976217    2.683093
     57          6           0        7.976898    0.338545    1.323840
     58          6           0        8.438373   -1.169185    1.279738
     59          6           0        7.236178   -2.053924    0.875235
     60          6           0        6.210368   -2.387997    2.088927
     61          6           0        7.743025   -3.429786    0.255443
     62          6           0        8.115388   -3.221527   -1.213277
     63          6           0        9.336602   -4.069118   -1.527581
     64          6           0       10.657251   -3.325183   -1.848193
     65          6           0       10.850893   -3.222193   -3.411337
     66          6           0       11.922845   -3.934399   -1.198824
     67          1           0       -0.668680   -1.859889   -3.423575
     68          1           0       -3.815419   -5.681286    0.898156
     69          1           0       -7.245501   -0.570951    2.649013
     70          1           0       -2.391823    2.746252   -3.577384
     71          1           0       -0.435481    0.516693   -3.754446
     72          1           0       -1.369466    0.276598   -5.784637
     73          1           0       -2.505954    1.481223   -5.178959
     74          1           0       -2.943640   -0.210313   -4.914672
     75          1           0       -0.022784    2.114406   -1.974388
     76          1           0       -1.245259    2.686891   -0.960313
     77          1           0       -1.158152    4.709412   -2.713208
     78          1           0        0.400594    3.858631   -3.152918
     79          1           0        0.709446   -4.715838   -2.604115
     80          1           0       -0.123987   -3.780077   -4.010219
     81          1           0       -0.585887   -5.370225   -3.772901
     82          1           0       -2.275116   -7.169027    0.837169
     83          1           0       -2.286920   -8.450703   -0.420477
     84          1           0       -3.534430   -7.118182   -0.394376
     85          1           0       -5.004100   -4.942865    2.989176
     86          1           0       -7.376236   -3.228391    2.645823
     87          1           0       -6.146641   -5.990599    0.807280
     88          1           0       -7.561088   -5.311768    1.479163
     89          1           0       -6.708302   -6.470938    2.417903
     90          1           0       -6.203120   -1.841250    4.425678
     91          1           0       -5.034310   -3.273689    4.628327
     92          1           0       -7.662620   -2.746661    5.582670
     93          1           0       -6.802489   -4.261171    6.080805
     94          1           0       -7.797590   -4.159472    4.644158
     95          1           0       -8.678423    2.394590    1.779795
     96          1           0       -7.436033    3.178366    2.782178
     97          1           0       -7.844398    1.467225    3.087378
     98          1           0       -4.847171    3.754915   -2.392494
     99          1           0       -3.974651    7.693856   -1.790890
    100          1           0       -2.288852    7.229477   -2.029598
    101          1           0       -3.018197    7.184806   -0.354257
    102          1           0        1.737262    5.690877    0.843936
    103          1           0        2.522517    6.120762   -0.667218
    104          1           0        3.576632    3.569387    0.299863
    105          1           0        4.937533    6.830186    2.466350
    106          1           0        3.961284    7.335827    1.138646
    107          1           0        5.719672    7.135196    0.988444
    108          1           0        6.745094    4.827225    1.195991
    109          1           0        5.685977    3.479740    0.666976
    110          1           0        5.140866    2.973023    2.820326
    111          1           0        5.500036    4.566464    3.419265
    112          1           0        7.437904    3.894470    4.122814
    113          1           0        8.042850    3.554791    2.530229
    114          1           0        6.360297    1.203637    3.287538
    115          1           0        6.909528    0.602258    5.357605
    116          1           0        7.640860    2.309113    5.483021
    117          1           0        8.502254    0.864635    5.181091
    118          1           0        9.158201    0.380421    3.250863
    119          1           0        9.128922    1.724134    2.285742
    120          1           0        8.433610    0.841528    0.470781
    121          1           0        6.899377    0.298613    1.170357
    122          1           0        8.839538   -1.688260    2.150019
    123          1           0        9.305556   -1.269702    0.626197
    124          1           0        6.749390   -1.533875    0.050483
    125          1           0        6.013598   -1.558786    2.767068
    126          1           0        6.615252   -3.189916    2.706967
    127          1           0        5.187902   -2.528627    1.740093
    128          1           0        6.934590   -4.146908    0.395485
    129          1           0        8.527742   -3.824267    0.901588
    130          1           0        8.310992   -2.163090   -1.382997
    131          1           0        7.217009   -3.420790   -1.796387
    132          1           0        8.972845   -4.551812   -2.435179
    133          1           0        9.484435   -4.761422   -0.698576
    134          1           0       10.617641   -2.306660   -1.462038
    135          1           0        9.911858   -3.164369   -3.960935
    136          1           0       11.460553   -3.961475   -3.931139
    137          1           0       11.358374   -2.269330   -3.562643
    138          1           0       12.514408   -3.304895   -0.534734
    139          1           0       12.548806   -4.481796   -1.904244
    140          1           0       11.489686   -4.706177   -0.562960
 ---------------------------------------------------------------------

 SCF Done:  E(RwB97XD) =  -3007.81268601     A.U. after   19 cycles

 Excitation energies and oscillator strengths:

 Excited State   1:      Singlet-A      1.6933 eV  732.20 nm  f=0.3602  <S**2>=0.000
     245 -> 248        0.20717
     246 -> 247        0.67771
     245 <- 248        0.12099
 This state for optimization and/or second-order correction.
 Total Energy, E(TD-HF/TD-DFT) =  -3007.75045759
 Copying the excited state density for this state as the 1-particle RhoCI density.

 Excited State   2:      Singlet-A      2.2115 eV  560.64 nm  f=0.0758  <S**2>=0.000
     245 -> 247        0.61846
     246 -> 248       -0.32684

 Excited State   3:      Singlet-A      3.2351 eV  383.24 nm  f=0.0024  <S**2>=0.000
     242 -> 247        0.21435
     244 -> 247        0.63711
     244 -> 249        0.13148

 Excited State   4:      Singlet-A      3.3040 eV  375.25 nm  f=0.0296  <S**2>=0.000
     240 -> 247       -0.13218
     240 -> 249        0.10985
     241 -> 247        0.13045
     242 -> 247        0.56986
     242 -> 249       -0.10114
     244 -> 247       -0.15587
     246 -> 248        0.24864

 Excited State   5:      Singlet-A      3.4533 eV  359.03 nm  f=0.0795  <S**2>=0.000
     240 -> 247        0.55325
     240 -> 249       -0.26336
     240 -> 250        0.12818
     242 -> 247        0.10714
     245 -> 247        0.10618
     246 -> 248        0.24196

 The electronic state is 1-A.
 Alpha  occ. eigenvalues --  -46.96405 -19.29878 -19.28261 -19.25365 -19.24877
 Alpha  occ. eigenvalues --  -19.24783 -19.22648 -14.47964 -14.47189 -14.44026
 Alpha  occ. eigenvalues --  -14.43672 -10.43223 -10.43036 -10.39636 -10.37805
 Alpha  occ. eigenvalues --  -10.36225 -10.35849 -10.35441 -10.35427 -10.35289
 Alpha  occ. eigenvalues --  -10.34906 -10.34043 -10.33591 -10.33425 -10.33396
 Alpha  occ. eigenvalues --  -10.33013 -10.32833 -10.32763 -10.32711 -10.32654
 Alpha  occ. eigenvalues --  -10.32424 -10.32342 -10.31848 -10.31846 -10.31388
 Alpha  occ. eigenvalues --  -10.31299 -10.31128 -10.31076 -10.31009 -10.30934
 Alpha  occ. eigenvalues --  -10.30644 -10.30577 -10.30522 -10.30359 -10.29975
 Alpha  occ. eigenvalues --  -10.29939 -10.29777 -10.29771 -10.29742 -10.29682
 Alpha  occ. eigenvalues --  -10.29674 -10.29631 -10.29360 -10.29171 -10.28862
 Alpha  occ. eigenvalues --  -10.28802 -10.28553 -10.28525 -10.28273 -10.28194
 Alpha  occ. eigenvalues --  -10.28015 -10.28003 -10.27929 -10.27851 -10.27845
 Alpha  occ. eigenvalues --  -10.27359  -3.22181  -1.95771  -1.95321  -1.95105
 Alpha  occ. eigenvalues --   -1.17783  -1.17508  -1.13385  -1.11111  -1.10047
 Alpha  occ. eigenvalues --   -1.09716  -1.07365  -1.06644  -1.05744  -1.04387
 Alpha  occ. eigenvalues --   -0.95287  -0.92441  -0.92013  -0.91381  -0.90941
 Alpha  occ. eigenvalues --   -0.90699  -0.89931  -0.89628  -0.88314  -0.88042
 Alpha  occ. eigenvalues --   -0.87469  -0.86697  -0.86317  -0.85933  -0.85253
 Alpha  occ. eigenvalues --   -0.84340  -0.83892  -0.83121  -0.82382  -0.82111
 Alpha  occ. eigenvalues --   -0.81201  -0.80502  -0.79635  -0.78726  -0.77717
 Alpha  occ. eigenvalues --   -0.77509  -0.77159  -0.76892  -0.76220  -0.75268
 Alpha  occ. eigenvalues --   -0.75136  -0.74271  -0.74052  -0.72130  -0.71627
 Alpha  occ. eigenvalues --   -0.70437  -0.69611  -0.68825  -0.68065  -0.67935
 Alpha  occ. eigenvalues --   -0.67789  -0.67129  -0.66744  -0.66409  -0.65942
 Alpha  occ. eigenvalues --   -0.65242  -0.65123  -0.64131  -0.63263  -0.62428
 Alpha  occ. eigenvalues --   -0.61842  -0.61459  -0.61288  -0.60623  -0.59994
 Alpha  occ. eigenvalues --   -0.59404  -0.58874  -0.58061  -0.57721  -0.57498
 Alpha  occ. eigenvalues --   -0.57191  -0.56908  -0.56343  -0.56206  -0.55508
 Alpha  occ. eigenvalues --   -0.55360  -0.55182  -0.55114  -0.55061  -0.54715
 Alpha  occ. eigenvalues --   -0.54442  -0.54278  -0.53868  -0.53842  -0.53614
 Alpha  occ. eigenvalues --   -0.53352  -0.53268  -0.53003  -0.52768  -0.52559
 Alpha  occ. eigenvalues --   -0.52346  -0.51948  -0.51742  -0.51647  -0.51570
 Alpha  occ. eigenvalues --   -0.51163  -0.50921  -0.50827  -0.50631  -0.50485
 Alpha  occ. eigenvalues --   -0.50333  -0.50080  -0.49907  -0.49793  -0.49699
 Alpha  occ. eigenvalues --   -0.49478  -0.48960  -0.48807  -0.48735  -0.48604
 Alpha  occ. eigenvalues --   -0.48420  -0.48220  -0.48092  -0.47815  -0.47559
 Alpha  occ. eigenvalues --   -0.47396  -0.47077  -0.47062  -0.46777  -0.46736
 Alpha  occ. eigenvalues --   -0.46515  -0.46466  -0.46394  -0.46220  -0.46048
 Alpha  occ. eigenvalues --   -0.45956  -0.45483  -0.45310  -0.45013  -0.44917
 Alpha  occ. eigenvalues --   -0.44830  -0.44417  -0.43897  -0.43697  -0.43567
 Alpha  occ. eigenvalues --   -0.43525  -0.43253  -0.43147  -0.43097  -0.42940
 Alpha  occ. eigenvalues --   -0.42835  -0.42714  -0.42586  -0.42271  -0.42181
 Alpha  occ. eigenvalues --   -0.42156  -0.41420  -0.41332  -0.40762  -0.40365
 Alpha  occ. eigenvalues --   -0.40043  -0.39826  -0.39694  -0.39602  -0.39282
 Alpha  occ. eigenvalues --   -0.39202  -0.39013  -0.38628  -0.38485  -0.37811
 Alpha  occ. eigenvalues --   -0.37493  -0.37087  -0.36605  -0.36479  -0.36467
 Alpha  occ. eigenvalues --   -0.35899  -0.35838  -0.34310  -0.33500  -0.32740
 Alpha  occ. eigenvalues --   -0.32182  -0.31914  -0.30960  -0.30944  -0.26332
 Alpha  occ. eigenvalues --   -0.23407
 Alpha virt. eigenvalues --   -0.07108  -0.00754   0.02379   0.04429   0.04815
 Alpha virt. eigenvalues --    0.06918   0.06997   0.07485   0.07875   0.09397
 Alpha virt. eigenvalues --    0.10436   0.10843   0.11697   0.12297   0.12716

 Mulliken charges:
               1
     1  Mg   0.937063
     2  C   -0.028794
     3  C   -0.028981
     4  C   -0.095249
     5  C   -0.127842
     6  N   -0.297584
     7  C   -0.021708
     8  C   -0.055969
     9  C   -0.138392
    10  C    0.028059
    11  C    0.060426
    12  C    0.027169
    13  C    0.025800
    14  C    0.231304
    15  O   -0.236894
    16  O   -0.406613
    17  N   -0.460746
    18  C    0.127527
    19  C   -0.175549
    20  C   -0.098004
    21  C    0.182447
    22  C    0.067679
    23  C    0.037487
    24  O   -0.252458
    25  C    0.003953
    26  N   -0.376937
    27  C    0.034971
    28  C   -0.071382
    29  C   -0.086937
    30  C    0.116041
    31  C    0.017099
    32  C    0.006764
    33  C   -0.065564
    34  N   -0.416465
    35  C    0.130283
    36  C   -0.183717
    37  C   -0.035481
    38  C    0.169530
    39  C    0.084814
    40  C    0.099068
    41  O   -0.178064
    42  C   -0.125580
    43  C    0.266683
    44  O   -0.203459
    45  O   -0.396974
    46  C    0.141006
    47  C    0.253261
    48  C   -0.136318
    49  C   -0.203351
    50  C    0.031756
    51  C    0.043994
    52  C   -0.037946
    53  C    0.025825
    54  C   -0.168891
    55  C    0.001404
    56  C    0.022344
    57  C   -0.015416
    58  C   -0.011090
    59  C   -0.208799
    60  C   -0.011350
    61  C   -0.014705
    62  C   -0.024102
    63  C    0.027983
    64  C   -0.209503
    65  C   -0.022040
    66  C    0.006616
    67  H   -0.005495
    68  H   -0.015417
    69  H    0.013212
    70  H    0.036550
    71  H    0.032805
    72  H    0.051269
    73  H    0.018635
    74  H    0.050720
    75  H    0.030105
    76  H    0.059547
    77  H    0.043567
    78  H    0.058707
    79  H    0.075666
    80  H    0.026097
    81  H    0.055756
    82  H    0.076823
    83  H    0.057516
    84  H    0.038900
    85  H    0.043733
    86  H    0.030401
    87  H    0.034186
    88  H    0.024613
    89  H    0.043152
    90  H    0.031090
    91  H    0.046592
    92  H    0.032307
    93  H    0.052350
    94  H    0.021102
    95  H    0.066258
    96  H    0.065801
    97  H    0.028618
    98  H    0.072960
    99  H    0.044826
   100  H    0.053876
   101  H    0.068660
   102  H    0.063558
   103  H    0.051758
   104  H    0.032168
   105  H    0.034673
   106  H    0.034909
   107  H    0.042306
   108  H    0.014522
   109  H    0.023561
   110  H    0.017177
   111  H    0.015583
   112  H    0.025046
   113  H    0.014165
   114  H    0.031667
   115  H    0.028433
   116  H    0.021441
   117  H    0.008081
   118  H    0.025323
   119  H    0.003427
   120  H    0.026768
   121  H    0.032323
   122  H    0.006950
   123  H    0.007922
   124  H    0.016939
   125  H    0.009709
   126  H    0.037641
   127  H    0.035929
   128  H    0.018726
   129  H    0.009875
   130  H    0.016179
   131  H    0.025249
   132  H    0.019067
   133  H    0.023885
   134  H    0.028840
   135  H    0.023467
   136  H    0.034907
   137  H    0.021919
   138  H    0.037807
   139  H    0.028825
   140  H    0.004285
 Sum of Mulliken charges =  -0.00000

 Dipole moment (field-independent basis, Debye):
    X=             -1.1164    Y=             -1.3759    Z=              0.1615  Tot=              1.7792
 Quadrupole moment (field-independent basis, Debye-Ang):
   XX=           -374.4609   YY=           -428.3612   ZZ=           -382.3446
   XY=             53.6439   XZ=             -7.0652   YZ=            -17.9685

 Normal termination of Gaussian 16 at Thu Apr 28 15:01:13 2022.
