 Gaussian 16, Revision A.03,
 Gaussian 16:  ES64L-G16RevA.03 25-Dec-2016

 --------------------
 #p ZINDO=(nstates=5)
 --------------------

 ------------------------------
 step_1601_chromophore_20 ZINDO
 ------------------------------
 Symbolic Z-matrix:
 Charge =  0 Multiplicity = 1

                         Standard orientation:
 ---------------------------------------------------------------------
 Center     Atomic      Atomic             Coordinates (Angstroms)
 Number     Number       Type             X           Y           Z
 ---------------------------------------------------------------------
      1         12           0       -4.117317   -1.418665   -0.530566
      2          6           0       -4.079215    2.137811   -1.157735
      3          6           0       -1.454518   -1.697196   -2.683004
      4          6           0       -3.857575   -4.659501    0.514596
      5          6           0       -6.336549   -0.724757    2.064730
      6          7           0       -2.936635    0.117094   -1.772639
      7          6           0       -3.020049    1.471632   -1.907400
      8          6           0       -1.962172    2.052646   -2.852969
      9          6           0       -1.498336    0.723354   -3.630531
     10          6           0       -1.982487   -0.357864   -2.615255
     11          6           0       -2.107389    0.481401   -5.010052
     12          6           0       -0.900123    2.760835   -1.992003
     13          6           0       -0.338632    4.071414   -2.380910
     14          6           0        0.308669    4.975317   -1.331343
     15          8           0       -0.059169    6.100184   -1.091934
     16          8           0        1.486684    4.372172   -0.861917
     17          7           0       -2.861118   -3.040765   -1.121126
     18          6           0       -1.841293   -2.914121   -2.040292
     19          6           0       -1.219955   -4.180771   -2.089267
     20          6           0       -1.884910   -5.076116   -1.173924
     21          6           0       -2.925209   -4.249525   -0.504465
     22          6           0       -0.170334   -4.528021   -3.218903
     23          6           0       -1.695010   -6.600755   -1.093499
     24          8           0       -0.675357   -7.137952   -1.519913
     25          6           0       -2.500436   -7.405075   -0.202515
     26          7           0       -4.843289   -2.510212    1.086650
     27          6           0       -4.787710   -3.851052    1.201827
     28          6           0       -5.667417   -4.463339    2.267908
     29          6           0       -6.305524   -3.134955    2.829505
     30          6           0       -5.774660   -2.029103    1.939134
     31          6           0       -6.552286   -5.624141    1.750024
     32          6           0       -6.010525   -2.907408    4.310764
     33          6           0       -7.081651   -3.608299    5.253506
     34          7           0       -5.128808    0.333643    0.263528
     35          6           0       -6.000376    0.388819    1.306815
     36          6           0       -6.585447    1.704337    1.354509
     37          6           0       -5.840418    2.399438    0.363039
     38          6           0       -4.904216    1.567114   -0.256021
     39          6           0       -7.746858    2.239387    2.324236
     40          6           0       -5.797124    3.655077   -0.402260
     41          8           0       -6.513569    4.621832   -0.363023
     42          6           0       -4.473606    3.557442   -1.387071
     43          6           0       -3.505529    4.656177   -0.926495
     44          8           0       -2.889952    4.749742    0.090225
     45          8           0       -3.599377    5.727851   -1.830506
     46          6           0       -3.176332    7.048181   -1.423512
     47          6           0        2.302488    5.289656    0.002436
     48          6           0        3.481681    4.623026    0.563444
     49          6           0        4.618747    5.202174    1.090791
     50          6           0        4.806521    6.697832    1.392729
     51          6           0        5.794621    4.318949    1.354441
     52          6           0        5.851390    3.795168    2.735225
     53          6           0        7.260243    3.283085    3.238810
     54          6           0        7.326881    1.667477    3.480991
     55          6           0        7.565938    1.366939    4.939388
     56          6           0        8.442955    0.976217    2.683093
     57          6           0        7.976898    0.338545    1.323840
     58          6           0        8.438373   -1.169185    1.279738
     59          6           0        7.236178   -2.053924    0.875235
     60          6           0        6.210368   -2.387997    2.088927
     61          6           0        7.743025   -3.429786    0.255443
     62          6           0        8.115388   -3.221527   -1.213277
     63          6           0        9.336602   -4.069118   -1.527581
     64          6           0       10.657251   -3.325183   -1.848193
     65          6           0       10.850893   -3.222193   -3.411337
     66          6           0       11.922845   -3.934399   -1.198824
     67          1           0       -0.668680   -1.859889   -3.423575
     68          1           0       -3.815419   -5.681286    0.898156
     69          1           0       -7.245501   -0.570951    2.649013
     70          1           0       -2.391823    2.746252   -3.577384
     71          1           0       -0.435481    0.516693   -3.754446
     72          1           0       -1.369466    0.276598   -5.784637
     73          1           0       -2.505954    1.481223   -5.178959
     74          1           0       -2.943640   -0.210313   -4.914672
     75          1           0       -0.022784    2.114406   -1.974388
     76          1           0       -1.245259    2.686891   -0.960313
     77          1           0       -1.158152    4.709412   -2.713208
     78          1           0        0.400594    3.858631   -3.152918
     79          1           0        0.709446   -4.715838   -2.604115
     80          1           0       -0.123987   -3.780077   -4.010219
     81          1           0       -0.585887   -5.370225   -3.772901
     82          1           0       -2.275116   -7.169027    0.837169
     83          1           0       -2.286920   -8.450703   -0.420477
     84          1           0       -3.534430   -7.118182   -0.394376
     85          1           0       -5.004100   -4.942865    2.989176
     86          1           0       -7.376236   -3.228391    2.645823
     87          1           0       -6.146641   -5.990599    0.807280
     88          1           0       -7.561088   -5.311768    1.479163
     89          1           0       -6.708302   -6.470938    2.417903
     90          1           0       -6.203120   -1.841250    4.425678
     91          1           0       -5.034310   -3.273689    4.628327
     92          1           0       -7.662620   -2.746661    5.582670
     93          1           0       -6.802489   -4.261171    6.080805
     94          1           0       -7.797590   -4.159472    4.644158
     95          1           0       -8.678423    2.394590    1.779795
     96          1           0       -7.436033    3.178366    2.782178
     97          1           0       -7.844398    1.467225    3.087378
     98          1           0       -4.847171    3.754915   -2.392494
     99          1           0       -3.974651    7.693856   -1.790890
    100          1           0       -2.288852    7.229477   -2.029598
    101          1           0       -3.018197    7.184806   -0.354257
    102          1           0        1.737262    5.690877    0.843936
    103          1           0        2.522517    6.120762   -0.667218
    104          1           0        3.576632    3.569387    0.299863
    105          1           0        4.937533    6.830186    2.466350
    106          1           0        3.961284    7.335827    1.138646
    107          1           0        5.719672    7.135196    0.988444
    108          1           0        6.745094    4.827225    1.195991
    109          1           0        5.685977    3.479740    0.666976
    110          1           0        5.140866    2.973023    2.820326
    111          1           0        5.500036    4.566464    3.419265
    112          1           0        7.437904    3.894470    4.122814
    113          1           0        8.042850    3.554791    2.530229
    114          1           0        6.360297    1.203637    3.287538
    115          1           0        6.909528    0.602258    5.357605
    116          1           0        7.640860    2.309113    5.483021
    117          1           0        8.502254    0.864635    5.181091
    118          1           0        9.158201    0.380421    3.250863
    119          1           0        9.128922    1.724134    2.285742
    120          1           0        8.433610    0.841528    0.470781
    121          1           0        6.899377    0.298613    1.170357
    122          1           0        8.839538   -1.688260    2.150019
    123          1           0        9.305556   -1.269702    0.626197
    124          1           0        6.749390   -1.533875    0.050483
    125          1           0        6.013598   -1.558786    2.767068
    126          1           0        6.615252   -3.189916    2.706967
    127          1           0        5.187902   -2.528627    1.740093
    128          1           0        6.934590   -4.146908    0.395485
    129          1           0        8.527742   -3.824267    0.901588
    130          1           0        8.310992   -2.163090   -1.382997
    131          1           0        7.217009   -3.420790   -1.796387
    132          1           0        8.972845   -4.551812   -2.435179
    133          1           0        9.484435   -4.761422   -0.698576
    134          1           0       10.617641   -2.306660   -1.462038
    135          1           0        9.911858   -3.164369   -3.960935
    136          1           0       11.460553   -3.961475   -3.931139
    137          1           0       11.358374   -2.269330   -3.562643
    138          1           0       12.514408   -3.304895   -0.534734
    139          1           0       12.548806   -4.481796   -1.904244
    140          1           0       11.489686   -4.706177   -0.562960
 ---------------------------------------------------------------------

 SCF Done:  E(RZINDO/S) =  -474.103111809     A.U. after   19 cycles

 Excitation energies and oscillator strengths:

 Excited State   1:      Singlet-A      1.2659 eV  979.42 nm  f=0.5669  <S**2>=0.000
     175 ->178         0.20573
     176 ->177         0.65932
 This state for optimization and/or second-order correction.
 Total Energy, E(CIS/TDA) =  -474.056591094
 Copying the excited state density for this state as the 1-particle RhoCI density.

 Excited State   2:      Singlet-A      1.9095 eV  649.29 nm  f=0.0145  <S**2>=0.000
     175 ->177         0.51353
     176 ->178        -0.46460

 Excited State   3:      Singlet-A      2.8697 eV  432.04 nm  f=0.0028  <S**2>=0.000
     170 ->177         0.22043
     170 ->178        -0.10658
     170 ->179         0.28802
     170 ->180         0.25687
     170 ->181        -0.25340
     170 ->183        -0.13841
     170 ->184        -0.15853
     170 ->186         0.21632
     170 ->187        -0.15238
     173 ->177        -0.15232

 Excited State   4:      Singlet-A      2.9387 eV  421.90 nm  f=0.0291  <S**2>=0.000
     168 ->177        -0.15205
     168 ->179         0.14735
     169 ->177         0.31723
     169 ->179        -0.31442
     169 ->180         0.13763
     169 ->181        -0.12851
     169 ->186        -0.17558
     169 ->187        -0.11834
     171 ->177         0.23171
     171 ->179        -0.10058

 Excited State   5:      Singlet-A      3.0192 eV  410.65 nm  f=1.0676  <S**2>=0.000
     171 ->177        -0.18285
     175 ->177         0.37882
     176 ->178         0.44785
     176 ->179         0.23838

 The electronic state is 1-A.
 Alpha  occ. eigenvalues --   -1.84985  -1.82061  -1.79067  -1.72220  -1.71615
 Alpha  occ. eigenvalues --   -1.69957  -1.63974  -1.60335  -1.59567  -1.58717
 Alpha  occ. eigenvalues --   -1.54528  -1.50184  -1.49305  -1.48438  -1.47472
 Alpha  occ. eigenvalues --   -1.45820  -1.44636  -1.41316  -1.38598  -1.37473
 Alpha  occ. eigenvalues --   -1.35715  -1.32609  -1.31351  -1.30268  -1.27354
 Alpha  occ. eigenvalues --   -1.27199  -1.26852  -1.22928  -1.20806  -1.17559
 Alpha  occ. eigenvalues --   -1.17265  -1.15702  -1.15535  -1.14162  -1.13103
 Alpha  occ. eigenvalues --   -1.12994  -1.09451  -1.08191  -1.05639  -1.02804
 Alpha  occ. eigenvalues --   -1.01637  -0.99853  -0.98755  -0.97511  -0.96664
 Alpha  occ. eigenvalues --   -0.95434  -0.93923  -0.93162  -0.92821  -0.92736
 Alpha  occ. eigenvalues --   -0.91489  -0.91044  -0.89817  -0.87512  -0.86372
 Alpha  occ. eigenvalues --   -0.85749  -0.84758  -0.83595  -0.82699  -0.80526
 Alpha  occ. eigenvalues --   -0.79532  -0.79102  -0.76583  -0.76277  -0.75481
 Alpha  occ. eigenvalues --   -0.75256  -0.74923  -0.74309  -0.73656  -0.73084
 Alpha  occ. eigenvalues --   -0.72649  -0.72482  -0.71746  -0.71288  -0.70960
 Alpha  occ. eigenvalues --   -0.69849  -0.69582  -0.69083  -0.68742  -0.67884
 Alpha  occ. eigenvalues --   -0.67532  -0.66919  -0.65966  -0.65780  -0.65606
 Alpha  occ. eigenvalues --   -0.65042  -0.64570  -0.64341  -0.63506  -0.63280
 Alpha  occ. eigenvalues --   -0.63043  -0.62893  -0.62587  -0.62328  -0.62231
 Alpha  occ. eigenvalues --   -0.61981  -0.60801  -0.60548  -0.60413  -0.60185
 Alpha  occ. eigenvalues --   -0.59412  -0.59102  -0.58694  -0.58468  -0.57973
 Alpha  occ. eigenvalues --   -0.57842  -0.57471  -0.56874  -0.56653  -0.56052
 Alpha  occ. eigenvalues --   -0.55536  -0.55208  -0.55075  -0.54773  -0.54673
 Alpha  occ. eigenvalues --   -0.54379  -0.54161  -0.53659  -0.52840  -0.52613
 Alpha  occ. eigenvalues --   -0.52335  -0.52108  -0.51824  -0.51462  -0.51412
 Alpha  occ. eigenvalues --   -0.51359  -0.51166  -0.50493  -0.50282  -0.50053
 Alpha  occ. eigenvalues --   -0.49838  -0.49437  -0.49236  -0.49224  -0.48824
 Alpha  occ. eigenvalues --   -0.48692  -0.48554  -0.48398  -0.48260  -0.47976
 Alpha  occ. eigenvalues --   -0.47643  -0.47303  -0.47109  -0.46990  -0.46636
 Alpha  occ. eigenvalues --   -0.46196  -0.46074  -0.46011  -0.45929  -0.45519
 Alpha  occ. eigenvalues --   -0.44921  -0.44664  -0.44405  -0.43884  -0.43677
 Alpha  occ. eigenvalues --   -0.43407  -0.43103  -0.43027  -0.42690  -0.42064
 Alpha  occ. eigenvalues --   -0.41541  -0.41055  -0.40068  -0.39475  -0.38526
 Alpha  occ. eigenvalues --   -0.38342  -0.37168  -0.35311  -0.35202  -0.34353
 Alpha  occ. eigenvalues --   -0.32825  -0.32397  -0.31414  -0.31008  -0.26752
 Alpha  occ. eigenvalues --   -0.21902
 Alpha virt. eigenvalues --   -0.08395  -0.02788  -0.00581   0.01201   0.01331
 Alpha virt. eigenvalues --    0.02195   0.02600   0.02978   0.04275   0.04730
 Alpha virt. eigenvalues --    0.05949   0.06418   0.07191   0.07414   0.07976

 Mulliken charges:
               1
     1  Mg   0.426003
     2  C   -0.025932
     3  C   -0.062368
     4  C   -0.103368
     5  C   -0.094522
     6  N   -0.265181
     7  C    0.125034
     8  C    0.018245
     9  C   -0.005845
    10  C    0.095246
    11  C   -0.053844
    12  C   -0.013994
    13  C    0.012681
    14  C    0.468329
    15  O   -0.492454
    16  O   -0.286539
    17  N   -0.319086
    18  C    0.080111
    19  C    0.021951
    20  C   -0.077581
    21  C    0.122465
    22  C   -0.051258
    23  C    0.324561
    24  O   -0.533074
    25  C   -0.023964
    26  N   -0.261102
    27  C    0.131301
    28  C   -0.002536
    29  C    0.008445
    30  C    0.151046
    31  C   -0.051497
    32  C   -0.027575
    33  C   -0.073712
    34  N   -0.346011
    35  C    0.135600
    36  C    0.010438
    37  C   -0.031831
    38  C    0.122266
    39  C   -0.037759
    40  C    0.323460
    41  O   -0.496851
    42  C    0.049333
    43  C    0.481509
    44  O   -0.491435
    45  O   -0.295250
    46  C    0.079163
    47  C    0.111215
    48  C   -0.091877
    49  C   -0.009995
    50  C   -0.043843
    51  C   -0.009908
    52  C   -0.028956
    53  C   -0.045807
    54  C   -0.004631
    55  C   -0.063443
    56  C   -0.037935
    57  C   -0.039040
    58  C   -0.043112
    59  C   -0.025366
    60  C   -0.065516
    61  C   -0.043030
    62  C   -0.031947
    63  C   -0.033172
    64  C   -0.005416
    65  C   -0.061106
    66  C   -0.064291
    67  H    0.028467
    68  H    0.033985
    69  H    0.031739
    70  H    0.032382
    71  H    0.031464
    72  H    0.032181
    73  H    0.014105
    74  H    0.034694
    75  H    0.014630
    76  H    0.037551
    77  H    0.033937
    78  H    0.042280
    79  H    0.050112
    80  H    0.023825
    81  H    0.034205
    82  H    0.047135
    83  H    0.039173
    84  H    0.025421
    85  H    0.031567
    86  H    0.031308
    87  H    0.022040
    88  H    0.015417
    89  H    0.023562
    90  H    0.026963
    91  H    0.035200
    92  H    0.015306
    93  H    0.033568
    94  H    0.012948
    95  H    0.041012
    96  H    0.039135
    97  H    0.023354
    98  H    0.057416
    99  H    0.029920
   100  H    0.040642
   101  H    0.060810
   102  H    0.054987
   103  H    0.046862
   104  H    0.030812
   105  H    0.022901
   106  H    0.023305
   107  H    0.028319
   108  H    0.021842
   109  H    0.019752
   110  H    0.017579
   111  H    0.016648
   112  H    0.023119
   113  H    0.020469
   114  H    0.029419
   115  H    0.019180
   116  H    0.019628
   117  H    0.008829
   118  H    0.033116
   119  H    0.005684
   120  H    0.021142
   121  H    0.028067
   122  H    0.021267
   123  H    0.012673
   124  H    0.019893
   125  H    0.009442
   126  H    0.026477
   127  H    0.022425
   128  H    0.012984
   129  H    0.020011
   130  H    0.017855
   131  H    0.020468
   132  H    0.017541
   133  H    0.026847
   134  H    0.021597
   135  H    0.015313
   136  H    0.025341
   137  H    0.007497
   138  H    0.025857
   139  H    0.021918
   140  H    0.010039
 Sum of Mulliken charges =  -0.00000

 Dipole moment (field-independent basis, Debye):
    X=             -2.6663    Y=             -1.5829    Z=             -0.3129  Tot=              3.1165
 N-N= 4.426043439767D+03 E-N= 0.000000000000D+00  KE=-9.526556759057D+03
 Leave Link  601 at Thu Apr 28 15:14:34 2022, MaxMem=  6710886400 cpu:               3.0 elap:               0.1
 (Enter /sw/apps/gaussian-16.0/g16/l9999.exe)
 1\1\GINC-BP1-COMPUTE154\SP\RZINDO CIS\STO-3G\C55H74Mg1N4O6\OF15641\28-
 Apr-2022\0\\#p ZINDO=(nstates=5)\\step_1601_chromophore_20 ZINDO\\0,1\
 Mg,0,7.011,57.205,41.733\C,0,5.936,53.759,41.846\C,0,9.894,56.122,40.2
 11\C,0,7.721,60.497,41.166\C,0,3.754,58.032,42.655\N,0,7.777,55.122,41
 .125\C,0,7.246,53.869,41.214\C,0,8.154,52.783,40.625\C,0,9.556,53.569,
 40.567\C,0,9.036,55.039,40.621\C,0,10.545,53.303,41.7\C,0,7.548,52.342
 ,39.28\C,0,7.489,50.918,38.889\C,0,6.484,50.448,37.837\O,0,5.645,49.60

 Normal termination of Gaussian 16 at Thu Apr 28 15:14:34 2022.
