 Gaussian 16, Revision A.03,
 Gaussian 16:  ES64L-G16RevA.03 25-Dec-2016

 ------------------------------
 #p blyp/Def2SVP td=(nstates=5)
 ------------------------------

 --------------------------------------------------
 step_1601_chromophore_3 TDDFT with blyp functional
 --------------------------------------------------
 Symbolic Z-matrix:
 Charge =  0 Multiplicity = 1

                         Standard orientation:
 ---------------------------------------------------------------------
 Center     Atomic      Atomic             Coordinates (Angstroms)
 Number     Number       Type             X           Y           Z
 ---------------------------------------------------------------------
      1         12           0        5.382730    1.178359    0.145184
      2          6           0        4.630714   -2.294683   -0.085113
      3          6           0        1.864336    1.693238   -0.247899
      4          6           0        5.970977    4.494117   -0.092773
      5          6           0        8.692899    0.463676    0.249598
      6          7           0        3.350683   -0.267643   -0.174814
      7          6           0        3.419740   -1.638622   -0.161635
      8          6           0        1.981402   -2.125223    0.075561
      9          6           0        1.107165   -0.839521   -0.200343
     10          6           0        2.142326    0.320828   -0.124219
     11          6           0        0.394515   -0.847113   -1.641110
     12          6           0        1.692820   -2.678754    1.542963
     13          6           0        0.814708   -3.926911    1.655941
     14          6           0       -0.250693   -4.273583    0.695005
     15          8           0       -0.054627   -4.953076   -0.273886
     16          8           0       -1.467768   -3.697438    0.920177
     17          7           0        4.123476    2.824926   -0.100313
     18          6           0        2.741752    2.826054   -0.219235
     19          6           0        2.300959    4.162011   -0.477868
     20          6           0        3.422942    5.003916   -0.413109
     21          6           0        4.597171    4.102989   -0.188844
     22          6           0        0.809312    4.487676   -0.773848
     23          6           0        3.343302    6.557226   -0.554403
     24          8           0        4.400200    7.183187   -0.542864
     25          6           0        2.123334    7.420281   -0.643510
     26          7           0        7.104832    2.292575    0.017869
     27          6           0        7.107309    3.674226    0.043356
     28          6           0        8.514429    4.225500    0.336780
     29          6           0        9.411365    2.974439    0.395066
     30          6           0        8.369364    1.788393    0.301887
     31          6           0        9.018474    5.337306   -0.634099
     32          6           0       10.302832    2.858423    1.648914
     33          6           0       11.799876    2.569057    1.375571
     34          7           0        6.479042   -0.549578    0.058379
     35          6           0        7.845859   -0.689886    0.097350
     36          6           0        8.231853   -2.125541   -0.042744
     37          6           0        6.994188   -2.729361   -0.091717
     38          6           0        5.934598   -1.752695   -0.119524
     39          6           0        9.620386   -2.760877    0.101315
     40          6           0        6.363661   -4.097944   -0.173524
     41          8           0        6.922465   -5.161734   -0.343284
     42          6           0        4.814896   -3.789328    0.039493
     43          6           0        4.117063   -4.619993   -1.066984
     44          8           0        4.059904   -4.324736   -2.275106
     45          8           0        3.503048   -5.684894   -0.545131
     46          6           0        2.812580   -6.506061   -1.593294
     47          6           0       -2.528259   -4.278848    0.104275
     48          6           0       -3.854571   -3.779921    0.565188
     49          6           0       -5.092549   -4.149695    0.170557
     50          6           0       -5.459158   -5.100853   -0.908038
     51          6           0       -6.336264   -3.690543    0.961296
     52          6           0       -7.090626   -2.434193    0.379803
     53          6           0       -7.484779   -1.347318    1.447580
     54          6           0       -8.960631   -1.305134    1.757154
     55          6           0       -9.028797   -0.912612    3.277057
     56          6           0       -9.772532   -0.314403    0.934274
     57          6           0      -10.779879   -1.144635    0.089785
     58          6           0      -11.230381   -0.315712   -1.179315
     59          6           0      -12.760261   -0.064686   -1.166200
     60          6           0      -13.511486   -0.720232   -2.320043
     61          6           0      -12.998401    1.447879   -1.205574
     62          6           0      -12.652327    2.277456    0.107837
     63          6           0      -13.712530    3.289496    0.525780
     64          6           0      -13.537957    4.681935   -0.038215
     65          6           0      -13.276637    5.579481    1.223196
     66          6           0      -14.688584    5.137955   -0.841943
     67          1           0        0.780440    1.810615   -0.313965
     68          1           0        6.243626    5.543723    0.029311
     69          1           0        9.749285    0.188088    0.266455
     70          1           0        1.767251   -2.903191   -0.656993
     71          1           0        0.291752   -0.810417    0.522799
     72          1           0        0.804646   -1.541303   -2.375324
     73          1           0        0.609864    0.089947   -2.154447
     74          1           0       -0.689837   -0.862515   -1.755835
     75          1           0        1.168159   -1.938984    2.147254
     76          1           0        2.670602   -2.781678    2.013637
     77          1           0        0.169889   -3.806892    2.527006
     78          1           0        1.375582   -4.835120    1.878144
     79          1           0        0.716017    5.380615   -1.392076
     80          1           0        0.350132    4.632253    0.204403
     81          1           0        0.445293    3.666634   -1.390478
     82          1           0        1.777161    7.118673   -1.631651
     83          1           0        2.339513    8.488093   -0.677838
     84          1           0        1.344760    7.355446    0.116569
     85          1           0        8.385418    4.714035    1.302703
     86          1           0       10.006378    2.849938   -0.509603
     87          1           0        8.610699    6.293100   -0.303735
     88          1           0        8.678450    5.096482   -1.640771
     89          1           0       10.102511    5.419254   -0.707644
     90          1           0        9.917896    2.187859    2.416954
     91          1           0       10.307823    3.857286    2.085800
     92          1           0       12.251063    3.557651    1.467723
     93          1           0       11.975565    2.144999    0.386889
     94          1           0       12.183508    1.914518    2.157433
     95          1           0        9.632576   -3.354772    1.014959
     96          1           0       10.281868   -1.903476    0.229979
     97          1           0        9.847076   -3.330640   -0.798927
     98          1           0        4.552363   -3.997238    1.076420
     99          1           0        3.479684   -6.859093   -2.379025
    100          1           0        2.015198   -5.894768   -2.017331
    101          1           0        2.303012   -7.405139   -1.245213
    102          1           0       -2.656350   -5.352750    0.243261
    103          1           0       -2.486735   -4.104737   -0.971154
    104          1           0       -3.817327   -3.076640    1.396508
    105          1           0       -4.589301   -5.516712   -1.417277
    106          1           0       -6.033653   -4.489872   -1.604062
    107          1           0       -6.004790   -5.983081   -0.572345
    108          1           0       -6.136107   -3.492763    2.014458
    109          1           0       -6.986135   -4.537393    1.181591
    110          1           0       -7.946076   -2.810941   -0.180796
    111          1           0       -6.377679   -1.987703   -0.312759
    112          1           0       -7.097345   -0.418471    1.029050
    113          1           0       -6.819180   -1.518732    2.294542
    114          1           0       -9.351286   -2.323308    1.736891
    115          1           0       -8.065521   -0.688857    3.735742
    116          1           0       -9.521491   -1.714138    3.827355
    117          1           0       -9.568977    0.024136    3.414347
    118          1           0       -9.097677    0.257740    0.297806
    119          1           0      -10.294897    0.409727    1.559686
    120          1           0      -11.601414   -1.501123    0.711282
    121          1           0      -10.378426   -2.083196   -0.291803
    122          1           0      -10.813972   -0.857464   -2.028873
    123          1           0      -10.730661    0.652505   -1.152035
    124          1           0      -13.179467   -0.562169   -0.292399
    125          1           0      -14.006595   -0.066533   -3.038043
    126          1           0      -14.342107   -1.230921   -1.833718
    127          1           0      -12.873410   -1.347961   -2.942041
    128          1           0      -14.082580    1.518674   -1.287356
    129          1           0      -12.571322    1.965199   -2.063932
    130          1           0      -11.715537    2.822066   -0.012370
    131          1           0      -12.468762    1.501927    0.850922
    132          1           0      -13.614206    3.292525    1.611316
    133          1           0      -14.742430    3.051013    0.259255
    134          1           0      -12.634136    4.819758   -0.630972
    135          1           0      -13.201888    6.642994    0.995956
    136          1           0      -12.313398    5.387416    1.696576
    137          1           0      -14.161012    5.608543    1.860721
    138          1           0      -15.604190    5.332111   -0.283680
    139          1           0      -14.856057    4.381053   -1.608192
    140          1           0      -14.418752    6.069282   -1.341113
 ---------------------------------------------------------------------

 SCF Done:  E(RB-LYP) =  -3007.36876899     A.U. after   20 cycles

 Excitation energies and oscillator strengths:

 Excited State   1:      Singlet-A      1.8688 eV  663.44 nm  f=0.2198  <S**2>=0.000
     244 -> 247       -0.30186
     245 -> 247        0.10411
     245 -> 248        0.18569
     246 -> 247        0.61065
     246 <- 247       -0.12125
 This state for optimization and/or second-order correction.
 Total Energy, E(TD-HF/TD-DFT) =  -3007.30009173
 Copying the excited state density for this state as the 1-particle RhoCI density.

 Excited State   2:      Singlet-A      1.8929 eV  655.01 nm  f=0.0750  <S**2>=0.000
     244 -> 247        0.62250
     245 -> 247       -0.10579
     246 -> 247        0.30593

 Excited State   3:      Singlet-A      2.0585 eV  602.30 nm  f=0.0642  <S**2>=0.000
     243 -> 247        0.36291
     244 -> 247        0.12880
     245 -> 247        0.54705
     246 -> 248       -0.21277

 Excited State   4:      Singlet-A      2.1561 eV  575.04 nm  f=0.0224  <S**2>=0.000
     243 -> 247        0.60399
     245 -> 247       -0.31124
     246 -> 248        0.17278

 Excited State   5:      Singlet-A      2.3723 eV  522.63 nm  f=0.0000  <S**2>=0.000
     242 -> 247        0.70709

 The electronic state is 1-A.
 Alpha  occ. eigenvalues --  -46.27312 -18.83179 -18.82220 -18.76966 -18.76444
 Alpha  occ. eigenvalues --  -18.75499 -18.75017 -14.02770 -14.02264 -14.01605
 Alpha  occ. eigenvalues --  -14.01061 -10.04250 -10.03415 -10.00083 -10.00055
 Alpha  occ. eigenvalues --   -9.98322  -9.96587  -9.96542  -9.96330  -9.96243
 Alpha  occ. eigenvalues --   -9.96117  -9.96063  -9.95833  -9.95744  -9.94443
 Alpha  occ. eigenvalues --   -9.94316  -9.94276  -9.94200  -9.93952  -9.93760
 Alpha  occ. eigenvalues --   -9.93741  -9.93609  -9.93595  -9.93424  -9.93315
 Alpha  occ. eigenvalues --   -9.93297  -9.93198  -9.92978  -9.92722  -9.92703
 Alpha  occ. eigenvalues --   -9.92445  -9.92417  -9.92410  -9.92271  -9.92267
 Alpha  occ. eigenvalues --   -9.92189  -9.91882  -9.91752  -9.91720  -9.91682
 Alpha  occ. eigenvalues --   -9.91659  -9.91583  -9.91561  -9.91513  -9.91258
 Alpha  occ. eigenvalues --   -9.91240  -9.91166  -9.91149  -9.90900  -9.90745
 Alpha  occ. eigenvalues --   -9.90736  -9.90729  -9.90655  -9.90529  -9.90457
 Alpha  occ. eigenvalues --   -9.90450  -2.91937  -1.72357  -1.71834  -1.71644
 Alpha  occ. eigenvalues --   -0.99609  -0.97467  -0.91991  -0.91126  -0.91078
 Alpha  occ. eigenvalues --   -0.87765  -0.86236  -0.85288  -0.84818  -0.84158
 Alpha  occ. eigenvalues --   -0.75061  -0.73700  -0.73302  -0.72832  -0.72299
 Alpha  occ. eigenvalues --   -0.72001  -0.71442  -0.71386  -0.70394  -0.69893
 Alpha  occ. eigenvalues --   -0.69219  -0.68848  -0.67678  -0.67151  -0.66801
 Alpha  occ. eigenvalues --   -0.66266  -0.65529  -0.65414  -0.64648  -0.64315
 Alpha  occ. eigenvalues --   -0.64236  -0.62390  -0.62031  -0.61498  -0.60562
 Alpha  occ. eigenvalues --   -0.60508  -0.60145  -0.59861  -0.59379  -0.58734
 Alpha  occ. eigenvalues --   -0.58276  -0.57808  -0.56448  -0.56151  -0.54152
 Alpha  occ. eigenvalues --   -0.53443  -0.53359  -0.52516  -0.52310  -0.51889
 Alpha  occ. eigenvalues --   -0.51387  -0.51059  -0.50769  -0.50664  -0.50079
 Alpha  occ. eigenvalues --   -0.50026  -0.49490  -0.48915  -0.48031  -0.46383
 Alpha  occ. eigenvalues --   -0.46271  -0.45842  -0.45350  -0.44918  -0.44230
 Alpha  occ. eigenvalues --   -0.43869  -0.43247  -0.42859  -0.42407  -0.41897
 Alpha  occ. eigenvalues --   -0.41809  -0.41624  -0.41233  -0.41037  -0.40756
 Alpha  occ. eigenvalues --   -0.40556  -0.40372  -0.40325  -0.40135  -0.40096
 Alpha  occ. eigenvalues --   -0.39933  -0.39781  -0.39467  -0.39304  -0.39223
 Alpha  occ. eigenvalues --   -0.39141  -0.38787  -0.38462  -0.38408  -0.38156
 Alpha  occ. eigenvalues --   -0.38070  -0.37809  -0.37761  -0.37709  -0.37357
 Alpha  occ. eigenvalues --   -0.37270  -0.36860  -0.36772  -0.36374  -0.36301
 Alpha  occ. eigenvalues --   -0.36255  -0.36137  -0.35763  -0.35671  -0.35620
 Alpha  occ. eigenvalues --   -0.35395  -0.35103  -0.34847  -0.34582  -0.34536
 Alpha  occ. eigenvalues --   -0.34509  -0.34412  -0.34314  -0.34090  -0.33648
 Alpha  occ. eigenvalues --   -0.33554  -0.33449  -0.33226  -0.33142  -0.33133
 Alpha  occ. eigenvalues --   -0.32718  -0.32521  -0.32334  -0.32312  -0.32118
 Alpha  occ. eigenvalues --   -0.31776  -0.31571  -0.31484  -0.31329  -0.31261
 Alpha  occ. eigenvalues --   -0.31150  -0.31083  -0.30853  -0.30716  -0.30439
 Alpha  occ. eigenvalues --   -0.30422  -0.30233  -0.30183  -0.29979  -0.29847
 Alpha  occ. eigenvalues --   -0.29515  -0.29265  -0.29206  -0.29066  -0.28833
 Alpha  occ. eigenvalues --   -0.28745  -0.28257  -0.28153  -0.27887  -0.27687
 Alpha  occ. eigenvalues --   -0.27593  -0.27508  -0.26962  -0.26602  -0.26577
 Alpha  occ. eigenvalues --   -0.26462  -0.26351  -0.26087  -0.25981  -0.25073
 Alpha  occ. eigenvalues --   -0.24502  -0.24436  -0.24003  -0.23326  -0.23255
 Alpha  occ. eigenvalues --   -0.22353  -0.22287  -0.21735  -0.21085  -0.20885
 Alpha  occ. eigenvalues --   -0.20602  -0.19898  -0.18897  -0.18064  -0.17058
 Alpha  occ. eigenvalues --   -0.15773
 Alpha virt. eigenvalues --   -0.11180  -0.06590  -0.05739  -0.04338  -0.03537
 Alpha virt. eigenvalues --   -0.02363  -0.01562  -0.01494  -0.00974   0.00408
 Alpha virt. eigenvalues --    0.01473   0.02012   0.02694   0.02821   0.02950

 Mulliken charges:
               1
     1  Mg   0.690932
     2  C    0.010764
     3  C   -0.043543
     4  C   -0.039299
     5  C   -0.057891
     6  N   -0.167947
     7  C   -0.089872
     8  C    0.006934
     9  C    0.002682
    10  C   -0.025721
    11  C    0.096045
    12  C    0.147932
    13  C    0.162353
    14  C    0.044158
    15  O   -0.183944
    16  O   -0.262855
    17  N   -0.290353
    18  C    0.167947
    19  C   -0.188769
    20  C    0.037434
    21  C    0.127126
    22  C    0.192495
    23  C   -0.065860
    24  O   -0.180386
    25  C    0.140606
    26  N   -0.284831
    27  C    0.005170
    28  C    0.027258
    29  C    0.049028
    30  C    0.048256
    31  C    0.109862
    32  C    0.087262
    33  C    0.054839
    34  N   -0.259640
    35  C    0.069472
    36  C   -0.198910
    37  C    0.045196
    38  C    0.087953
    39  C    0.187456
    40  C   -0.009147
    41  O   -0.114262
    42  C    0.047368
    43  C    0.135232
    44  O   -0.219279
    45  O   -0.244530
    46  C    0.225003
    47  C    0.331899
    48  C   -0.120238
    49  C   -0.148708
    50  C    0.160919
    51  C    0.089311
    52  C    0.067276
    53  C    0.111303
    54  C   -0.061371
    55  C    0.087644
    56  C    0.149511
    57  C    0.008651
    58  C    0.130484
    59  C   -0.060081
    60  C    0.115031
    61  C    0.071676
    62  C    0.056763
    63  C    0.144392
    64  C   -0.080478
    65  C    0.076593
    66  C    0.121332
    67  H   -0.054655
    68  H   -0.048570
    69  H   -0.070183
    70  H    0.006634
    71  H   -0.024549
    72  H   -0.000876
    73  H   -0.031622
    74  H   -0.009225
    75  H   -0.017781
    76  H   -0.024480
    77  H   -0.026518
    78  H    0.008294
    79  H   -0.024722
    80  H    0.013881
    81  H    0.007798
    82  H    0.014388
    83  H   -0.011255
    84  H    0.011658
    85  H   -0.017446
    86  H   -0.018665
    87  H    0.008024
    88  H   -0.003351
    89  H   -0.009278
    90  H   -0.015765
    91  H   -0.029707
    92  H   -0.004955
    93  H    0.001019
    94  H   -0.006771
    95  H    0.017179
    96  H   -0.024394
    97  H    0.022375
    98  H    0.007646
    99  H    0.016786
   100  H    0.022181
   101  H    0.004102
   102  H    0.007176
   103  H    0.014213
   104  H   -0.040138
   105  H   -0.025898
   106  H    0.000151
   107  H    0.000793
   108  H   -0.048690
   109  H   -0.040767
   110  H   -0.019332
   111  H   -0.033936
   112  H   -0.042032
   113  H   -0.036471
   114  H   -0.030203
   115  H   -0.023560
   116  H   -0.013864
   117  H   -0.031415
   118  H   -0.032331
   119  H   -0.021286
   120  H   -0.028408
   121  H   -0.031617
   122  H   -0.035082
   123  H   -0.029126
   124  H   -0.035314
   125  H   -0.026688
   126  H   -0.020745
   127  H   -0.021192
   128  H   -0.044309
   129  H   -0.024007
   130  H   -0.029021
   131  H   -0.030136
   132  H   -0.036989
   133  H   -0.043005
   134  H   -0.038217
   135  H   -0.045680
   136  H   -0.010811
   137  H   -0.018248
   138  H   -0.015647
   139  H   -0.013985
   140  H   -0.023012
 Sum of Mulliken charges =  -0.00000

 Dipole moment (field-independent basis, Debye):
    X=             -3.9028    Y=              1.8080    Z=              3.4396  Tot=              5.5074
 Quadrupole moment (field-independent basis, Debye-Ang):
   XX=           -382.9414   YY=           -425.6026   ZZ=           -407.6159
   XY=             27.0609   XZ=             21.7489   YZ=             -6.8456

 Normal termination of Gaussian 16 at Thu Apr 28 15:45:57 2022.
