 Gaussian 16, Revision A.03,
 Gaussian 16:  ES64L-G16RevA.03 25-Dec-2016

 -----------------------------------
 #p cam-b3lyp/Def2SVP td=(nstates=5)
 -----------------------------------

 -------------------------------------------------------
 step_1601_chromophore_3 TDDFT with cam-b3lyp functional
 -------------------------------------------------------
 Symbolic Z-matrix:
 Charge =  0 Multiplicity = 1

                         Standard orientation:
 ---------------------------------------------------------------------
 Center     Atomic      Atomic             Coordinates (Angstroms)
 Number     Number       Type             X           Y           Z
 ---------------------------------------------------------------------
      1         12           0        5.382730    1.178359    0.145184
      2          6           0        4.630714   -2.294683   -0.085113
      3          6           0        1.864336    1.693238   -0.247899
      4          6           0        5.970977    4.494117   -0.092773
      5          6           0        8.692899    0.463676    0.249598
      6          7           0        3.350683   -0.267643   -0.174814
      7          6           0        3.419740   -1.638622   -0.161635
      8          6           0        1.981402   -2.125223    0.075561
      9          6           0        1.107165   -0.839521   -0.200343
     10          6           0        2.142326    0.320828   -0.124219
     11          6           0        0.394515   -0.847113   -1.641110
     12          6           0        1.692820   -2.678754    1.542963
     13          6           0        0.814708   -3.926911    1.655941
     14          6           0       -0.250693   -4.273583    0.695005
     15          8           0       -0.054627   -4.953076   -0.273886
     16          8           0       -1.467768   -3.697438    0.920177
     17          7           0        4.123476    2.824926   -0.100313
     18          6           0        2.741752    2.826054   -0.219235
     19          6           0        2.300959    4.162011   -0.477868
     20          6           0        3.422942    5.003916   -0.413109
     21          6           0        4.597171    4.102989   -0.188844
     22          6           0        0.809312    4.487676   -0.773848
     23          6           0        3.343302    6.557226   -0.554403
     24          8           0        4.400200    7.183187   -0.542864
     25          6           0        2.123334    7.420281   -0.643510
     26          7           0        7.104832    2.292575    0.017869
     27          6           0        7.107309    3.674226    0.043356
     28          6           0        8.514429    4.225500    0.336780
     29          6           0        9.411365    2.974439    0.395066
     30          6           0        8.369364    1.788393    0.301887
     31          6           0        9.018474    5.337306   -0.634099
     32          6           0       10.302832    2.858423    1.648914
     33          6           0       11.799876    2.569057    1.375571
     34          7           0        6.479042   -0.549578    0.058379
     35          6           0        7.845859   -0.689886    0.097350
     36          6           0        8.231853   -2.125541   -0.042744
     37          6           0        6.994188   -2.729361   -0.091717
     38          6           0        5.934598   -1.752695   -0.119524
     39          6           0        9.620386   -2.760877    0.101315
     40          6           0        6.363661   -4.097944   -0.173524
     41          8           0        6.922465   -5.161734   -0.343284
     42          6           0        4.814896   -3.789328    0.039493
     43          6           0        4.117063   -4.619993   -1.066984
     44          8           0        4.059904   -4.324736   -2.275106
     45          8           0        3.503048   -5.684894   -0.545131
     46          6           0        2.812580   -6.506061   -1.593294
     47          6           0       -2.528259   -4.278848    0.104275
     48          6           0       -3.854571   -3.779921    0.565188
     49          6           0       -5.092549   -4.149695    0.170557
     50          6           0       -5.459158   -5.100853   -0.908038
     51          6           0       -6.336264   -3.690543    0.961296
     52          6           0       -7.090626   -2.434193    0.379803
     53          6           0       -7.484779   -1.347318    1.447580
     54          6           0       -8.960631   -1.305134    1.757154
     55          6           0       -9.028797   -0.912612    3.277057
     56          6           0       -9.772532   -0.314403    0.934274
     57          6           0      -10.779879   -1.144635    0.089785
     58          6           0      -11.230381   -0.315712   -1.179315
     59          6           0      -12.760261   -0.064686   -1.166200
     60          6           0      -13.511486   -0.720232   -2.320043
     61          6           0      -12.998401    1.447879   -1.205574
     62          6           0      -12.652327    2.277456    0.107837
     63          6           0      -13.712530    3.289496    0.525780
     64          6           0      -13.537957    4.681935   -0.038215
     65          6           0      -13.276637    5.579481    1.223196
     66          6           0      -14.688584    5.137955   -0.841943
     67          1           0        0.780440    1.810615   -0.313965
     68          1           0        6.243626    5.543723    0.029311
     69          1           0        9.749285    0.188088    0.266455
     70          1           0        1.767251   -2.903191   -0.656993
     71          1           0        0.291752   -0.810417    0.522799
     72          1           0        0.804646   -1.541303   -2.375324
     73          1           0        0.609864    0.089947   -2.154447
     74          1           0       -0.689837   -0.862515   -1.755835
     75          1           0        1.168159   -1.938984    2.147254
     76          1           0        2.670602   -2.781678    2.013637
     77          1           0        0.169889   -3.806892    2.527006
     78          1           0        1.375582   -4.835120    1.878144
     79          1           0        0.716017    5.380615   -1.392076
     80          1           0        0.350132    4.632253    0.204403
     81          1           0        0.445293    3.666634   -1.390478
     82          1           0        1.777161    7.118673   -1.631651
     83          1           0        2.339513    8.488093   -0.677838
     84          1           0        1.344760    7.355446    0.116569
     85          1           0        8.385418    4.714035    1.302703
     86          1           0       10.006378    2.849938   -0.509603
     87          1           0        8.610699    6.293100   -0.303735
     88          1           0        8.678450    5.096482   -1.640771
     89          1           0       10.102511    5.419254   -0.707644
     90          1           0        9.917896    2.187859    2.416954
     91          1           0       10.307823    3.857286    2.085800
     92          1           0       12.251063    3.557651    1.467723
     93          1           0       11.975565    2.144999    0.386889
     94          1           0       12.183508    1.914518    2.157433
     95          1           0        9.632576   -3.354772    1.014959
     96          1           0       10.281868   -1.903476    0.229979
     97          1           0        9.847076   -3.330640   -0.798927
     98          1           0        4.552363   -3.997238    1.076420
     99          1           0        3.479684   -6.859093   -2.379025
    100          1           0        2.015198   -5.894768   -2.017331
    101          1           0        2.303012   -7.405139   -1.245213
    102          1           0       -2.656350   -5.352750    0.243261
    103          1           0       -2.486735   -4.104737   -0.971154
    104          1           0       -3.817327   -3.076640    1.396508
    105          1           0       -4.589301   -5.516712   -1.417277
    106          1           0       -6.033653   -4.489872   -1.604062
    107          1           0       -6.004790   -5.983081   -0.572345
    108          1           0       -6.136107   -3.492763    2.014458
    109          1           0       -6.986135   -4.537393    1.181591
    110          1           0       -7.946076   -2.810941   -0.180796
    111          1           0       -6.377679   -1.987703   -0.312759
    112          1           0       -7.097345   -0.418471    1.029050
    113          1           0       -6.819180   -1.518732    2.294542
    114          1           0       -9.351286   -2.323308    1.736891
    115          1           0       -8.065521   -0.688857    3.735742
    116          1           0       -9.521491   -1.714138    3.827355
    117          1           0       -9.568977    0.024136    3.414347
    118          1           0       -9.097677    0.257740    0.297806
    119          1           0      -10.294897    0.409727    1.559686
    120          1           0      -11.601414   -1.501123    0.711282
    121          1           0      -10.378426   -2.083196   -0.291803
    122          1           0      -10.813972   -0.857464   -2.028873
    123          1           0      -10.730661    0.652505   -1.152035
    124          1           0      -13.179467   -0.562169   -0.292399
    125          1           0      -14.006595   -0.066533   -3.038043
    126          1           0      -14.342107   -1.230921   -1.833718
    127          1           0      -12.873410   -1.347961   -2.942041
    128          1           0      -14.082580    1.518674   -1.287356
    129          1           0      -12.571322    1.965199   -2.063932
    130          1           0      -11.715537    2.822066   -0.012370
    131          1           0      -12.468762    1.501927    0.850922
    132          1           0      -13.614206    3.292525    1.611316
    133          1           0      -14.742430    3.051013    0.259255
    134          1           0      -12.634136    4.819758   -0.630972
    135          1           0      -13.201888    6.642994    0.995956
    136          1           0      -12.313398    5.387416    1.696576
    137          1           0      -14.161012    5.608543    1.860721
    138          1           0      -15.604190    5.332111   -0.283680
    139          1           0      -14.856057    4.381053   -1.608192
    140          1           0      -14.418752    6.069282   -1.341113
 ---------------------------------------------------------------------

 SCF Done:  E(RCAM-B3LYP) =  -3007.16144881     A.U. after   17 cycles

 Excitation energies and oscillator strengths:

 Excited State   1:      Singlet-A      1.7782 eV  697.24 nm  f=0.3658  <S**2>=0.000
     245 -> 248       -0.19398
     246 -> 247        0.68243
     245 <- 248       -0.10932
 This state for optimization and/or second-order correction.
 Total Energy, E(TD-HF/TD-DFT) =  -3007.09610082
 Copying the excited state density for this state as the 1-particle RhoCI density.

 Excited State   2:      Singlet-A      2.2902 eV  541.36 nm  f=0.1140  <S**2>=0.000
     245 -> 247        0.63636
     246 -> 248        0.30072

 Excited State   3:      Singlet-A      3.5736 eV  346.94 nm  f=0.2634  <S**2>=0.000
     242 -> 247        0.42345
     243 -> 247        0.29103
     245 -> 247       -0.16354
     246 -> 248        0.40873

 Excited State   4:      Singlet-A      3.5936 eV  345.02 nm  f=0.1672  <S**2>=0.000
     240 -> 247       -0.13296
     241 -> 247        0.19320
     241 -> 249       -0.15531
     241 -> 251       -0.10498
     243 -> 247        0.50570
     243 -> 249       -0.11266
     245 -> 247        0.13232
     246 -> 248       -0.29500

 Excited State   5:      Singlet-A      3.6638 eV  338.40 nm  f=0.0477  <S**2>=0.000
     240 -> 247        0.42697
     240 -> 249        0.21792
     240 -> 251       -0.18466
     241 -> 247        0.22598
     241 -> 249        0.15609
     242 -> 247        0.19369
     242 -> 249        0.14804
     242 -> 251       -0.13027
     246 -> 248       -0.13877

 The electronic state is 1-A.
 Alpha  occ. eigenvalues --  -46.88885 -19.26075 -19.25134 -19.19966 -19.19605
 Alpha  occ. eigenvalues --  -19.18492 -19.18359 -14.41386 -14.41284 -14.40181
 Alpha  occ. eigenvalues --  -14.39438 -10.39409 -10.38853 -10.35381 -10.35351
 Alpha  occ. eigenvalues --  -10.32316 -10.31376 -10.30985 -10.30793 -10.30548
 Alpha  occ. eigenvalues --  -10.30333 -10.30320 -10.30311 -10.29901 -10.28728
 Alpha  occ. eigenvalues --  -10.28442 -10.28410 -10.28157 -10.28106 -10.28020
 Alpha  occ. eigenvalues --  -10.28004 -10.27769 -10.27638 -10.27609 -10.27599
 Alpha  occ. eigenvalues --  -10.27530 -10.27459 -10.27366 -10.26868 -10.26570
 Alpha  occ. eigenvalues --  -10.26251 -10.26199 -10.26168 -10.26035 -10.25918
 Alpha  occ. eigenvalues --  -10.25855 -10.25748 -10.25505 -10.25475 -10.25430
 Alpha  occ. eigenvalues --  -10.25354 -10.25298 -10.25282 -10.25166 -10.24944
 Alpha  occ. eigenvalues --  -10.24929 -10.24869 -10.24851 -10.24753 -10.24598
 Alpha  occ. eigenvalues --  -10.24429 -10.24300 -10.24296 -10.24151 -10.24081
 Alpha  occ. eigenvalues --  -10.24024  -3.17416  -1.92309  -1.91871  -1.91716
 Alpha  occ. eigenvalues --   -1.18113  -1.15939  -1.10365  -1.09651  -1.08957
 Alpha  occ. eigenvalues --   -1.05620  -1.03780  -1.03005  -1.02471  -1.01620
 Alpha  occ. eigenvalues --   -0.92161  -0.90591  -0.90133  -0.89586  -0.89032
 Alpha  occ. eigenvalues --   -0.88593  -0.88102  -0.88076  -0.86943  -0.86520
 Alpha  occ. eigenvalues --   -0.85719  -0.85138  -0.83933  -0.83212  -0.82915
 Alpha  occ. eigenvalues --   -0.82318  -0.81786  -0.81378  -0.80562  -0.80080
 Alpha  occ. eigenvalues --   -0.80037  -0.78008  -0.77810  -0.76936  -0.75975
 Alpha  occ. eigenvalues --   -0.75879  -0.75502  -0.75124  -0.74680  -0.73972
 Alpha  occ. eigenvalues --   -0.73322  -0.72796  -0.71328  -0.70983  -0.68682
 Alpha  occ. eigenvalues --   -0.68008  -0.67902  -0.66916  -0.66782  -0.66205
 Alpha  occ. eigenvalues --   -0.65420  -0.65246  -0.64641  -0.64494  -0.64157
 Alpha  occ. eigenvalues --   -0.64089  -0.63478  -0.62837  -0.61676  -0.59968
 Alpha  occ. eigenvalues --   -0.59873  -0.59295  -0.58868  -0.58197  -0.57766
 Alpha  occ. eigenvalues --   -0.57227  -0.56556  -0.56191  -0.55628  -0.55247
 Alpha  occ. eigenvalues --   -0.55073  -0.54841  -0.53975  -0.53871  -0.53480
 Alpha  occ. eigenvalues --   -0.53431  -0.53296  -0.53034  -0.52966  -0.52807
 Alpha  occ. eigenvalues --   -0.52686  -0.52459  -0.52259  -0.51905  -0.51689
 Alpha  occ. eigenvalues --   -0.51595  -0.51291  -0.50963  -0.50763  -0.50598
 Alpha  occ. eigenvalues --   -0.50510  -0.50151  -0.50043  -0.49944  -0.49657
 Alpha  occ. eigenvalues --   -0.49557  -0.49428  -0.49158  -0.49001  -0.48810
 Alpha  occ. eigenvalues --   -0.48440  -0.48294  -0.48152  -0.47885  -0.47692
 Alpha  occ. eigenvalues --   -0.47594  -0.47204  -0.47097  -0.46572  -0.46504
 Alpha  occ. eigenvalues --   -0.46303  -0.46295  -0.46070  -0.46036  -0.45423
 Alpha  occ. eigenvalues --   -0.45296  -0.45221  -0.45053  -0.44780  -0.44723
 Alpha  occ. eigenvalues --   -0.44502  -0.44351  -0.44215  -0.43966  -0.43793
 Alpha  occ. eigenvalues --   -0.43345  -0.43098  -0.43032  -0.42995  -0.42697
 Alpha  occ. eigenvalues --   -0.42635  -0.42552  -0.42400  -0.42046  -0.41837
 Alpha  occ. eigenvalues --   -0.41694  -0.41543  -0.41485  -0.41397  -0.41121
 Alpha  occ. eigenvalues --   -0.40756  -0.40722  -0.40396  -0.40351  -0.40177
 Alpha  occ. eigenvalues --   -0.39846  -0.39258  -0.39055  -0.39032  -0.38667
 Alpha  occ. eigenvalues --   -0.38560  -0.38351  -0.37965  -0.37765  -0.37703
 Alpha  occ. eigenvalues --   -0.37421  -0.37342  -0.36705  -0.36630  -0.35935
 Alpha  occ. eigenvalues --   -0.35651  -0.35363  -0.34448  -0.34050  -0.33627
 Alpha  occ. eigenvalues --   -0.33520  -0.33312  -0.32485  -0.31495  -0.30653
 Alpha  occ. eigenvalues --   -0.30639  -0.30404  -0.29994  -0.29534  -0.23783
 Alpha  occ. eigenvalues --   -0.21100
 Alpha virt. eigenvalues --   -0.08180  -0.01469   0.01009   0.02478   0.02841
 Alpha virt. eigenvalues --    0.04318   0.05942   0.06033   0.06448   0.07116
 Alpha virt. eigenvalues --    0.07992   0.08852   0.09097   0.09272   0.09491

 Mulliken charges:
               1
     1  Mg   0.822047
     2  C   -0.012985
     3  C   -0.061389
     4  C   -0.061714
     5  C   -0.068734
     6  N   -0.227956
     7  C   -0.044880
     8  C   -0.044820
     9  C   -0.047597
    10  C   -0.006669
    11  C    0.038252
    12  C    0.095744
    13  C    0.092026
    14  C    0.120486
    15  O   -0.222548
    16  O   -0.326949
    17  N   -0.380223
    18  C    0.179604
    19  C   -0.195162
    20  C   -0.028431
    21  C    0.155074
    22  C    0.138091
    23  C    0.007114
    24  O   -0.219143
    25  C    0.059925
    26  N   -0.363657
    27  C    0.036784
    28  C   -0.033695
    29  C   -0.008561
    30  C    0.070939
    31  C    0.054858
    32  C    0.030065
    33  C   -0.004181
    34  N   -0.348428
    35  C    0.072867
    36  C   -0.201273
    37  C   -0.026234
    38  C    0.122082
    39  C    0.142400
    40  C    0.091098
    41  O   -0.152639
    42  C   -0.026057
    43  C    0.214036
    44  O   -0.257319
    45  O   -0.305986
    46  C    0.183807
    47  C    0.298746
    48  C   -0.135732
    49  C   -0.178751
    50  C    0.098906
    51  C    0.034674
    52  C    0.015433
    53  C    0.056178
    54  C   -0.124971
    55  C    0.033714
    56  C    0.098524
    57  C   -0.042493
    58  C    0.075382
    59  C   -0.116121
    60  C    0.055004
    61  C    0.018842
    62  C    0.008335
    63  C    0.081698
    64  C   -0.142184
    65  C    0.017969
    66  C    0.061460
    67  H   -0.017478
    68  H   -0.009687
    69  H   -0.038235
    70  H    0.037552
    71  H    0.010208
    72  H    0.025531
    73  H   -0.006220
    74  H    0.015775
    75  H    0.012431
    76  H    0.006077
    77  H    0.008481
    78  H    0.039978
    79  H    0.003247
    80  H    0.041752
    81  H    0.033922
    82  H    0.038268
    83  H    0.025753
    84  H    0.040181
    85  H    0.017648
    86  H    0.016215
    87  H    0.030552
    88  H    0.021958
    89  H    0.015466
    90  H    0.014388
    91  H   -0.001012
    92  H    0.017158
    93  H    0.021530
    94  H    0.017465
    95  H    0.040853
    96  H   -0.002105
    97  H    0.046848
    98  H    0.048684
    99  H    0.041130
   100  H    0.045446
   101  H    0.029160
   102  H    0.033705
   103  H    0.040464
   104  H   -0.004579
   105  H   -0.000799
   106  H    0.023671
   107  H    0.026087
   108  H   -0.017114
   109  H   -0.010355
   110  H    0.005014
   111  H   -0.003273
   112  H   -0.011801
   113  H   -0.007184
   114  H    0.001599
   115  H    0.001085
   116  H    0.009888
   117  H   -0.007335
   118  H   -0.004169
   119  H    0.004854
   120  H   -0.001013
   121  H   -0.004346
   122  H   -0.005304
   123  H   -0.001849
   124  H   -0.002844
   125  H   -0.000561
   126  H    0.003294
   127  H    0.003491
   128  H   -0.016134
   129  H    0.003621
   130  H   -0.003652
   131  H   -0.003897
   132  H   -0.004513
   133  H   -0.012313
   134  H   -0.006742
   135  H   -0.018880
   136  H    0.013439
   137  H    0.005258
   138  H    0.007947
   139  H    0.009146
   140  H    0.002485
 Sum of Mulliken charges =  -0.00000

 Dipole moment (field-independent basis, Debye):
    X=             -4.6689    Y=              2.3952    Z=              3.6065  Tot=              6.3673
 Quadrupole moment (field-independent basis, Debye-Ang):
   XX=           -386.9317   YY=           -420.8441   ZZ=           -407.5351
   XY=             28.1492   XZ=             22.7024   YZ=             -7.5218

 Normal termination of Gaussian 16 at Thu Apr 28 14:47:21 2022.
