 Gaussian 16, Revision A.03,
 Gaussian 16:  ES64L-G16RevA.03 25-Dec-2016

 ---------------------------------
 #p PBE1PBE/Def2SVP td=(nstates=5)
 ---------------------------------

 -----------------------------------------------------
 step_1601_chromophore_3 TDDFT with PBE1PBE functional
 -----------------------------------------------------
 Symbolic Z-matrix:
 Charge =  0 Multiplicity = 1

                         Standard orientation:
 ---------------------------------------------------------------------
 Center     Atomic      Atomic             Coordinates (Angstroms)
 Number     Number       Type             X           Y           Z
 ---------------------------------------------------------------------
      1         12           0        5.382730    1.178359    0.145184
      2          6           0        4.630714   -2.294683   -0.085113
      3          6           0        1.864336    1.693238   -0.247899
      4          6           0        5.970977    4.494117   -0.092773
      5          6           0        8.692899    0.463676    0.249598
      6          7           0        3.350683   -0.267643   -0.174814
      7          6           0        3.419740   -1.638622   -0.161635
      8          6           0        1.981402   -2.125223    0.075561
      9          6           0        1.107165   -0.839521   -0.200343
     10          6           0        2.142326    0.320828   -0.124219
     11          6           0        0.394515   -0.847113   -1.641110
     12          6           0        1.692820   -2.678754    1.542963
     13          6           0        0.814708   -3.926911    1.655941
     14          6           0       -0.250693   -4.273583    0.695005
     15          8           0       -0.054627   -4.953076   -0.273886
     16          8           0       -1.467768   -3.697438    0.920177
     17          7           0        4.123476    2.824926   -0.100313
     18          6           0        2.741752    2.826054   -0.219235
     19          6           0        2.300959    4.162011   -0.477868
     20          6           0        3.422942    5.003916   -0.413109
     21          6           0        4.597171    4.102989   -0.188844
     22          6           0        0.809312    4.487676   -0.773848
     23          6           0        3.343302    6.557226   -0.554403
     24          8           0        4.400200    7.183187   -0.542864
     25          6           0        2.123334    7.420281   -0.643510
     26          7           0        7.104832    2.292575    0.017869
     27          6           0        7.107309    3.674226    0.043356
     28          6           0        8.514429    4.225500    0.336780
     29          6           0        9.411365    2.974439    0.395066
     30          6           0        8.369364    1.788393    0.301887
     31          6           0        9.018474    5.337306   -0.634099
     32          6           0       10.302832    2.858423    1.648914
     33          6           0       11.799876    2.569057    1.375571
     34          7           0        6.479042   -0.549578    0.058379
     35          6           0        7.845859   -0.689886    0.097350
     36          6           0        8.231853   -2.125541   -0.042744
     37          6           0        6.994188   -2.729361   -0.091717
     38          6           0        5.934598   -1.752695   -0.119524
     39          6           0        9.620386   -2.760877    0.101315
     40          6           0        6.363661   -4.097944   -0.173524
     41          8           0        6.922465   -5.161734   -0.343284
     42          6           0        4.814896   -3.789328    0.039493
     43          6           0        4.117063   -4.619993   -1.066984
     44          8           0        4.059904   -4.324736   -2.275106
     45          8           0        3.503048   -5.684894   -0.545131
     46          6           0        2.812580   -6.506061   -1.593294
     47          6           0       -2.528259   -4.278848    0.104275
     48          6           0       -3.854571   -3.779921    0.565188
     49          6           0       -5.092549   -4.149695    0.170557
     50          6           0       -5.459158   -5.100853   -0.908038
     51          6           0       -6.336264   -3.690543    0.961296
     52          6           0       -7.090626   -2.434193    0.379803
     53          6           0       -7.484779   -1.347318    1.447580
     54          6           0       -8.960631   -1.305134    1.757154
     55          6           0       -9.028797   -0.912612    3.277057
     56          6           0       -9.772532   -0.314403    0.934274
     57          6           0      -10.779879   -1.144635    0.089785
     58          6           0      -11.230381   -0.315712   -1.179315
     59          6           0      -12.760261   -0.064686   -1.166200
     60          6           0      -13.511486   -0.720232   -2.320043
     61          6           0      -12.998401    1.447879   -1.205574
     62          6           0      -12.652327    2.277456    0.107837
     63          6           0      -13.712530    3.289496    0.525780
     64          6           0      -13.537957    4.681935   -0.038215
     65          6           0      -13.276637    5.579481    1.223196
     66          6           0      -14.688584    5.137955   -0.841943
     67          1           0        0.780440    1.810615   -0.313965
     68          1           0        6.243626    5.543723    0.029311
     69          1           0        9.749285    0.188088    0.266455
     70          1           0        1.767251   -2.903191   -0.656993
     71          1           0        0.291752   -0.810417    0.522799
     72          1           0        0.804646   -1.541303   -2.375324
     73          1           0        0.609864    0.089947   -2.154447
     74          1           0       -0.689837   -0.862515   -1.755835
     75          1           0        1.168159   -1.938984    2.147254
     76          1           0        2.670602   -2.781678    2.013637
     77          1           0        0.169889   -3.806892    2.527006
     78          1           0        1.375582   -4.835120    1.878144
     79          1           0        0.716017    5.380615   -1.392076
     80          1           0        0.350132    4.632253    0.204403
     81          1           0        0.445293    3.666634   -1.390478
     82          1           0        1.777161    7.118673   -1.631651
     83          1           0        2.339513    8.488093   -0.677838
     84          1           0        1.344760    7.355446    0.116569
     85          1           0        8.385418    4.714035    1.302703
     86          1           0       10.006378    2.849938   -0.509603
     87          1           0        8.610699    6.293100   -0.303735
     88          1           0        8.678450    5.096482   -1.640771
     89          1           0       10.102511    5.419254   -0.707644
     90          1           0        9.917896    2.187859    2.416954
     91          1           0       10.307823    3.857286    2.085800
     92          1           0       12.251063    3.557651    1.467723
     93          1           0       11.975565    2.144999    0.386889
     94          1           0       12.183508    1.914518    2.157433
     95          1           0        9.632576   -3.354772    1.014959
     96          1           0       10.281868   -1.903476    0.229979
     97          1           0        9.847076   -3.330640   -0.798927
     98          1           0        4.552363   -3.997238    1.076420
     99          1           0        3.479684   -6.859093   -2.379025
    100          1           0        2.015198   -5.894768   -2.017331
    101          1           0        2.303012   -7.405139   -1.245213
    102          1           0       -2.656350   -5.352750    0.243261
    103          1           0       -2.486735   -4.104737   -0.971154
    104          1           0       -3.817327   -3.076640    1.396508
    105          1           0       -4.589301   -5.516712   -1.417277
    106          1           0       -6.033653   -4.489872   -1.604062
    107          1           0       -6.004790   -5.983081   -0.572345
    108          1           0       -6.136107   -3.492763    2.014458
    109          1           0       -6.986135   -4.537393    1.181591
    110          1           0       -7.946076   -2.810941   -0.180796
    111          1           0       -6.377679   -1.987703   -0.312759
    112          1           0       -7.097345   -0.418471    1.029050
    113          1           0       -6.819180   -1.518732    2.294542
    114          1           0       -9.351286   -2.323308    1.736891
    115          1           0       -8.065521   -0.688857    3.735742
    116          1           0       -9.521491   -1.714138    3.827355
    117          1           0       -9.568977    0.024136    3.414347
    118          1           0       -9.097677    0.257740    0.297806
    119          1           0      -10.294897    0.409727    1.559686
    120          1           0      -11.601414   -1.501123    0.711282
    121          1           0      -10.378426   -2.083196   -0.291803
    122          1           0      -10.813972   -0.857464   -2.028873
    123          1           0      -10.730661    0.652505   -1.152035
    124          1           0      -13.179467   -0.562169   -0.292399
    125          1           0      -14.006595   -0.066533   -3.038043
    126          1           0      -14.342107   -1.230921   -1.833718
    127          1           0      -12.873410   -1.347961   -2.942041
    128          1           0      -14.082580    1.518674   -1.287356
    129          1           0      -12.571322    1.965199   -2.063932
    130          1           0      -11.715537    2.822066   -0.012370
    131          1           0      -12.468762    1.501927    0.850922
    132          1           0      -13.614206    3.292525    1.611316
    133          1           0      -14.742430    3.051013    0.259255
    134          1           0      -12.634136    4.819758   -0.630972
    135          1           0      -13.201888    6.642994    0.995956
    136          1           0      -12.313398    5.387416    1.696576
    137          1           0      -14.161012    5.608543    1.860721
    138          1           0      -15.604190    5.332111   -0.283680
    139          1           0      -14.856057    4.381053   -1.608192
    140          1           0      -14.418752    6.069282   -1.341113
 ---------------------------------------------------------------------

 SCF Done:  E(RPBE1PBE) =  -3005.34816310     A.U. after   15 cycles

 Excitation energies and oscillator strengths:

 Excited State   1:      Singlet-A      1.9275 eV  643.25 nm  f=0.3541  <S**2>=0.000
     245 -> 248       -0.18882
     246 -> 247        0.68823
 This state for optimization and/or second-order correction.
 Total Energy, E(TD-HF/TD-DFT) =  -3005.27732969
 Copying the excited state density for this state as the 1-particle RhoCI density.

 Excited State   2:      Singlet-A      2.2970 eV  539.76 nm  f=0.1138  <S**2>=0.000
     245 -> 247        0.64585
     246 -> 248        0.28165

 Excited State   3:      Singlet-A      3.0859 eV  401.77 nm  f=0.0000  <S**2>=0.000
     243 -> 247        0.67465
     243 -> 249        0.14644
     243 -> 250        0.11425

 Excited State   4:      Singlet-A      3.1319 eV  395.88 nm  f=0.0020  <S**2>=0.000
     241 -> 247        0.14235
     242 -> 247        0.65669
     242 -> 249       -0.13273

 Excited State   5:      Singlet-A      3.2888 eV  376.99 nm  f=0.0034  <S**2>=0.000
     241 -> 247        0.66763
     242 -> 247       -0.15980

 The electronic state is 1-A.
 Alpha  occ. eigenvalues --  -46.92289 -19.26723 -19.25781 -19.20183 -19.19891
 Alpha  occ. eigenvalues --  -19.18794 -19.18485 -14.41084 -14.40646 -14.39769
 Alpha  occ. eigenvalues --  -14.39126 -10.36408 -10.35906 -10.32612 -10.32463
 Alpha  occ. eigenvalues --  -10.29712 -10.28852 -10.28603 -10.28401 -10.28227
 Alpha  occ. eigenvalues --  -10.28171 -10.27837 -10.27832 -10.27801 -10.26369
 Alpha  occ. eigenvalues --  -10.26343 -10.26181 -10.25825 -10.25746 -10.25718
 Alpha  occ. eigenvalues --  -10.25618 -10.25494 -10.25475 -10.25451 -10.25226
 Alpha  occ. eigenvalues --  -10.25200 -10.24939 -10.24649 -10.24516 -10.24017
 Alpha  occ. eigenvalues --  -10.23933 -10.23812 -10.23781 -10.23719 -10.23340
 Alpha  occ. eigenvalues --  -10.23277 -10.23266 -10.23052 -10.23047 -10.22958
 Alpha  occ. eigenvalues --  -10.22955 -10.22916 -10.22855 -10.22781 -10.22626
 Alpha  occ. eigenvalues --  -10.22508 -10.22481 -10.22444 -10.22365 -10.22146
 Alpha  occ. eigenvalues --  -10.21998 -10.21691 -10.21680 -10.21640 -10.21510
 Alpha  occ. eigenvalues --  -10.21408  -3.14398  -1.87231  -1.86773  -1.86620
 Alpha  occ. eigenvalues --   -1.12910  -1.10745  -1.05190  -1.04300  -1.03807
 Alpha  occ. eigenvalues --   -1.00455  -0.98532  -0.97577  -0.97039  -0.96274
 Alpha  occ. eigenvalues --   -0.86532  -0.84704  -0.84228  -0.83710  -0.83192
 Alpha  occ. eigenvalues --   -0.82893  -0.82386  -0.82195  -0.81270  -0.80809
 Alpha  occ. eigenvalues --   -0.80050  -0.79366  -0.78104  -0.77523  -0.77221
 Alpha  occ. eigenvalues --   -0.76524  -0.75884  -0.75523  -0.74848  -0.74373
 Alpha  occ. eigenvalues --   -0.74230  -0.72303  -0.71985  -0.71272  -0.70226
 Alpha  occ. eigenvalues --   -0.70042  -0.69693  -0.69459  -0.68811  -0.68124
 Alpha  occ. eigenvalues --   -0.67677  -0.67227  -0.65749  -0.65292  -0.63073
 Alpha  occ. eigenvalues --   -0.62473  -0.62152  -0.61257  -0.61092  -0.60348
 Alpha  occ. eigenvalues --   -0.59872  -0.59657  -0.59133  -0.59087  -0.58704
 Alpha  occ. eigenvalues --   -0.58251  -0.57613  -0.56964  -0.56311  -0.54447
 Alpha  occ. eigenvalues --   -0.54296  -0.53939  -0.53362  -0.52827  -0.52202
 Alpha  occ. eigenvalues --   -0.51867  -0.50943  -0.50742  -0.50225  -0.49779
 Alpha  occ. eigenvalues --   -0.49603  -0.49426  -0.48385  -0.48376  -0.48104
 Alpha  occ. eigenvalues --   -0.47916  -0.47810  -0.47542  -0.47455  -0.47215
 Alpha  occ. eigenvalues --   -0.47117  -0.46967  -0.46851  -0.46429  -0.46232
 Alpha  occ. eigenvalues --   -0.46162  -0.45800  -0.45427  -0.45265  -0.45200
 Alpha  occ. eigenvalues --   -0.45051  -0.44840  -0.44646  -0.44588  -0.44215
 Alpha  occ. eigenvalues --   -0.44137  -0.44062  -0.43708  -0.43590  -0.43370
 Alpha  occ. eigenvalues --   -0.43142  -0.42864  -0.42725  -0.42479  -0.42260
 Alpha  occ. eigenvalues --   -0.42146  -0.41881  -0.41786  -0.41247  -0.41225
 Alpha  occ. eigenvalues --   -0.40997  -0.40903  -0.40758  -0.40638  -0.40243
 Alpha  occ. eigenvalues --   -0.40064  -0.39888  -0.39776  -0.39552  -0.39441
 Alpha  occ. eigenvalues --   -0.39297  -0.39107  -0.38925  -0.38695  -0.38502
 Alpha  occ. eigenvalues --   -0.38173  -0.37895  -0.37807  -0.37679  -0.37541
 Alpha  occ. eigenvalues --   -0.37357  -0.37345  -0.37127  -0.36889  -0.36646
 Alpha  occ. eigenvalues --   -0.36397  -0.36332  -0.36247  -0.36191  -0.36021
 Alpha  occ. eigenvalues --   -0.35656  -0.35567  -0.35300  -0.35084  -0.34911
 Alpha  occ. eigenvalues --   -0.34588  -0.34074  -0.34004  -0.33973  -0.33603
 Alpha  occ. eigenvalues --   -0.33344  -0.33086  -0.32892  -0.32720  -0.32520
 Alpha  occ. eigenvalues --   -0.32210  -0.32134  -0.31715  -0.31514  -0.30887
 Alpha  occ. eigenvalues --   -0.30553  -0.30456  -0.29361  -0.28852  -0.28607
 Alpha  occ. eigenvalues --   -0.28559  -0.28384  -0.27884  -0.27090  -0.26060
 Alpha  occ. eigenvalues --   -0.25837  -0.25451  -0.25185  -0.24811  -0.20728
 Alpha  occ. eigenvalues --   -0.18713
 Alpha virt. eigenvalues --   -0.10706  -0.04957  -0.03313  -0.01687  -0.00368
 Alpha virt. eigenvalues --   -0.00041   0.01514   0.01551   0.01967   0.03465
 Alpha virt. eigenvalues --    0.04034   0.05160   0.05607   0.05807   0.05915

 Mulliken charges:
               1
     1  Mg   0.967208
     2  C   -0.044861
     3  C   -0.061458
     4  C   -0.045043
     5  C   -0.065599
     6  N   -0.327248
     7  C    0.049978
     8  C   -0.119607
     9  C   -0.128631
    10  C    0.043942
    11  C   -0.014026
    12  C    0.044080
    13  C    0.019555
    14  C    0.186977
    15  O   -0.255179
    16  O   -0.360532
    17  N   -0.497763
    18  C    0.202839
    19  C   -0.218161
    20  C   -0.078603
    21  C    0.177131
    22  C    0.074499
    23  C    0.051885
    24  O   -0.252657
    25  C   -0.010716
    26  N   -0.465735
    27  C    0.072534
    28  C   -0.111925
    29  C   -0.087562
    30  C    0.107464
    31  C   -0.003754
    32  C   -0.028204
    33  C   -0.076040
    34  N   -0.477629
    35  C    0.094754
    36  C   -0.212126
    37  C   -0.083113
    38  C    0.189801
    39  C    0.082234
    40  C    0.191705
    41  O   -0.197774
    42  C   -0.132014
    43  C    0.297228
    44  O   -0.289139
    45  O   -0.337965
    46  C    0.125976
    47  C    0.257789
    48  C   -0.142443
    49  C   -0.233347
    50  C    0.036408
    51  C   -0.018660
    52  C   -0.048017
    53  C    0.004953
    54  C   -0.220687
    55  C   -0.020958
    56  C    0.048206
    57  C   -0.105632
    58  C    0.025700
    59  C   -0.205163
    60  C   -0.000224
    61  C   -0.038984
    62  C   -0.057240
    63  C    0.025979
    64  C   -0.232874
    65  C   -0.045042
    66  C   -0.002674
    67  H    0.013390
    68  H    0.023309
    69  H   -0.002195
    70  H    0.078443
    71  H    0.046049
    72  H    0.051556
    73  H    0.022308
    74  H    0.042409
    75  H    0.043885
    76  H    0.039336
    77  H    0.041625
    78  H    0.070962
    79  H    0.031409
    80  H    0.069624
    81  H    0.059574
    82  H    0.064756
    83  H    0.053047
    84  H    0.065565
    85  H    0.054922
    86  H    0.053265
    87  H    0.056943
    88  H    0.050252
    89  H    0.043382
    90  H    0.045706
    91  H    0.033668
    92  H    0.045128
    93  H    0.047436
    94  H    0.045432
    95  H    0.068921
    96  H    0.027605
    97  H    0.074481
    98  H    0.085867
    99  H    0.063227
   100  H    0.068297
   101  H    0.051285
   102  H    0.061088
   103  H    0.066088
   104  H    0.025794
   105  H    0.026860
   106  H    0.052664
   107  H    0.052723
   108  H    0.014221
   109  H    0.021343
   110  H    0.038296
   111  H    0.030910
   112  H    0.020781
   113  H    0.023718
   114  H    0.039677
   115  H    0.027672
   116  H    0.037081
   117  H    0.019920
   118  H    0.027469
   119  H    0.037009
   120  H    0.030865
   121  H    0.028656
   122  H    0.026152
   123  H    0.031525
   124  H    0.033559
   125  H    0.026215
   126  H    0.030592
   127  H    0.030472
   128  H    0.018545
   129  H    0.035881
   130  H    0.028337
   131  H    0.032263
   132  H    0.028519
   133  H    0.020149
   134  H    0.030118
   135  H    0.010120
   136  H    0.041811
   137  H    0.033258
   138  H    0.035120
   139  H    0.038757
   140  H    0.031085
 Sum of Mulliken charges =  -0.00000

 Dipole moment (field-independent basis, Debye):
    X=             -4.3472    Y=              2.2186    Z=              3.6549  Tot=              6.0974
 Quadrupole moment (field-independent basis, Debye-Ang):
   XX=           -378.0973   YY=           -418.2629   ZZ=           -405.0823
   XY=             28.2811   XZ=             23.2703   YZ=             -7.1865

 Normal termination of Gaussian 16 at Thu Apr 28 15:05:36 2022.
