 Gaussian 16, Revision A.03,
 Gaussian 16:  ES64L-G16RevA.03 25-Dec-2016

 --------------------------------
 #p wB97XD/Def2SVP td=(nstates=5)
 --------------------------------

 ----------------------------------------------------
 step_1601_chromophore_3 TDDFT with wB97XD functional
 ----------------------------------------------------
 Symbolic Z-matrix:
 Charge =  0 Multiplicity = 1

                         Standard orientation:
 ---------------------------------------------------------------------
 Center     Atomic      Atomic             Coordinates (Angstroms)
 Number     Number       Type             X           Y           Z
 ---------------------------------------------------------------------
      1         12           0        5.382730    1.178359    0.145184
      2          6           0        4.630714   -2.294683   -0.085113
      3          6           0        1.864336    1.693238   -0.247899
      4          6           0        5.970977    4.494117   -0.092773
      5          6           0        8.692899    0.463676    0.249598
      6          7           0        3.350683   -0.267643   -0.174814
      7          6           0        3.419740   -1.638622   -0.161635
      8          6           0        1.981402   -2.125223    0.075561
      9          6           0        1.107165   -0.839521   -0.200343
     10          6           0        2.142326    0.320828   -0.124219
     11          6           0        0.394515   -0.847113   -1.641110
     12          6           0        1.692820   -2.678754    1.542963
     13          6           0        0.814708   -3.926911    1.655941
     14          6           0       -0.250693   -4.273583    0.695005
     15          8           0       -0.054627   -4.953076   -0.273886
     16          8           0       -1.467768   -3.697438    0.920177
     17          7           0        4.123476    2.824926   -0.100313
     18          6           0        2.741752    2.826054   -0.219235
     19          6           0        2.300959    4.162011   -0.477868
     20          6           0        3.422942    5.003916   -0.413109
     21          6           0        4.597171    4.102989   -0.188844
     22          6           0        0.809312    4.487676   -0.773848
     23          6           0        3.343302    6.557226   -0.554403
     24          8           0        4.400200    7.183187   -0.542864
     25          6           0        2.123334    7.420281   -0.643510
     26          7           0        7.104832    2.292575    0.017869
     27          6           0        7.107309    3.674226    0.043356
     28          6           0        8.514429    4.225500    0.336780
     29          6           0        9.411365    2.974439    0.395066
     30          6           0        8.369364    1.788393    0.301887
     31          6           0        9.018474    5.337306   -0.634099
     32          6           0       10.302832    2.858423    1.648914
     33          6           0       11.799876    2.569057    1.375571
     34          7           0        6.479042   -0.549578    0.058379
     35          6           0        7.845859   -0.689886    0.097350
     36          6           0        8.231853   -2.125541   -0.042744
     37          6           0        6.994188   -2.729361   -0.091717
     38          6           0        5.934598   -1.752695   -0.119524
     39          6           0        9.620386   -2.760877    0.101315
     40          6           0        6.363661   -4.097944   -0.173524
     41          8           0        6.922465   -5.161734   -0.343284
     42          6           0        4.814896   -3.789328    0.039493
     43          6           0        4.117063   -4.619993   -1.066984
     44          8           0        4.059904   -4.324736   -2.275106
     45          8           0        3.503048   -5.684894   -0.545131
     46          6           0        2.812580   -6.506061   -1.593294
     47          6           0       -2.528259   -4.278848    0.104275
     48          6           0       -3.854571   -3.779921    0.565188
     49          6           0       -5.092549   -4.149695    0.170557
     50          6           0       -5.459158   -5.100853   -0.908038
     51          6           0       -6.336264   -3.690543    0.961296
     52          6           0       -7.090626   -2.434193    0.379803
     53          6           0       -7.484779   -1.347318    1.447580
     54          6           0       -8.960631   -1.305134    1.757154
     55          6           0       -9.028797   -0.912612    3.277057
     56          6           0       -9.772532   -0.314403    0.934274
     57          6           0      -10.779879   -1.144635    0.089785
     58          6           0      -11.230381   -0.315712   -1.179315
     59          6           0      -12.760261   -0.064686   -1.166200
     60          6           0      -13.511486   -0.720232   -2.320043
     61          6           0      -12.998401    1.447879   -1.205574
     62          6           0      -12.652327    2.277456    0.107837
     63          6           0      -13.712530    3.289496    0.525780
     64          6           0      -13.537957    4.681935   -0.038215
     65          6           0      -13.276637    5.579481    1.223196
     66          6           0      -14.688584    5.137955   -0.841943
     67          1           0        0.780440    1.810615   -0.313965
     68          1           0        6.243626    5.543723    0.029311
     69          1           0        9.749285    0.188088    0.266455
     70          1           0        1.767251   -2.903191   -0.656993
     71          1           0        0.291752   -0.810417    0.522799
     72          1           0        0.804646   -1.541303   -2.375324
     73          1           0        0.609864    0.089947   -2.154447
     74          1           0       -0.689837   -0.862515   -1.755835
     75          1           0        1.168159   -1.938984    2.147254
     76          1           0        2.670602   -2.781678    2.013637
     77          1           0        0.169889   -3.806892    2.527006
     78          1           0        1.375582   -4.835120    1.878144
     79          1           0        0.716017    5.380615   -1.392076
     80          1           0        0.350132    4.632253    0.204403
     81          1           0        0.445293    3.666634   -1.390478
     82          1           0        1.777161    7.118673   -1.631651
     83          1           0        2.339513    8.488093   -0.677838
     84          1           0        1.344760    7.355446    0.116569
     85          1           0        8.385418    4.714035    1.302703
     86          1           0       10.006378    2.849938   -0.509603
     87          1           0        8.610699    6.293100   -0.303735
     88          1           0        8.678450    5.096482   -1.640771
     89          1           0       10.102511    5.419254   -0.707644
     90          1           0        9.917896    2.187859    2.416954
     91          1           0       10.307823    3.857286    2.085800
     92          1           0       12.251063    3.557651    1.467723
     93          1           0       11.975565    2.144999    0.386889
     94          1           0       12.183508    1.914518    2.157433
     95          1           0        9.632576   -3.354772    1.014959
     96          1           0       10.281868   -1.903476    0.229979
     97          1           0        9.847076   -3.330640   -0.798927
     98          1           0        4.552363   -3.997238    1.076420
     99          1           0        3.479684   -6.859093   -2.379025
    100          1           0        2.015198   -5.894768   -2.017331
    101          1           0        2.303012   -7.405139   -1.245213
    102          1           0       -2.656350   -5.352750    0.243261
    103          1           0       -2.486735   -4.104737   -0.971154
    104          1           0       -3.817327   -3.076640    1.396508
    105          1           0       -4.589301   -5.516712   -1.417277
    106          1           0       -6.033653   -4.489872   -1.604062
    107          1           0       -6.004790   -5.983081   -0.572345
    108          1           0       -6.136107   -3.492763    2.014458
    109          1           0       -6.986135   -4.537393    1.181591
    110          1           0       -7.946076   -2.810941   -0.180796
    111          1           0       -6.377679   -1.987703   -0.312759
    112          1           0       -7.097345   -0.418471    1.029050
    113          1           0       -6.819180   -1.518732    2.294542
    114          1           0       -9.351286   -2.323308    1.736891
    115          1           0       -8.065521   -0.688857    3.735742
    116          1           0       -9.521491   -1.714138    3.827355
    117          1           0       -9.568977    0.024136    3.414347
    118          1           0       -9.097677    0.257740    0.297806
    119          1           0      -10.294897    0.409727    1.559686
    120          1           0      -11.601414   -1.501123    0.711282
    121          1           0      -10.378426   -2.083196   -0.291803
    122          1           0      -10.813972   -0.857464   -2.028873
    123          1           0      -10.730661    0.652505   -1.152035
    124          1           0      -13.179467   -0.562169   -0.292399
    125          1           0      -14.006595   -0.066533   -3.038043
    126          1           0      -14.342107   -1.230921   -1.833718
    127          1           0      -12.873410   -1.347961   -2.942041
    128          1           0      -14.082580    1.518674   -1.287356
    129          1           0      -12.571322    1.965199   -2.063932
    130          1           0      -11.715537    2.822066   -0.012370
    131          1           0      -12.468762    1.501927    0.850922
    132          1           0      -13.614206    3.292525    1.611316
    133          1           0      -14.742430    3.051013    0.259255
    134          1           0      -12.634136    4.819758   -0.630972
    135          1           0      -13.201888    6.642994    0.995956
    136          1           0      -12.313398    5.387416    1.696576
    137          1           0      -14.161012    5.608543    1.860721
    138          1           0      -15.604190    5.332111   -0.283680
    139          1           0      -14.856057    4.381053   -1.608192
    140          1           0      -14.418752    6.069282   -1.341113
 ---------------------------------------------------------------------

 SCF Done:  E(RwB97XD) =  -3007.85820346     A.U. after   19 cycles

 Excitation energies and oscillator strengths:

 Excited State   1:      Singlet-A      1.7261 eV  718.27 nm  f=0.3645  <S**2>=0.000
     245 -> 248       -0.19908
     246 -> 247        0.68042
     245 <- 248       -0.11811
 This state for optimization and/or second-order correction.
 Total Energy, E(TD-HF/TD-DFT) =  -3007.79476869
 Copying the excited state density for this state as the 1-particle RhoCI density.

 Excited State   2:      Singlet-A      2.2397 eV  553.58 nm  f=0.1114  <S**2>=0.000
     245 -> 247        0.63486
     246 -> 248        0.30207

 Excited State   3:      Singlet-A      3.5825 eV  346.08 nm  f=0.3110  <S**2>=0.000
     240 -> 247       -0.31396
     241 -> 247       -0.12609
     242 -> 247        0.30635
     243 -> 247        0.20663
     245 -> 247       -0.17268
     246 -> 248        0.43796

 Excited State   4:      Singlet-A      3.6199 eV  342.50 nm  f=0.1671  <S**2>=0.000
     240 -> 247       -0.11630
     241 -> 247        0.12219
     241 -> 249       -0.15663
     241 -> 250        0.12024
     243 -> 247        0.53409
     243 -> 249       -0.13699
     245 -> 247        0.13248
     246 -> 248       -0.28033

 Excited State   5:      Singlet-A      3.6804 eV  336.88 nm  f=0.0328  <S**2>=0.000
     240 -> 247        0.30900
     240 -> 249        0.15732
     240 -> 250        0.12155
     242 -> 247        0.39802
     242 -> 248        0.10495
     242 -> 249        0.27885
     242 -> 250        0.24328
     246 -> 248       -0.11237

 The electronic state is 1-A.
 Alpha  occ. eigenvalues --  -46.95226 -19.31285 -19.30340 -19.24842 -19.24635
 Alpha  occ. eigenvalues --  -19.23463 -19.23399 -14.45975 -14.45904 -14.44804
 Alpha  occ. eigenvalues --  -14.44001 -10.43171 -10.42719 -10.39381 -10.39369
 Alpha  occ. eigenvalues --  -10.36201 -10.35501 -10.35060 -10.34847 -10.34422
 Alpha  occ. eigenvalues --  -10.34340 -10.34322 -10.34308 -10.33903 -10.32776
 Alpha  occ. eigenvalues --  -10.32481 -10.32405 -10.32344 -10.32150 -10.32085
 Alpha  occ. eigenvalues --  -10.32074 -10.31894 -10.31753 -10.31677 -10.31638
 Alpha  occ. eigenvalues --  -10.31605 -10.31346 -10.31342 -10.30871 -10.30455
 Alpha  occ. eigenvalues --  -10.30217 -10.30182 -10.30093 -10.29955 -10.29740
 Alpha  occ. eigenvalues --  -10.29725 -10.29679 -10.29429 -10.29381 -10.29339
 Alpha  occ. eigenvalues --  -10.29256 -10.29238 -10.29238 -10.29089 -10.28877
 Alpha  occ. eigenvalues --  -10.28867 -10.28818 -10.28787 -10.28768 -10.28531
 Alpha  occ. eigenvalues --  -10.28360 -10.28135 -10.28101 -10.28062 -10.27922
 Alpha  occ. eigenvalues --  -10.27840  -3.21210  -1.94789  -1.94330  -1.94177
 Alpha  occ. eigenvalues --   -1.20263  -1.18123  -1.12594  -1.11880  -1.11129
 Alpha  occ. eigenvalues --   -1.07814  -1.05777  -1.05067  -1.04482  -1.03636
 Alpha  occ. eigenvalues --   -0.94123  -0.92387  -0.91905  -0.91375  -0.90856
 Alpha  occ. eigenvalues --   -0.90455  -0.90039  -0.89861  -0.88880  -0.88481
 Alpha  occ. eigenvalues --   -0.87657  -0.87011  -0.85779  -0.85083  -0.84839
 Alpha  occ. eigenvalues --   -0.84183  -0.83717  -0.83208  -0.82489  -0.81995
 Alpha  occ. eigenvalues --   -0.81906  -0.79955  -0.79735  -0.78846  -0.77814
 Alpha  occ. eigenvalues --   -0.77756  -0.77356  -0.77052  -0.76498  -0.75803
 Alpha  occ. eigenvalues --   -0.75261  -0.74766  -0.73298  -0.72903  -0.70604
 Alpha  occ. eigenvalues --   -0.69985  -0.69788  -0.68855  -0.68733  -0.68033
 Alpha  occ. eigenvalues --   -0.67351  -0.67202  -0.66581  -0.66502  -0.66169
 Alpha  occ. eigenvalues --   -0.65920  -0.65290  -0.64643  -0.63680  -0.61988
 Alpha  occ. eigenvalues --   -0.61798  -0.61282  -0.60825  -0.60167  -0.59709
 Alpha  occ. eigenvalues --   -0.59223  -0.58427  -0.58137  -0.57632  -0.57172
 Alpha  occ. eigenvalues --   -0.56993  -0.56828  -0.55837  -0.55777  -0.55407
 Alpha  occ. eigenvalues --   -0.55359  -0.55226  -0.54940  -0.54861  -0.54768
 Alpha  occ. eigenvalues --   -0.54566  -0.54335  -0.54177  -0.53811  -0.53570
 Alpha  occ. eigenvalues --   -0.53483  -0.53211  -0.52891  -0.52647  -0.52516
 Alpha  occ. eigenvalues --   -0.52421  -0.52060  -0.51936  -0.51879  -0.51575
 Alpha  occ. eigenvalues --   -0.51461  -0.51368  -0.51117  -0.50890  -0.50746
 Alpha  occ. eigenvalues --   -0.50329  -0.50161  -0.50072  -0.49768  -0.49657
 Alpha  occ. eigenvalues --   -0.49454  -0.49172  -0.49040  -0.48493  -0.48418
 Alpha  occ. eigenvalues --   -0.48195  -0.48159  -0.47959  -0.47912  -0.47352
 Alpha  occ. eigenvalues --   -0.47237  -0.47081  -0.46961  -0.46675  -0.46655
 Alpha  occ. eigenvalues --   -0.46439  -0.46255  -0.46121  -0.45897  -0.45677
 Alpha  occ. eigenvalues --   -0.45292  -0.45018  -0.44930  -0.44867  -0.44616
 Alpha  occ. eigenvalues --   -0.44507  -0.44469  -0.44271  -0.44017  -0.43766
 Alpha  occ. eigenvalues --   -0.43549  -0.43509  -0.43343  -0.43303  -0.43043
 Alpha  occ. eigenvalues --   -0.42735  -0.42602  -0.42301  -0.42202  -0.42025
 Alpha  occ. eigenvalues --   -0.41673  -0.41096  -0.40954  -0.40907  -0.40584
 Alpha  occ. eigenvalues --   -0.40421  -0.40173  -0.39960  -0.39626  -0.39604
 Alpha  occ. eigenvalues --   -0.39280  -0.39182  -0.38816  -0.38547  -0.37963
 Alpha  occ. eigenvalues --   -0.37505  -0.37266  -0.36276  -0.35932  -0.35518
 Alpha  occ. eigenvalues --   -0.35464  -0.35290  -0.34700  -0.33708  -0.32736
 Alpha  occ. eigenvalues --   -0.32646  -0.32464  -0.32118  -0.31567  -0.25711
 Alpha  occ. eigenvalues --   -0.22925
 Alpha virt. eigenvalues --   -0.06522   0.00428   0.03056   0.04841   0.05652
 Alpha virt. eigenvalues --    0.06645   0.08223   0.08331   0.08749   0.09889
 Alpha virt. eigenvalues --    0.10467   0.12061   0.12332   0.12558   0.12764

 Mulliken charges:
               1
     1  Mg   0.958673
     2  C   -0.033002
     3  C   -0.074506
     4  C   -0.071073
     5  C   -0.081255
     6  N   -0.287777
     7  C    0.003988
     8  C   -0.088949
     9  C   -0.101163
    10  C    0.023362
    11  C   -0.004928
    12  C    0.054122
    13  C    0.034650
    14  C    0.174190
    15  O   -0.252218
    16  O   -0.358576
    17  N   -0.466084
    18  C    0.195056
    19  C   -0.209452
    20  C   -0.071830
    21  C    0.177214
    22  C    0.090947
    23  C    0.049682
    24  O   -0.248152
    25  C   -0.002019
    26  N   -0.438150
    27  C    0.063527
    28  C   -0.086983
    29  C   -0.061220
    30  C    0.097270
    31  C    0.006689
    32  C   -0.015428
    33  C   -0.059684
    34  N   -0.439197
    35  C    0.086295
    36  C   -0.214551
    37  C   -0.071913
    38  C    0.160916
    39  C    0.099612
    40  C    0.168634
    41  O   -0.189130
    42  C   -0.092720
    43  C    0.275307
    44  O   -0.284279
    45  O   -0.336857
    46  C    0.142408
    47  C    0.270327
    48  C   -0.152182
    49  C   -0.215016
    50  C    0.049168
    51  C   -0.003340
    52  C   -0.031579
    53  C    0.021256
    54  C   -0.189290
    55  C   -0.008101
    56  C    0.062808
    57  C   -0.086927
    58  C    0.038566
    59  C   -0.174369
    60  C    0.008401
    61  C   -0.019839
    62  C   -0.035472
    63  C    0.040710
    64  C   -0.207493
    65  C   -0.030442
    66  C    0.010941
    67  H    0.008105
    68  H    0.017639
    69  H   -0.012077
    70  H    0.060970
    71  H    0.037447
    72  H    0.047437
    73  H    0.013314
    74  H    0.038154
    75  H    0.036283
    76  H    0.030566
    77  H    0.035370
    78  H    0.067557
    79  H    0.025516
    80  H    0.066035
    81  H    0.054915
    82  H    0.058144
    83  H    0.052817
    84  H    0.062604
    85  H    0.044511
    86  H    0.041868
    87  H    0.051992
    88  H    0.043984
    89  H    0.038095
    90  H    0.038730
    91  H    0.023546
    92  H    0.038749
    93  H    0.041109
    94  H    0.040262
    95  H    0.063074
    96  H    0.019546
    97  H    0.069567
    98  H    0.078056
    99  H    0.059236
   100  H    0.063732
   101  H    0.048438
   102  H    0.054509
   103  H    0.061247
   104  H    0.022798
   105  H    0.021542
   106  H    0.046016
   107  H    0.048061
   108  H    0.004884
   109  H    0.014242
   110  H    0.027434
   111  H    0.021601
   112  H    0.012906
   113  H    0.012474
   114  H    0.026361
   115  H    0.021400
   116  H    0.032064
   117  H    0.013250
   118  H    0.017516
   119  H    0.025345
   120  H    0.021685
   121  H    0.018364
   122  H    0.019651
   123  H    0.018369
   124  H    0.021317
   125  H    0.020446
   126  H    0.025348
   127  H    0.025036
   128  H    0.005502
   129  H    0.027815
   130  H    0.018119
   131  H    0.018329
   132  H    0.020407
   133  H    0.010892
   134  H    0.019800
   135  H    0.003791
   136  H    0.035619
   137  H    0.025589
   138  H    0.029214
   139  H    0.030818
   140  H    0.025375
 Sum of Mulliken charges =  -0.00000

 Dipole moment (field-independent basis, Debye):
    X=             -4.8059    Y=              2.5127    Z=              3.6525  Tot=              6.5384
 Quadrupole moment (field-independent basis, Debye-Ang):
   XX=           -382.4541   YY=           -416.1221   ZZ=           -404.7460
   XY=             28.3769   XZ=             23.2987   YZ=             -7.4784

 Normal termination of Gaussian 16 at Thu Apr 28 15:33:41 2022.
