 Gaussian 16, Revision A.03,
 Gaussian 16:  ES64L-G16RevA.03 25-Dec-2016

 --------------------
 #p ZINDO=(nstates=5)
 --------------------

 -----------------------------
 step_1601_chromophore_3 ZINDO
 -----------------------------
 Symbolic Z-matrix:
 Charge =  0 Multiplicity = 1

                         Standard orientation:
 ---------------------------------------------------------------------
 Center     Atomic      Atomic             Coordinates (Angstroms)
 Number     Number       Type             X           Y           Z
 ---------------------------------------------------------------------
      1         12           0        5.382730    1.178359    0.145184
      2          6           0        4.630714   -2.294683   -0.085113
      3          6           0        1.864336    1.693238   -0.247899
      4          6           0        5.970977    4.494117   -0.092773
      5          6           0        8.692899    0.463676    0.249598
      6          7           0        3.350683   -0.267643   -0.174814
      7          6           0        3.419740   -1.638622   -0.161635
      8          6           0        1.981402   -2.125223    0.075561
      9          6           0        1.107165   -0.839521   -0.200343
     10          6           0        2.142326    0.320828   -0.124219
     11          6           0        0.394515   -0.847113   -1.641110
     12          6           0        1.692820   -2.678754    1.542963
     13          6           0        0.814708   -3.926911    1.655941
     14          6           0       -0.250693   -4.273583    0.695005
     15          8           0       -0.054627   -4.953076   -0.273886
     16          8           0       -1.467768   -3.697438    0.920177
     17          7           0        4.123476    2.824926   -0.100313
     18          6           0        2.741752    2.826054   -0.219235
     19          6           0        2.300959    4.162011   -0.477868
     20          6           0        3.422942    5.003916   -0.413109
     21          6           0        4.597171    4.102989   -0.188844
     22          6           0        0.809312    4.487676   -0.773848
     23          6           0        3.343302    6.557226   -0.554403
     24          8           0        4.400200    7.183187   -0.542864
     25          6           0        2.123334    7.420281   -0.643510
     26          7           0        7.104832    2.292575    0.017869
     27          6           0        7.107309    3.674226    0.043356
     28          6           0        8.514429    4.225500    0.336780
     29          6           0        9.411365    2.974439    0.395066
     30          6           0        8.369364    1.788393    0.301887
     31          6           0        9.018474    5.337306   -0.634099
     32          6           0       10.302832    2.858423    1.648914
     33          6           0       11.799876    2.569057    1.375571
     34          7           0        6.479042   -0.549578    0.058379
     35          6           0        7.845859   -0.689886    0.097350
     36          6           0        8.231853   -2.125541   -0.042744
     37          6           0        6.994188   -2.729361   -0.091717
     38          6           0        5.934598   -1.752695   -0.119524
     39          6           0        9.620386   -2.760877    0.101315
     40          6           0        6.363661   -4.097944   -0.173524
     41          8           0        6.922465   -5.161734   -0.343284
     42          6           0        4.814896   -3.789328    0.039493
     43          6           0        4.117063   -4.619993   -1.066984
     44          8           0        4.059904   -4.324736   -2.275106
     45          8           0        3.503048   -5.684894   -0.545131
     46          6           0        2.812580   -6.506061   -1.593294
     47          6           0       -2.528259   -4.278848    0.104275
     48          6           0       -3.854571   -3.779921    0.565188
     49          6           0       -5.092549   -4.149695    0.170557
     50          6           0       -5.459158   -5.100853   -0.908038
     51          6           0       -6.336264   -3.690543    0.961296
     52          6           0       -7.090626   -2.434193    0.379803
     53          6           0       -7.484779   -1.347318    1.447580
     54          6           0       -8.960631   -1.305134    1.757154
     55          6           0       -9.028797   -0.912612    3.277057
     56          6           0       -9.772532   -0.314403    0.934274
     57          6           0      -10.779879   -1.144635    0.089785
     58          6           0      -11.230381   -0.315712   -1.179315
     59          6           0      -12.760261   -0.064686   -1.166200
     60          6           0      -13.511486   -0.720232   -2.320043
     61          6           0      -12.998401    1.447879   -1.205574
     62          6           0      -12.652327    2.277456    0.107837
     63          6           0      -13.712530    3.289496    0.525780
     64          6           0      -13.537957    4.681935   -0.038215
     65          6           0      -13.276637    5.579481    1.223196
     66          6           0      -14.688584    5.137955   -0.841943
     67          1           0        0.780440    1.810615   -0.313965
     68          1           0        6.243626    5.543723    0.029311
     69          1           0        9.749285    0.188088    0.266455
     70          1           0        1.767251   -2.903191   -0.656993
     71          1           0        0.291752   -0.810417    0.522799
     72          1           0        0.804646   -1.541303   -2.375324
     73          1           0        0.609864    0.089947   -2.154447
     74          1           0       -0.689837   -0.862515   -1.755835
     75          1           0        1.168159   -1.938984    2.147254
     76          1           0        2.670602   -2.781678    2.013637
     77          1           0        0.169889   -3.806892    2.527006
     78          1           0        1.375582   -4.835120    1.878144
     79          1           0        0.716017    5.380615   -1.392076
     80          1           0        0.350132    4.632253    0.204403
     81          1           0        0.445293    3.666634   -1.390478
     82          1           0        1.777161    7.118673   -1.631651
     83          1           0        2.339513    8.488093   -0.677838
     84          1           0        1.344760    7.355446    0.116569
     85          1           0        8.385418    4.714035    1.302703
     86          1           0       10.006378    2.849938   -0.509603
     87          1           0        8.610699    6.293100   -0.303735
     88          1           0        8.678450    5.096482   -1.640771
     89          1           0       10.102511    5.419254   -0.707644
     90          1           0        9.917896    2.187859    2.416954
     91          1           0       10.307823    3.857286    2.085800
     92          1           0       12.251063    3.557651    1.467723
     93          1           0       11.975565    2.144999    0.386889
     94          1           0       12.183508    1.914518    2.157433
     95          1           0        9.632576   -3.354772    1.014959
     96          1           0       10.281868   -1.903476    0.229979
     97          1           0        9.847076   -3.330640   -0.798927
     98          1           0        4.552363   -3.997238    1.076420
     99          1           0        3.479684   -6.859093   -2.379025
    100          1           0        2.015198   -5.894768   -2.017331
    101          1           0        2.303012   -7.405139   -1.245213
    102          1           0       -2.656350   -5.352750    0.243261
    103          1           0       -2.486735   -4.104737   -0.971154
    104          1           0       -3.817327   -3.076640    1.396508
    105          1           0       -4.589301   -5.516712   -1.417277
    106          1           0       -6.033653   -4.489872   -1.604062
    107          1           0       -6.004790   -5.983081   -0.572345
    108          1           0       -6.136107   -3.492763    2.014458
    109          1           0       -6.986135   -4.537393    1.181591
    110          1           0       -7.946076   -2.810941   -0.180796
    111          1           0       -6.377679   -1.987703   -0.312759
    112          1           0       -7.097345   -0.418471    1.029050
    113          1           0       -6.819180   -1.518732    2.294542
    114          1           0       -9.351286   -2.323308    1.736891
    115          1           0       -8.065521   -0.688857    3.735742
    116          1           0       -9.521491   -1.714138    3.827355
    117          1           0       -9.568977    0.024136    3.414347
    118          1           0       -9.097677    0.257740    0.297806
    119          1           0      -10.294897    0.409727    1.559686
    120          1           0      -11.601414   -1.501123    0.711282
    121          1           0      -10.378426   -2.083196   -0.291803
    122          1           0      -10.813972   -0.857464   -2.028873
    123          1           0      -10.730661    0.652505   -1.152035
    124          1           0      -13.179467   -0.562169   -0.292399
    125          1           0      -14.006595   -0.066533   -3.038043
    126          1           0      -14.342107   -1.230921   -1.833718
    127          1           0      -12.873410   -1.347961   -2.942041
    128          1           0      -14.082580    1.518674   -1.287356
    129          1           0      -12.571322    1.965199   -2.063932
    130          1           0      -11.715537    2.822066   -0.012370
    131          1           0      -12.468762    1.501927    0.850922
    132          1           0      -13.614206    3.292525    1.611316
    133          1           0      -14.742430    3.051013    0.259255
    134          1           0      -12.634136    4.819758   -0.630972
    135          1           0      -13.201888    6.642994    0.995956
    136          1           0      -12.313398    5.387416    1.696576
    137          1           0      -14.161012    5.608543    1.860721
    138          1           0      -15.604190    5.332111   -0.283680
    139          1           0      -14.856057    4.381053   -1.608192
    140          1           0      -14.418752    6.069282   -1.341113
 ---------------------------------------------------------------------

 SCF Done:  E(RZINDO/S) =  -474.177639263     A.U. after   20 cycles

 Excitation energies and oscillator strengths:

 Excited State   1:      Singlet-A      1.2998 eV  953.90 nm  f=0.5697  <S**2>=0.000
     175 ->178         0.19795
     176 ->177         0.66242
 This state for optimization and/or second-order correction.
 Total Energy, E(CIS/TDA) =  -474.129873832
 Copying the excited state density for this state as the 1-particle RhoCI density.

 Excited State   2:      Singlet-A      1.9529 eV  634.89 nm  f=0.0355  <S**2>=0.000
     175 ->177         0.54350
     176 ->178        -0.42838

 Excited State   3:      Singlet-A      2.9370 eV  422.14 nm  f=0.0018  <S**2>=0.000
     168 ->177         0.26391
     168 ->178        -0.10074
     168 ->179        -0.39722
     168 ->180        -0.33739
     168 ->185        -0.24228

 Excited State   4:      Singlet-A      3.0353 eV  408.47 nm  f=0.9529  <S**2>=0.000
     175 ->177         0.34205
     176 ->178         0.46397
     176 ->179        -0.25789
     176 ->180         0.11212

 Excited State   5:      Singlet-A      3.0770 eV  402.94 nm  f=0.0745  <S**2>=0.000
     169 ->177         0.25837
     169 ->178        -0.14340
     169 ->179         0.32048
     169 ->180        -0.31242
     169 ->185         0.17085
     169 ->187        -0.10814
     176 ->178        -0.12379
     176 ->179         0.13075

 The electronic state is 1-A.
 Alpha  occ. eigenvalues --   -1.82636  -1.79286  -1.78081  -1.75481  -1.71593
 Alpha  occ. eigenvalues --   -1.69717  -1.66146  -1.62187  -1.59157  -1.57400
 Alpha  occ. eigenvalues --   -1.56628  -1.52877  -1.48353  -1.47867  -1.46982
 Alpha  occ. eigenvalues --   -1.42998  -1.41539  -1.39616  -1.38434  -1.37593
 Alpha  occ. eigenvalues --   -1.34463  -1.33054  -1.32297  -1.31097  -1.29615
 Alpha  occ. eigenvalues --   -1.27944  -1.24325  -1.22136  -1.21164  -1.17578
 Alpha  occ. eigenvalues --   -1.17045  -1.16766  -1.14322  -1.13488  -1.12630
 Alpha  occ. eigenvalues --   -1.12024  -1.10344  -1.09975  -1.04742  -1.03478
 Alpha  occ. eigenvalues --   -1.02090  -1.01728  -0.98528  -0.97301  -0.96297
 Alpha  occ. eigenvalues --   -0.95671  -0.94987  -0.94137  -0.92798  -0.92431
 Alpha  occ. eigenvalues --   -0.91569  -0.90448  -0.90184  -0.88984  -0.88210
 Alpha  occ. eigenvalues --   -0.86282  -0.86174  -0.84301  -0.81864  -0.80302
 Alpha  occ. eigenvalues --   -0.79954  -0.78365  -0.76408  -0.76290  -0.75964
 Alpha  occ. eigenvalues --   -0.75512  -0.75159  -0.74065  -0.73750  -0.72799
 Alpha  occ. eigenvalues --   -0.72067  -0.71705  -0.71094  -0.70853  -0.70482
 Alpha  occ. eigenvalues --   -0.69963  -0.69144  -0.69015  -0.68502  -0.67795
 Alpha  occ. eigenvalues --   -0.67272  -0.67019  -0.66665  -0.66476  -0.66101
 Alpha  occ. eigenvalues --   -0.65543  -0.65373  -0.64781  -0.64186  -0.63957
 Alpha  occ. eigenvalues --   -0.63064  -0.62945  -0.62885  -0.62558  -0.62185
 Alpha  occ. eigenvalues --   -0.61741  -0.61553  -0.61332  -0.60812  -0.60443
 Alpha  occ. eigenvalues --   -0.60146  -0.59485  -0.59142  -0.58994  -0.58319
 Alpha  occ. eigenvalues --   -0.57591  -0.57351  -0.57228  -0.56943  -0.56523
 Alpha  occ. eigenvalues --   -0.56182  -0.55485  -0.54973  -0.54675  -0.54051
 Alpha  occ. eigenvalues --   -0.53853  -0.53582  -0.52988  -0.52747  -0.52492
 Alpha  occ. eigenvalues --   -0.52117  -0.52007  -0.51750  -0.51340  -0.51278
 Alpha  occ. eigenvalues --   -0.51068  -0.50755  -0.50616  -0.50347  -0.50256
 Alpha  occ. eigenvalues --   -0.49741  -0.49534  -0.49426  -0.49337  -0.49107
 Alpha  occ. eigenvalues --   -0.48803  -0.48503  -0.48083  -0.48065  -0.47938
 Alpha  occ. eigenvalues --   -0.47755  -0.47004  -0.46626  -0.46397  -0.46183
 Alpha  occ. eigenvalues --   -0.46085  -0.45882  -0.45745  -0.45276  -0.45234
 Alpha  occ. eigenvalues --   -0.45134  -0.45011  -0.44499  -0.44383  -0.44015
 Alpha  occ. eigenvalues --   -0.43870  -0.43142  -0.43006  -0.42457  -0.42013
 Alpha  occ. eigenvalues --   -0.41313  -0.41303  -0.40823  -0.38738  -0.38351
 Alpha  occ. eigenvalues --   -0.37655  -0.36488  -0.35280  -0.34677  -0.34275
 Alpha  occ. eigenvalues --   -0.33857  -0.32725  -0.32670  -0.31703  -0.26489
 Alpha  occ. eigenvalues --   -0.21743
 Alpha virt. eigenvalues --   -0.08131  -0.01946  -0.00001   0.01522   0.02063
 Alpha virt. eigenvalues --    0.02345   0.03092   0.03313   0.04847   0.04887
 Alpha virt. eigenvalues --    0.06230   0.06667   0.06876   0.07615   0.08176

 Mulliken charges:
               1
     1  Mg   0.429693
     2  C   -0.005407
     3  C   -0.063623
     4  C   -0.085225
     5  C   -0.068999
     6  N   -0.290263
     7  C    0.091488
     8  C    0.006004
     9  C    0.008188
    10  C    0.133904
    11  C   -0.065808
    12  C   -0.014816
    13  C    0.007283
    14  C    0.479339
    15  O   -0.516775
    16  O   -0.266327
    17  N   -0.317065
    18  C    0.106895
    19  C    0.013047
    20  C   -0.047629
    21  C    0.165627
    22  C   -0.049765
    23  C    0.325573
    24  O   -0.528112
    25  C   -0.020784
    26  N   -0.291028
    27  C    0.153477
    28  C    0.010229
    29  C    0.006638
    30  C    0.100222
    31  C   -0.050876
    32  C   -0.032381
    33  C   -0.060367
    34  N   -0.290460
    35  C    0.082839
    36  C    0.004731
    37  C   -0.051130
    38  C    0.085511
    39  C   -0.035428
    40  C    0.326220
    41  O   -0.496864
    42  C    0.054348
    43  C    0.487688
    44  O   -0.534548
    45  O   -0.249893
    46  C    0.074708
    47  C    0.111015
    48  C   -0.086880
    49  C   -0.015049
    50  C   -0.039416
    51  C   -0.035250
    52  C   -0.041001
    53  C   -0.029850
    54  C   -0.005249
    55  C   -0.069560
    56  C   -0.025248
    57  C   -0.045129
    58  C   -0.043734
    59  C   -0.004291
    60  C   -0.061464
    61  C   -0.036410
    62  C   -0.041872
    63  C   -0.026742
    64  C   -0.002562
    65  C   -0.065649
    66  C   -0.045859
    67  H    0.029830
    68  H    0.045146
    69  H    0.020169
    70  H    0.042677
    71  H    0.026932
    72  H    0.030380
    73  H    0.008549
    74  H    0.026307
    75  H    0.022870
    76  H    0.025520
    77  H    0.018980
    78  H    0.042808
    79  H    0.025842
    80  H    0.040144
    81  H    0.033797
    82  H    0.038834
    83  H    0.037218
    84  H    0.036633
    85  H    0.033454
    86  H    0.036702
    87  H    0.025450
    88  H    0.023404
    89  H    0.020512
    90  H    0.027097
    91  H    0.011010
    92  H    0.019780
    93  H    0.026194
    94  H    0.020859
    95  H    0.037676
    96  H    0.020022
    97  H    0.044491
    98  H    0.059717
    99  H    0.048846
   100  H    0.046168
   101  H    0.030510
   102  H    0.051030
   103  H    0.058054
   104  H    0.026259
   105  H    0.013733
   106  H    0.031351
   107  H    0.030783
   108  H    0.011984
   109  H    0.017380
   110  H    0.022120
   111  H    0.016446
   112  H    0.013753
   113  H    0.021243
   114  H    0.026876
   115  H    0.017842
   116  H    0.016699
   117  H    0.013045
   118  H    0.021180
   119  H    0.026560
   120  H    0.022071
   121  H    0.015496
   122  H    0.021525
   123  H    0.017984
   124  H    0.028097
   125  H    0.015376
   126  H    0.015432
   127  H    0.020678
   128  H    0.005587
   129  H    0.026456
   130  H    0.018017
   131  H    0.015267
   132  H    0.014431
   133  H    0.022630
   134  H    0.020459
   135  H   -0.002114
   136  H    0.023032
   137  H    0.021918
   138  H    0.022898
   139  H    0.014194
   140  H    0.009820
 Sum of Mulliken charges =  -0.00000

 Dipole moment (field-independent basis, Debye):
    X=             -7.3421    Y=              3.8140    Z=              6.2347  Tot=             10.3598
 N-N= 4.245131840930D+03 E-N= 0.000000000000D+00  KE=-9.164744032971D+03
 Leave Link  601 at Thu Apr 28 15:46:03 2022, MaxMem=  6710886400 cpu:               0.8 elap:               0.0
 (Enter /sw/apps/gaussian-16.0/g16/l9999.exe)
 1\1\GINC-BP1-COMPUTE165\SP\RZINDO CIS\STO-3G\C55H74Mg1N4O6\OF15641\28-
 Apr-2022\0\\#p ZINDO=(nstates=5)\\step_1601_chromophore_3 ZINDO\\0,1\M
 g,0,1.657,8.184,25.97\C,0,2.152,10.269,28.814\C,0,2.095,5.448,28.233\C
 ,0,1.644,6.09,23.322\C,0,1.526,10.92,23.976\N,0,2.127,7.902,28.424\C,0
 ,2.21,8.972,29.28\C,0,2.042,8.389,30.692\C,0,2.246,6.838,30.477\C,0,2.
 063,6.662,28.941\C,0,3.7,6.316,30.921\C,0,0.625,8.666,31.369\C,0,0.622
 ,9.019,32.858\C,0,1.63,8.534,33.821\O,0,2.64,9.135,34.061\O,0,1.393,7.

 Normal termination of Gaussian 16 at Thu Apr 28 15:46:03 2022.
