 Gaussian 16, Revision A.03,
 Gaussian 16:  ES64L-G16RevA.03 25-Dec-2016

 ------------------------------
 #p blyp/Def2SVP td=(nstates=5)
 ------------------------------

 ---------------------------------------------------
 step_1801_chromophore_21 TDDFT with blyp functional
 ---------------------------------------------------
 Symbolic Z-matrix:
 Charge =  0 Multiplicity = 1

                         Standard orientation:
 ---------------------------------------------------------------------
 Center     Atomic      Atomic             Coordinates (Angstroms)
 Number     Number       Type             X           Y           Z
 ---------------------------------------------------------------------
      1         12           0       -5.101284    1.158913   -0.188801
      2          6           0       -4.752719   -2.182949    0.126083
      3          6           0       -1.665740    1.514827   -0.189848
      4          6           0       -5.595700    4.490028   -0.068103
      5          6           0       -8.560777    0.867741    0.261440
      6          7           0       -3.383140   -0.208113   -0.143298
      7          6           0       -3.485101   -1.561581   -0.096661
      8          6           0       -2.189674   -2.248105   -0.319755
      9          6           0       -1.144725   -1.078739   -0.169565
     10          6           0       -2.053690    0.167941   -0.195386
     11          6           0       -0.354563   -1.145307    1.202983
     12          6           0       -2.111093   -2.909306   -1.707408
     13          6           0       -1.407665   -4.254914   -1.924522
     14          6           0       -0.519908   -4.561135   -0.744885
     15          8           0       -0.815073   -5.307598    0.167641
     16          8           0        0.657511   -3.892444   -0.838093
     17          7           0       -3.834272    2.757810   -0.231582
     18          6           0       -2.460069    2.691175   -0.212075
     19          6           0       -1.954397    4.026344   -0.021262
     20          6           0       -3.068056    4.940758   -0.044508
     21          6           0       -4.256037    4.089781   -0.126289
     22          6           0       -0.566129    4.325403    0.189095
     23          6           0       -3.016849    6.344813    0.108700
     24          8           0       -4.080730    6.979803    0.273347
     25          6           0       -1.707018    7.166333    0.074403
     26          7           0       -6.841960    2.427223   -0.136834
     27          6           0       -6.786137    3.753902   -0.074404
     28          6           0       -8.171228    4.505959   -0.247646
     29          6           0       -9.107386    3.302370   -0.115463
     30          6           0       -8.091702    2.112341    0.073031
     31          6           0       -8.470904    5.560637    0.918639
     32          6           0      -10.102968    3.186812   -1.290121
     33          6           0      -11.651806    3.262036   -1.020908
     34          7           0       -6.450485   -0.397671   -0.010760
     35          6           0       -7.795095   -0.348569    0.173815
     36          6           0       -8.180935   -1.713198    0.468634
     37          6           0       -7.036119   -2.426879    0.453289
     38          6           0       -5.997016   -1.601987    0.142444
     39          6           0       -9.490613   -2.213145    0.849861
     40          6           0       -6.536828   -3.752681    0.625084
     41          8           0       -7.129114   -4.723206    1.075345
     42          6           0       -5.054325   -3.664657    0.317451
     43          6           0       -4.355743   -4.294598    1.361912
     44          8           0       -3.797793   -3.840888    2.334946
     45          8           0       -4.251723   -5.645157    1.004097
     46          6           0       -3.330265   -6.428299    1.825208
     47          6           0        1.375310   -4.008829    0.433644
     48          6           0        2.677902   -3.247464    0.383729
     49          6           0        3.908260   -3.725419   -0.085524
     50          6           0        4.176465   -5.036416   -0.859084
     51          6           0        5.164872   -2.856923    0.128880
     52          6           0        5.456248   -1.627974   -0.694632
     53          6           0        6.600320   -1.831687   -1.647131
     54          6           0        7.768825   -0.791087   -1.434153
     55          6           0        8.108150    0.002515   -2.717668
     56          6           0        9.045540   -1.515723   -1.032342
     57          6           0       10.118555   -0.628613   -0.331450
     58          6           0       11.429372   -0.361449   -1.261654
     59          6           0       12.266061    0.991972   -0.855704
     60          6           0       12.693542    1.666339   -2.175618
     61          6           0       13.548603    0.655442   -0.041295
     62          6           0       14.407152    2.005864    0.188013
     63          6           0       14.998482    1.935919    1.611483
     64          6           0       16.282514    2.824421    1.704751
     65          6           0       17.545840    2.027749    2.096142
     66          6           0       16.009313    3.961444    2.771019
     67          1           0       -0.579695    1.568366   -0.096475
     68          1           0       -5.792103    5.558940   -0.179396
     69          1           0       -9.632486    0.778037    0.448295
     70          1           0       -2.112036   -3.010314    0.454136
     71          1           0       -0.503336   -0.980027   -1.045038
     72          1           0        0.719123   -1.136900    1.017158
     73          1           0       -0.702670   -1.976891    1.816162
     74          1           0       -0.567067   -0.260121    1.803006
     75          1           0       -1.650608   -2.303476   -2.488474
     76          1           0       -3.132433   -3.056575   -2.059829
     77          1           0       -0.967477   -4.209715   -2.920146
     78          1           0       -2.126573   -5.067922   -1.829925
     79          1           0       -0.403634    4.699412    1.199128
     80          1           0       -0.288291    5.122052   -0.501871
     81          1           0        0.203937    3.570189    0.033142
     82          1           0       -1.003205    6.825139    0.834036
     83          1           0       -2.004355    8.213952    0.129546
     84          1           0       -1.409653    7.006237   -0.961344
     85          1           0       -8.272655    4.965341   -1.231812
     86          1           0       -9.779692    3.303672    0.742303
     87          1           0       -7.739700    5.495667    1.724652
     88          1           0       -9.480811    5.498091    1.322671
     89          1           0       -8.468697    6.532536    0.423587
     90          1           0       -9.981192    2.226109   -1.792086
     91          1           0       -9.979324    3.926710   -2.081094
     92          1           0      -11.927311    2.810219   -0.067908
     93          1           0      -12.126345    2.578514   -1.724603
     94          1           0      -12.023335    4.269323   -1.205787
     95          1           0       -9.469016   -2.994370    1.608999
     96          1           0      -10.141264   -2.525618    0.033360
     97          1           0       -9.946012   -1.291654    1.214405
     98          1           0       -4.896322   -4.237124   -0.595618
     99          1           0       -3.071818   -5.950702    2.769814
    100          1           0       -2.442421   -6.705587    1.256264
    101          1           0       -3.800261   -7.374955    2.089792
    102          1           0        1.618301   -5.037060    0.702292
    103          1           0        0.806860   -3.537590    1.235774
    104          1           0        2.644359   -2.217136    0.734081
    105          1           0        4.726584   -5.701357   -0.193273
    106          1           0        4.845774   -4.821712   -1.693238
    107          1           0        3.304746   -5.494936   -1.326213
    108          1           0        5.977093   -3.577516    0.028456
    109          1           0        5.284994   -2.622163    1.185863
    110          1           0        5.637706   -0.816373    0.009559
    111          1           0        4.589794   -1.285997   -1.260961
    112          1           0        6.228455   -1.571220   -2.638578
    113          1           0        6.993817   -2.840066   -1.773122
    114          1           0        7.547483   -0.070925   -0.646141
    115          1           0        8.575694    0.902460   -2.317740
    116          1           0        7.201407    0.467354   -3.104544
    117          1           0        8.772413   -0.406485   -3.478659
    118          1           0        9.449027   -1.993706   -1.925083
    119          1           0        8.901636   -2.355569   -0.352386
    120          1           0       10.536874   -1.234512    0.472613
    121          1           0        9.767744    0.339099    0.028195
    122          1           0       11.141095   -0.450624   -2.309195
    123          1           0       12.041193   -1.241781   -1.067061
    124          1           0       11.609654    1.634924   -0.270616
    125          1           0       12.525579    2.740497   -2.098314
    126          1           0       12.033096    1.448298   -3.015088
    127          1           0       13.746859    1.505954   -2.403110
    128          1           0       14.089161    0.009717   -0.733669
    129          1           0       13.340022    0.189837    0.921307
    130          1           0       13.691587    2.825288    0.247216
    131          1           0       15.184151    2.157151   -0.561086
    132          1           0       15.193881    0.912798    1.931101
    133          1           0       14.197825    2.357627    2.220655
    134          1           0       16.416816    3.222545    0.699314
    135          1           0       18.485018    2.370935    1.660733
    136          1           0       17.449741    0.976867    1.823760
    137          1           0       17.760116    1.958566    3.162428
    138          1           0       16.902322    3.970006    3.397530
    139          1           0       15.120690    3.787428    3.377226
    140          1           0       15.964884    4.927637    2.267565
 ---------------------------------------------------------------------

 SCF Done:  E(RB-LYP) =  -3007.35109184     A.U. after   21 cycles

 Excitation energies and oscillator strengths:

 Excited State   1:      Singlet-A      1.6392 eV  756.36 nm  f=0.0012  <S**2>=0.000
     244 -> 247        0.53376
     245 -> 247        0.46147
 This state for optimization and/or second-order correction.
 Total Energy, E(TD-HF/TD-DFT) =  -3007.29085179
 Copying the excited state density for this state as the 1-particle RhoCI density.

 Excited State   2:      Singlet-A      1.8506 eV  669.96 nm  f=0.3187  <S**2>=0.000
     244 -> 248       -0.10647
     245 -> 248        0.15232
     246 -> 247        0.68801
     246 <- 247       -0.14816

 Excited State   3:      Singlet-A      1.9856 eV  624.41 nm  f=0.0065  <S**2>=0.000
     243 -> 247        0.68790
     245 -> 247        0.10610

 Excited State   4:      Singlet-A      2.0868 eV  594.13 nm  f=0.0781  <S**2>=0.000
     243 -> 247       -0.14887
     244 -> 247       -0.41557
     245 -> 247        0.47654
     246 -> 248       -0.24726

 Excited State   5:      Singlet-A      2.3992 eV  516.77 nm  f=0.0001  <S**2>=0.000
     241 -> 247        0.69979
     242 -> 247        0.10074

 The electronic state is 1-A.
 Alpha  occ. eigenvalues --  -46.26615 -18.83031 -18.79831 -18.77711 -18.76241
 Alpha  occ. eigenvalues --  -18.75490 -18.74084 -14.03435 -14.02963 -14.01198
 Alpha  occ. eigenvalues --  -14.00387 -10.04434 -10.02609  -9.99067  -9.98470
 Alpha  occ. eigenvalues --   -9.97554  -9.96810  -9.96535  -9.96010  -9.95821
 Alpha  occ. eigenvalues --   -9.95704  -9.95520  -9.95498  -9.94817  -9.94724
 Alpha  occ. eigenvalues --   -9.94423  -9.94279  -9.93912  -9.93832  -9.93709
 Alpha  occ. eigenvalues --   -9.93531  -9.93528  -9.93333  -9.93222  -9.93218
 Alpha  occ. eigenvalues --   -9.93214  -9.93117  -9.92808  -9.92612  -9.92440
 Alpha  occ. eigenvalues --   -9.92438  -9.92335  -9.92330  -9.92286  -9.92196
 Alpha  occ. eigenvalues --   -9.92149  -9.92002  -9.91971  -9.91942  -9.91924
 Alpha  occ. eigenvalues --   -9.91905  -9.91768  -9.91567  -9.91535  -9.91454
 Alpha  occ. eigenvalues --   -9.91393  -9.91292  -9.91249  -9.91226  -9.91156
 Alpha  occ. eigenvalues --   -9.91130  -9.90792  -9.90791  -9.90735  -9.90650
 Alpha  occ. eigenvalues --   -9.89217  -2.91337  -1.71782  -1.71230  -1.71028
 Alpha  occ. eigenvalues --   -0.99461  -0.96416  -0.91363  -0.91109  -0.89425
 Alpha  occ. eigenvalues --   -0.88714  -0.88533  -0.87829  -0.86100  -0.84385
 Alpha  occ. eigenvalues --   -0.76862  -0.73899  -0.73639  -0.72332  -0.72283
 Alpha  occ. eigenvalues --   -0.71941  -0.71883  -0.71265  -0.70996  -0.70492
 Alpha  occ. eigenvalues --   -0.70253  -0.69710  -0.68474  -0.67884  -0.66989
 Alpha  occ. eigenvalues --   -0.66188  -0.65923  -0.65166  -0.65101  -0.64218
 Alpha  occ. eigenvalues --   -0.64022  -0.63052  -0.62798  -0.61310  -0.60812
 Alpha  occ. eigenvalues --   -0.60150  -0.59859  -0.59718  -0.59246  -0.58612
 Alpha  occ. eigenvalues --   -0.58197  -0.57793  -0.56831  -0.55729  -0.54587
 Alpha  occ. eigenvalues --   -0.54466  -0.53836  -0.53543  -0.52425  -0.52130
 Alpha  occ. eigenvalues --   -0.51637  -0.51134  -0.50970  -0.50498  -0.50116
 Alpha  occ. eigenvalues --   -0.49959  -0.49683  -0.48782  -0.47378  -0.46921
 Alpha  occ. eigenvalues --   -0.46624  -0.46355  -0.46111  -0.45697  -0.45115
 Alpha  occ. eigenvalues --   -0.44588  -0.44065  -0.43742  -0.43391  -0.42720
 Alpha  occ. eigenvalues --   -0.42099  -0.41781  -0.41467  -0.41429  -0.41028
 Alpha  occ. eigenvalues --   -0.40978  -0.40383  -0.40227  -0.40156  -0.40047
 Alpha  occ. eigenvalues --   -0.39969  -0.39742  -0.39534  -0.39165  -0.39031
 Alpha  occ. eigenvalues --   -0.38947  -0.38712  -0.38661  -0.38392  -0.38242
 Alpha  occ. eigenvalues --   -0.37893  -0.37755  -0.37486  -0.37388  -0.37141
 Alpha  occ. eigenvalues --   -0.37044  -0.36892  -0.36642  -0.36427  -0.36324
 Alpha  occ. eigenvalues --   -0.35950  -0.35887  -0.35834  -0.35583  -0.35401
 Alpha  occ. eigenvalues --   -0.35179  -0.35023  -0.34921  -0.34815  -0.34661
 Alpha  occ. eigenvalues --   -0.34630  -0.34451  -0.34191  -0.33950  -0.33912
 Alpha  occ. eigenvalues --   -0.33801  -0.33680  -0.33666  -0.33556  -0.33284
 Alpha  occ. eigenvalues --   -0.33098  -0.32790  -0.32592  -0.32511  -0.32135
 Alpha  occ. eigenvalues --   -0.32100  -0.31813  -0.31792  -0.31533  -0.31392
 Alpha  occ. eigenvalues --   -0.31130  -0.31019  -0.30849  -0.30805  -0.30712
 Alpha  occ. eigenvalues --   -0.30579  -0.30366  -0.29965  -0.29712  -0.29611
 Alpha  occ. eigenvalues --   -0.29575  -0.29506  -0.29350  -0.29231  -0.28958
 Alpha  occ. eigenvalues --   -0.28623  -0.28316  -0.28302  -0.28265  -0.28197
 Alpha  occ. eigenvalues --   -0.27734  -0.27595  -0.27560  -0.27103  -0.26565
 Alpha  occ. eigenvalues --   -0.26539  -0.26241  -0.26115  -0.25726  -0.25418
 Alpha  occ. eigenvalues --   -0.25031  -0.24799  -0.24009  -0.23320  -0.23239
 Alpha  occ. eigenvalues --   -0.22973  -0.22853  -0.22103  -0.21664  -0.20883
 Alpha  occ. eigenvalues --   -0.20302  -0.20215  -0.18689  -0.17523  -0.17266
 Alpha  occ. eigenvalues --   -0.15876
 Alpha virt. eigenvalues --   -0.11485  -0.06716  -0.05982  -0.04541  -0.04166
 Alpha virt. eigenvalues --   -0.03216  -0.02251  -0.01613  -0.00563   0.00454
 Alpha virt. eigenvalues --    0.01176   0.01470   0.02545   0.02913   0.02972

 Mulliken charges:
               1
     1  Mg   0.695412
     2  C    0.021380
     3  C   -0.067064
     4  C   -0.048202
     5  C   -0.105136
     6  N   -0.220964
     7  C   -0.081279
     8  C    0.020020
     9  C    0.032290
    10  C   -0.037529
    11  C    0.117051
    12  C    0.062896
    13  C    0.222983
    14  C    0.032485
    15  O   -0.184526
    16  O   -0.260048
    17  N   -0.319928
    18  C    0.192204
    19  C   -0.142621
    20  C    0.140222
    21  C    0.120407
    22  C    0.175663
    23  C   -0.174363
    24  O   -0.201965
    25  C    0.148409
    26  N   -0.152232
    27  C    0.007475
    28  C    0.003292
    29  C    0.071931
    30  C    0.036357
    31  C    0.107822
    32  C    0.054463
    33  C    0.046435
    34  N   -0.218086
    35  C    0.085928
    36  C   -0.193294
    37  C    0.146818
    38  C    0.071208
    39  C    0.174793
    40  C   -0.114402
    41  O   -0.120760
    42  C    0.099940
    43  C    0.106692
    44  O   -0.167534
    45  O   -0.296488
    46  C    0.203950
    47  C    0.320158
    48  C   -0.123514
    49  C   -0.146506
    50  C    0.138757
    51  C    0.105095
    52  C    0.126680
    53  C    0.142416
    54  C   -0.085573
    55  C    0.112994
    56  C    0.090901
    57  C    0.054929
    58  C    0.067029
    59  C   -0.090092
    60  C    0.125463
    61  C    0.091366
    62  C    0.037145
    63  C    0.088355
    64  C   -0.079420
    65  C    0.093386
    66  C    0.106533
    67  H   -0.076736
    68  H   -0.039737
    69  H   -0.064449
    70  H    0.016019
    71  H   -0.019220
    72  H    0.000996
    73  H    0.027290
    74  H   -0.012619
    75  H   -0.020798
    76  H   -0.019401
    77  H   -0.005539
    78  H   -0.011881
    79  H    0.007184
    80  H   -0.005974
    81  H   -0.021151
    82  H    0.013032
    83  H   -0.013671
    84  H    0.004285
    85  H   -0.003757
    86  H   -0.034890
    87  H    0.011748
    88  H   -0.009374
    89  H   -0.006402
    90  H   -0.023803
    91  H   -0.027041
    92  H   -0.009337
    93  H   -0.016202
    94  H    0.005561
    95  H    0.013801
    96  H   -0.002218
    97  H   -0.025961
    98  H    0.010212
    99  H    0.014602
   100  H    0.020354
   101  H   -0.008473
   102  H    0.001793
   103  H   -0.013848
   104  H   -0.030006
   105  H    0.009507
   106  H   -0.002538
   107  H    0.000892
   108  H   -0.050004
   109  H   -0.027911
   110  H   -0.031996
   111  H   -0.031332
   112  H   -0.056919
   113  H   -0.026945
   114  H   -0.036141
   115  H   -0.032246
   116  H   -0.028683
   117  H    0.004032
   118  H   -0.038199
   119  H   -0.045493
   120  H   -0.029828
   121  H   -0.021511
   122  H   -0.027688
   123  H   -0.040378
   124  H   -0.033811
   125  H   -0.031914
   126  H   -0.020997
   127  H   -0.010765
   128  H   -0.026308
   129  H   -0.020323
   130  H   -0.025290
   131  H   -0.011798
   132  H   -0.025346
   133  H   -0.034529
   134  H   -0.028186
   135  H   -0.015599
   136  H   -0.027200
   137  H   -0.020974
   138  H   -0.024265
   139  H   -0.006541
   140  H   -0.015371
 Sum of Mulliken charges =  -0.00000

 Dipole moment (field-independent basis, Debye):
    X=              4.6108    Y=              1.5864    Z=             -3.6341  Tot=              6.0813
 Quadrupole moment (field-independent basis, Debye-Ang):
   XX=           -385.8601   YY=           -441.6576   ZZ=           -405.8634
   XY=            -26.1595   XZ=             16.6202   YZ=              9.0159

 Normal termination of Gaussian 16 at Fri Apr 29 01:24:28 2022.
