 Gaussian 16, Revision A.03,
 Gaussian 16:  ES64L-G16RevA.03 25-Dec-2016

 -----------------------------------
 #p cam-b3lyp/Def2SVP td=(nstates=5)
 -----------------------------------

 --------------------------------------------------------
 step_1801_chromophore_21 TDDFT with cam-b3lyp functional
 --------------------------------------------------------
 Symbolic Z-matrix:
 Charge =  0 Multiplicity = 1

                         Standard orientation:
 ---------------------------------------------------------------------
 Center     Atomic      Atomic             Coordinates (Angstroms)
 Number     Number       Type             X           Y           Z
 ---------------------------------------------------------------------
      1         12           0       -5.101284    1.158913   -0.188801
      2          6           0       -4.752719   -2.182949    0.126083
      3          6           0       -1.665740    1.514827   -0.189848
      4          6           0       -5.595700    4.490028   -0.068103
      5          6           0       -8.560777    0.867741    0.261440
      6          7           0       -3.383140   -0.208113   -0.143298
      7          6           0       -3.485101   -1.561581   -0.096661
      8          6           0       -2.189674   -2.248105   -0.319755
      9          6           0       -1.144725   -1.078739   -0.169565
     10          6           0       -2.053690    0.167941   -0.195386
     11          6           0       -0.354563   -1.145307    1.202983
     12          6           0       -2.111093   -2.909306   -1.707408
     13          6           0       -1.407665   -4.254914   -1.924522
     14          6           0       -0.519908   -4.561135   -0.744885
     15          8           0       -0.815073   -5.307598    0.167641
     16          8           0        0.657511   -3.892444   -0.838093
     17          7           0       -3.834272    2.757810   -0.231582
     18          6           0       -2.460069    2.691175   -0.212075
     19          6           0       -1.954397    4.026344   -0.021262
     20          6           0       -3.068056    4.940758   -0.044508
     21          6           0       -4.256037    4.089781   -0.126289
     22          6           0       -0.566129    4.325403    0.189095
     23          6           0       -3.016849    6.344813    0.108700
     24          8           0       -4.080730    6.979803    0.273347
     25          6           0       -1.707018    7.166333    0.074403
     26          7           0       -6.841960    2.427223   -0.136834
     27          6           0       -6.786137    3.753902   -0.074404
     28          6           0       -8.171228    4.505959   -0.247646
     29          6           0       -9.107386    3.302370   -0.115463
     30          6           0       -8.091702    2.112341    0.073031
     31          6           0       -8.470904    5.560637    0.918639
     32          6           0      -10.102968    3.186812   -1.290121
     33          6           0      -11.651806    3.262036   -1.020908
     34          7           0       -6.450485   -0.397671   -0.010760
     35          6           0       -7.795095   -0.348569    0.173815
     36          6           0       -8.180935   -1.713198    0.468634
     37          6           0       -7.036119   -2.426879    0.453289
     38          6           0       -5.997016   -1.601987    0.142444
     39          6           0       -9.490613   -2.213145    0.849861
     40          6           0       -6.536828   -3.752681    0.625084
     41          8           0       -7.129114   -4.723206    1.075345
     42          6           0       -5.054325   -3.664657    0.317451
     43          6           0       -4.355743   -4.294598    1.361912
     44          8           0       -3.797793   -3.840888    2.334946
     45          8           0       -4.251723   -5.645157    1.004097
     46          6           0       -3.330265   -6.428299    1.825208
     47          6           0        1.375310   -4.008829    0.433644
     48          6           0        2.677902   -3.247464    0.383729
     49          6           0        3.908260   -3.725419   -0.085524
     50          6           0        4.176465   -5.036416   -0.859084
     51          6           0        5.164872   -2.856923    0.128880
     52          6           0        5.456248   -1.627974   -0.694632
     53          6           0        6.600320   -1.831687   -1.647131
     54          6           0        7.768825   -0.791087   -1.434153
     55          6           0        8.108150    0.002515   -2.717668
     56          6           0        9.045540   -1.515723   -1.032342
     57          6           0       10.118555   -0.628613   -0.331450
     58          6           0       11.429372   -0.361449   -1.261654
     59          6           0       12.266061    0.991972   -0.855704
     60          6           0       12.693542    1.666339   -2.175618
     61          6           0       13.548603    0.655442   -0.041295
     62          6           0       14.407152    2.005864    0.188013
     63          6           0       14.998482    1.935919    1.611483
     64          6           0       16.282514    2.824421    1.704751
     65          6           0       17.545840    2.027749    2.096142
     66          6           0       16.009313    3.961444    2.771019
     67          1           0       -0.579695    1.568366   -0.096475
     68          1           0       -5.792103    5.558940   -0.179396
     69          1           0       -9.632486    0.778037    0.448295
     70          1           0       -2.112036   -3.010314    0.454136
     71          1           0       -0.503336   -0.980027   -1.045038
     72          1           0        0.719123   -1.136900    1.017158
     73          1           0       -0.702670   -1.976891    1.816162
     74          1           0       -0.567067   -0.260121    1.803006
     75          1           0       -1.650608   -2.303476   -2.488474
     76          1           0       -3.132433   -3.056575   -2.059829
     77          1           0       -0.967477   -4.209715   -2.920146
     78          1           0       -2.126573   -5.067922   -1.829925
     79          1           0       -0.403634    4.699412    1.199128
     80          1           0       -0.288291    5.122052   -0.501871
     81          1           0        0.203937    3.570189    0.033142
     82          1           0       -1.003205    6.825139    0.834036
     83          1           0       -2.004355    8.213952    0.129546
     84          1           0       -1.409653    7.006237   -0.961344
     85          1           0       -8.272655    4.965341   -1.231812
     86          1           0       -9.779692    3.303672    0.742303
     87          1           0       -7.739700    5.495667    1.724652
     88          1           0       -9.480811    5.498091    1.322671
     89          1           0       -8.468697    6.532536    0.423587
     90          1           0       -9.981192    2.226109   -1.792086
     91          1           0       -9.979324    3.926710   -2.081094
     92          1           0      -11.927311    2.810219   -0.067908
     93          1           0      -12.126345    2.578514   -1.724603
     94          1           0      -12.023335    4.269323   -1.205787
     95          1           0       -9.469016   -2.994370    1.608999
     96          1           0      -10.141264   -2.525618    0.033360
     97          1           0       -9.946012   -1.291654    1.214405
     98          1           0       -4.896322   -4.237124   -0.595618
     99          1           0       -3.071818   -5.950702    2.769814
    100          1           0       -2.442421   -6.705587    1.256264
    101          1           0       -3.800261   -7.374955    2.089792
    102          1           0        1.618301   -5.037060    0.702292
    103          1           0        0.806860   -3.537590    1.235774
    104          1           0        2.644359   -2.217136    0.734081
    105          1           0        4.726584   -5.701357   -0.193273
    106          1           0        4.845774   -4.821712   -1.693238
    107          1           0        3.304746   -5.494936   -1.326213
    108          1           0        5.977093   -3.577516    0.028456
    109          1           0        5.284994   -2.622163    1.185863
    110          1           0        5.637706   -0.816373    0.009559
    111          1           0        4.589794   -1.285997   -1.260961
    112          1           0        6.228455   -1.571220   -2.638578
    113          1           0        6.993817   -2.840066   -1.773122
    114          1           0        7.547483   -0.070925   -0.646141
    115          1           0        8.575694    0.902460   -2.317740
    116          1           0        7.201407    0.467354   -3.104544
    117          1           0        8.772413   -0.406485   -3.478659
    118          1           0        9.449027   -1.993706   -1.925083
    119          1           0        8.901636   -2.355569   -0.352386
    120          1           0       10.536874   -1.234512    0.472613
    121          1           0        9.767744    0.339099    0.028195
    122          1           0       11.141095   -0.450624   -2.309195
    123          1           0       12.041193   -1.241781   -1.067061
    124          1           0       11.609654    1.634924   -0.270616
    125          1           0       12.525579    2.740497   -2.098314
    126          1           0       12.033096    1.448298   -3.015088
    127          1           0       13.746859    1.505954   -2.403110
    128          1           0       14.089161    0.009717   -0.733669
    129          1           0       13.340022    0.189837    0.921307
    130          1           0       13.691587    2.825288    0.247216
    131          1           0       15.184151    2.157151   -0.561086
    132          1           0       15.193881    0.912798    1.931101
    133          1           0       14.197825    2.357627    2.220655
    134          1           0       16.416816    3.222545    0.699314
    135          1           0       18.485018    2.370935    1.660733
    136          1           0       17.449741    0.976867    1.823760
    137          1           0       17.760116    1.958566    3.162428
    138          1           0       16.902322    3.970006    3.397530
    139          1           0       15.120690    3.787428    3.377226
    140          1           0       15.964884    4.927637    2.267565
 ---------------------------------------------------------------------

 SCF Done:  E(RCAM-B3LYP) =  -3007.15881283     A.U. after   17 cycles

 Excitation energies and oscillator strengths:

 Excited State   1:      Singlet-A      1.7330 eV  715.42 nm  f=0.3892  <S**2>=0.000
     245 -> 248       -0.18218
     246 -> 247        0.68528
     245 <- 248       -0.10851
 This state for optimization and/or second-order correction.
 Total Energy, E(TD-HF/TD-DFT) =  -3007.09512571
 Copying the excited state density for this state as the 1-particle RhoCI density.

 Excited State   2:      Singlet-A      2.2771 eV  544.48 nm  f=0.1286  <S**2>=0.000
     245 -> 247        0.64255
     246 -> 248        0.28321

 Excited State   3:      Singlet-A      3.3373 eV  371.51 nm  f=0.0029  <S**2>=0.000
     243 -> 247        0.31822
     243 -> 248        0.13693
     243 -> 249       -0.22857
     243 -> 250        0.15716
     244 -> 247        0.49683
     244 -> 249       -0.13837

 Excited State   4:      Singlet-A      3.4338 eV  361.07 nm  f=0.0045  <S**2>=0.000
     241 -> 247        0.10079
     243 -> 247        0.47441
     243 -> 249       -0.16589
     244 -> 247       -0.43341

 Excited State   5:      Singlet-A      3.5408 eV  350.16 nm  f=0.0161  <S**2>=0.000
     240 -> 247        0.54209
     240 -> 249        0.27977
     240 -> 250        0.20906
     241 -> 247        0.18428
     246 -> 248       -0.11881

 The electronic state is 1-A.
 Alpha  occ. eigenvalues --  -46.88102 -19.25953 -19.22724 -19.20696 -19.19438
 Alpha  occ. eigenvalues --  -19.18802 -19.17160 -14.42440 -14.41700 -14.39621
 Alpha  occ. eigenvalues --  -14.38763 -10.39681 -10.38154 -10.34430 -10.33596
 Alpha  occ. eigenvalues --  -10.31687 -10.31373 -10.30963 -10.30441 -10.30235
 Alpha  occ. eigenvalues --  -10.29921 -10.29826 -10.29804 -10.28833 -10.28737
 Alpha  occ. eigenvalues --  -10.28626 -10.28331 -10.28126 -10.27900 -10.27871
 Alpha  occ. eigenvalues --  -10.27719 -10.27651 -10.27533 -10.27519 -10.27404
 Alpha  occ. eigenvalues --  -10.27128 -10.26793 -10.26706 -10.26544 -10.26478
 Alpha  occ. eigenvalues --  -10.26286 -10.26268 -10.26157 -10.26152 -10.26075
 Alpha  occ. eigenvalues --  -10.26053 -10.25907 -10.25888 -10.25694 -10.25647
 Alpha  occ. eigenvalues --  -10.25609 -10.25513 -10.25316 -10.25297 -10.25157
 Alpha  occ. eigenvalues --  -10.25132 -10.25130 -10.25127 -10.24889 -10.24810
 Alpha  occ. eigenvalues --  -10.24771 -10.24419 -10.24399 -10.24393 -10.24271
 Alpha  occ. eigenvalues --  -10.23255  -3.16736  -1.91656  -1.91200  -1.91030
 Alpha  occ. eigenvalues --   -1.17970  -1.15072  -1.09864  -1.08985  -1.07679
 Alpha  occ. eigenvalues --   -1.06625  -1.06327  -1.05531  -1.03831  -1.01849
 Alpha  occ. eigenvalues --   -0.94159  -0.90749  -0.90459  -0.89061  -0.89058
 Alpha  occ. eigenvalues --   -0.88598  -0.88589  -0.87989  -0.87587  -0.87063
 Alpha  occ. eigenvalues --   -0.86810  -0.86111  -0.84771  -0.84158  -0.83160
 Alpha  occ. eigenvalues --   -0.82204  -0.81963  -0.81140  -0.81013  -0.80148
 Alpha  occ. eigenvalues --   -0.79832  -0.78782  -0.78578  -0.76748  -0.76177
 Alpha  occ. eigenvalues --   -0.75453  -0.75199  -0.75014  -0.74530  -0.73820
 Alpha  occ. eigenvalues --   -0.73262  -0.72811  -0.71734  -0.70545  -0.69298
 Alpha  occ. eigenvalues --   -0.69102  -0.68427  -0.68054  -0.66810  -0.66401
 Alpha  occ. eigenvalues --   -0.65714  -0.65293  -0.65190  -0.64440  -0.64034
 Alpha  occ. eigenvalues --   -0.63969  -0.63708  -0.62706  -0.61267  -0.60676
 Alpha  occ. eigenvalues --   -0.60220  -0.59945  -0.59657  -0.59128  -0.58722
 Alpha  occ. eigenvalues --   -0.57910  -0.57392  -0.57020  -0.56615  -0.56037
 Alpha  occ. eigenvalues --   -0.55150  -0.55072  -0.54319  -0.54172  -0.53878
 Alpha  occ. eigenvalues --   -0.53697  -0.53275  -0.53114  -0.52856  -0.52789
 Alpha  occ. eigenvalues --   -0.52632  -0.52461  -0.52232  -0.52087  -0.51773
 Alpha  occ. eigenvalues --   -0.51513  -0.51429  -0.51108  -0.50807  -0.50600
 Alpha  occ. eigenvalues --   -0.50513  -0.50263  -0.49907  -0.49592  -0.49438
 Alpha  occ. eigenvalues --   -0.49317  -0.49233  -0.49078  -0.48862  -0.48548
 Alpha  occ. eigenvalues --   -0.48308  -0.48194  -0.47975  -0.47783  -0.47551
 Alpha  occ. eigenvalues --   -0.47185  -0.46988  -0.46846  -0.46777  -0.46605
 Alpha  occ. eigenvalues --   -0.46449  -0.46209  -0.46034  -0.45959  -0.45845
 Alpha  occ. eigenvalues --   -0.45491  -0.45481  -0.45415  -0.45280  -0.45036
 Alpha  occ. eigenvalues --   -0.44933  -0.44569  -0.44317  -0.44083  -0.43763
 Alpha  occ. eigenvalues --   -0.43624  -0.43604  -0.43273  -0.43174  -0.42975
 Alpha  occ. eigenvalues --   -0.42898  -0.42609  -0.42474  -0.42195  -0.41975
 Alpha  occ. eigenvalues --   -0.41915  -0.41692  -0.41354  -0.41070  -0.40965
 Alpha  occ. eigenvalues --   -0.40803  -0.40661  -0.40504  -0.40371  -0.40339
 Alpha  occ. eigenvalues --   -0.39985  -0.39604  -0.39485  -0.39238  -0.39185
 Alpha  occ. eigenvalues --   -0.38730  -0.38525  -0.38422  -0.37939  -0.37730
 Alpha  occ. eigenvalues --   -0.37326  -0.37127  -0.37019  -0.36913  -0.36252
 Alpha  occ. eigenvalues --   -0.35633  -0.35381  -0.35227  -0.34640  -0.34280
 Alpha  occ. eigenvalues --   -0.34124  -0.33252  -0.33059  -0.31315  -0.30866
 Alpha  occ. eigenvalues --   -0.30294  -0.29941  -0.29835  -0.29341  -0.24051
 Alpha  occ. eigenvalues --   -0.21222
 Alpha virt. eigenvalues --   -0.08598  -0.01456   0.00478   0.02342   0.03174
 Alpha virt. eigenvalues --    0.03543   0.04535   0.05229   0.05798   0.06802
 Alpha virt. eigenvalues --    0.08455   0.08607   0.08980   0.09200   0.09293

 Mulliken charges:
               1
     1  Mg   0.831258
     2  C   -0.002527
     3  C   -0.078972
     4  C   -0.066679
     5  C   -0.112088
     6  N   -0.289094
     7  C   -0.028013
     8  C   -0.042886
     9  C   -0.015157
    10  C   -0.020840
    11  C    0.057287
    12  C    0.017349
    13  C    0.155087
    14  C    0.104976
    15  O   -0.227641
    16  O   -0.318417
    17  N   -0.409624
    18  C    0.201641
    19  C   -0.144736
    20  C    0.061830
    21  C    0.150742
    22  C    0.105378
    23  C   -0.096808
    24  O   -0.246752
    25  C    0.070008
    26  N   -0.228321
    27  C    0.026329
    28  C   -0.050665
    29  C    0.018827
    30  C    0.053357
    31  C    0.052635
    32  C   -0.002405
    33  C   -0.011129
    34  N   -0.313816
    35  C    0.097496
    36  C   -0.190718
    37  C    0.066421
    38  C    0.105004
    39  C    0.121886
    40  C   -0.008332
    41  O   -0.157638
    42  C    0.011978
    43  C    0.197520
    44  O   -0.204826
    45  O   -0.359572
    46  C    0.166980
    47  C    0.283672
    48  C   -0.138119
    49  C   -0.163702
    50  C    0.076391
    51  C    0.045004
    52  C    0.067435
    53  C    0.080815
    54  C   -0.139237
    55  C    0.051846
    56  C    0.037961
    57  C    0.003384
    58  C    0.022141
    59  C   -0.142164
    60  C    0.060445
    61  C    0.041354
    62  C   -0.016169
    63  C    0.037952
    64  C   -0.142084
    65  C    0.033166
    66  C    0.048294
    67  H   -0.040717
    68  H    0.000516
    69  H   -0.029889
    70  H    0.046626
    71  H    0.016872
    72  H    0.019985
    73  H    0.049922
    74  H    0.016267
    75  H    0.009977
    76  H    0.011633
    77  H    0.029726
    78  H    0.020640
    79  H    0.034785
    80  H    0.020921
    81  H    0.009914
    82  H    0.039674
    83  H    0.023680
    84  H    0.031738
    85  H    0.030278
    86  H    0.000306
    87  H    0.037120
    88  H    0.014394
    89  H    0.017531
    90  H    0.007205
    91  H    0.001707
    92  H    0.011704
    93  H    0.008568
    94  H    0.027549
    95  H    0.042070
    96  H    0.025590
    97  H   -0.002925
    98  H    0.053906
    99  H    0.041060
   100  H    0.041835
   101  H    0.014276
   102  H    0.032189
   103  H    0.014082
   104  H   -0.002974
   105  H    0.033234
   106  H    0.020576
   107  H    0.026258
   108  H   -0.019322
   109  H    0.003999
   110  H   -0.001931
   111  H   -0.000950
   112  H   -0.023372
   113  H    0.000279
   114  H   -0.004834
   115  H   -0.007722
   116  H   -0.002091
   117  H    0.026481
   118  H   -0.010234
   119  H   -0.015253
   120  H   -0.001161
   121  H    0.003427
   122  H   -0.003294
   123  H   -0.012043
   124  H   -0.004399
   125  H   -0.005921
   126  H    0.004903
   127  H    0.013046
   128  H    0.001276
   129  H    0.006999
   130  H    0.002188
   131  H    0.013506
   132  H    0.001908
   133  H   -0.006339
   134  H    0.003471
   135  H    0.009412
   136  H   -0.002803
   137  H    0.003072
   138  H    0.000162
   139  H    0.016211
   140  H    0.008802
 Sum of Mulliken charges =  -0.00000

 Dipole moment (field-independent basis, Debye):
    X=              4.9397    Y=              1.7770    Z=             -3.7650  Tot=              6.4602
 Quadrupole moment (field-independent basis, Debye-Ang):
   XX=           -384.2049   YY=           -438.7704   ZZ=           -405.7704
   XY=            -26.3069   XZ=             17.6494   YZ=              9.2904

 Normal termination of Gaussian 16 at Fri Apr 29 00:24:21 2022.
