 Gaussian 16, Revision A.03,
 Gaussian 16:  ES64L-G16RevA.03 25-Dec-2016

 ---------------------------------
 #p PBE1PBE/Def2SVP td=(nstates=5)
 ---------------------------------

 ------------------------------------------------------
 step_1801_chromophore_21 TDDFT with PBE1PBE functional
 ------------------------------------------------------
 Symbolic Z-matrix:
 Charge =  0 Multiplicity = 1

                         Standard orientation:
 ---------------------------------------------------------------------
 Center     Atomic      Atomic             Coordinates (Angstroms)
 Number     Number       Type             X           Y           Z
 ---------------------------------------------------------------------
      1         12           0       -5.101284    1.158913   -0.188801
      2          6           0       -4.752719   -2.182949    0.126083
      3          6           0       -1.665740    1.514827   -0.189848
      4          6           0       -5.595700    4.490028   -0.068103
      5          6           0       -8.560777    0.867741    0.261440
      6          7           0       -3.383140   -0.208113   -0.143298
      7          6           0       -3.485101   -1.561581   -0.096661
      8          6           0       -2.189674   -2.248105   -0.319755
      9          6           0       -1.144725   -1.078739   -0.169565
     10          6           0       -2.053690    0.167941   -0.195386
     11          6           0       -0.354563   -1.145307    1.202983
     12          6           0       -2.111093   -2.909306   -1.707408
     13          6           0       -1.407665   -4.254914   -1.924522
     14          6           0       -0.519908   -4.561135   -0.744885
     15          8           0       -0.815073   -5.307598    0.167641
     16          8           0        0.657511   -3.892444   -0.838093
     17          7           0       -3.834272    2.757810   -0.231582
     18          6           0       -2.460069    2.691175   -0.212075
     19          6           0       -1.954397    4.026344   -0.021262
     20          6           0       -3.068056    4.940758   -0.044508
     21          6           0       -4.256037    4.089781   -0.126289
     22          6           0       -0.566129    4.325403    0.189095
     23          6           0       -3.016849    6.344813    0.108700
     24          8           0       -4.080730    6.979803    0.273347
     25          6           0       -1.707018    7.166333    0.074403
     26          7           0       -6.841960    2.427223   -0.136834
     27          6           0       -6.786137    3.753902   -0.074404
     28          6           0       -8.171228    4.505959   -0.247646
     29          6           0       -9.107386    3.302370   -0.115463
     30          6           0       -8.091702    2.112341    0.073031
     31          6           0       -8.470904    5.560637    0.918639
     32          6           0      -10.102968    3.186812   -1.290121
     33          6           0      -11.651806    3.262036   -1.020908
     34          7           0       -6.450485   -0.397671   -0.010760
     35          6           0       -7.795095   -0.348569    0.173815
     36          6           0       -8.180935   -1.713198    0.468634
     37          6           0       -7.036119   -2.426879    0.453289
     38          6           0       -5.997016   -1.601987    0.142444
     39          6           0       -9.490613   -2.213145    0.849861
     40          6           0       -6.536828   -3.752681    0.625084
     41          8           0       -7.129114   -4.723206    1.075345
     42          6           0       -5.054325   -3.664657    0.317451
     43          6           0       -4.355743   -4.294598    1.361912
     44          8           0       -3.797793   -3.840888    2.334946
     45          8           0       -4.251723   -5.645157    1.004097
     46          6           0       -3.330265   -6.428299    1.825208
     47          6           0        1.375310   -4.008829    0.433644
     48          6           0        2.677902   -3.247464    0.383729
     49          6           0        3.908260   -3.725419   -0.085524
     50          6           0        4.176465   -5.036416   -0.859084
     51          6           0        5.164872   -2.856923    0.128880
     52          6           0        5.456248   -1.627974   -0.694632
     53          6           0        6.600320   -1.831687   -1.647131
     54          6           0        7.768825   -0.791087   -1.434153
     55          6           0        8.108150    0.002515   -2.717668
     56          6           0        9.045540   -1.515723   -1.032342
     57          6           0       10.118555   -0.628613   -0.331450
     58          6           0       11.429372   -0.361449   -1.261654
     59          6           0       12.266061    0.991972   -0.855704
     60          6           0       12.693542    1.666339   -2.175618
     61          6           0       13.548603    0.655442   -0.041295
     62          6           0       14.407152    2.005864    0.188013
     63          6           0       14.998482    1.935919    1.611483
     64          6           0       16.282514    2.824421    1.704751
     65          6           0       17.545840    2.027749    2.096142
     66          6           0       16.009313    3.961444    2.771019
     67          1           0       -0.579695    1.568366   -0.096475
     68          1           0       -5.792103    5.558940   -0.179396
     69          1           0       -9.632486    0.778037    0.448295
     70          1           0       -2.112036   -3.010314    0.454136
     71          1           0       -0.503336   -0.980027   -1.045038
     72          1           0        0.719123   -1.136900    1.017158
     73          1           0       -0.702670   -1.976891    1.816162
     74          1           0       -0.567067   -0.260121    1.803006
     75          1           0       -1.650608   -2.303476   -2.488474
     76          1           0       -3.132433   -3.056575   -2.059829
     77          1           0       -0.967477   -4.209715   -2.920146
     78          1           0       -2.126573   -5.067922   -1.829925
     79          1           0       -0.403634    4.699412    1.199128
     80          1           0       -0.288291    5.122052   -0.501871
     81          1           0        0.203937    3.570189    0.033142
     82          1           0       -1.003205    6.825139    0.834036
     83          1           0       -2.004355    8.213952    0.129546
     84          1           0       -1.409653    7.006237   -0.961344
     85          1           0       -8.272655    4.965341   -1.231812
     86          1           0       -9.779692    3.303672    0.742303
     87          1           0       -7.739700    5.495667    1.724652
     88          1           0       -9.480811    5.498091    1.322671
     89          1           0       -8.468697    6.532536    0.423587
     90          1           0       -9.981192    2.226109   -1.792086
     91          1           0       -9.979324    3.926710   -2.081094
     92          1           0      -11.927311    2.810219   -0.067908
     93          1           0      -12.126345    2.578514   -1.724603
     94          1           0      -12.023335    4.269323   -1.205787
     95          1           0       -9.469016   -2.994370    1.608999
     96          1           0      -10.141264   -2.525618    0.033360
     97          1           0       -9.946012   -1.291654    1.214405
     98          1           0       -4.896322   -4.237124   -0.595618
     99          1           0       -3.071818   -5.950702    2.769814
    100          1           0       -2.442421   -6.705587    1.256264
    101          1           0       -3.800261   -7.374955    2.089792
    102          1           0        1.618301   -5.037060    0.702292
    103          1           0        0.806860   -3.537590    1.235774
    104          1           0        2.644359   -2.217136    0.734081
    105          1           0        4.726584   -5.701357   -0.193273
    106          1           0        4.845774   -4.821712   -1.693238
    107          1           0        3.304746   -5.494936   -1.326213
    108          1           0        5.977093   -3.577516    0.028456
    109          1           0        5.284994   -2.622163    1.185863
    110          1           0        5.637706   -0.816373    0.009559
    111          1           0        4.589794   -1.285997   -1.260961
    112          1           0        6.228455   -1.571220   -2.638578
    113          1           0        6.993817   -2.840066   -1.773122
    114          1           0        7.547483   -0.070925   -0.646141
    115          1           0        8.575694    0.902460   -2.317740
    116          1           0        7.201407    0.467354   -3.104544
    117          1           0        8.772413   -0.406485   -3.478659
    118          1           0        9.449027   -1.993706   -1.925083
    119          1           0        8.901636   -2.355569   -0.352386
    120          1           0       10.536874   -1.234512    0.472613
    121          1           0        9.767744    0.339099    0.028195
    122          1           0       11.141095   -0.450624   -2.309195
    123          1           0       12.041193   -1.241781   -1.067061
    124          1           0       11.609654    1.634924   -0.270616
    125          1           0       12.525579    2.740497   -2.098314
    126          1           0       12.033096    1.448298   -3.015088
    127          1           0       13.746859    1.505954   -2.403110
    128          1           0       14.089161    0.009717   -0.733669
    129          1           0       13.340022    0.189837    0.921307
    130          1           0       13.691587    2.825288    0.247216
    131          1           0       15.184151    2.157151   -0.561086
    132          1           0       15.193881    0.912798    1.931101
    133          1           0       14.197825    2.357627    2.220655
    134          1           0       16.416816    3.222545    0.699314
    135          1           0       18.485018    2.370935    1.660733
    136          1           0       17.449741    0.976867    1.823760
    137          1           0       17.760116    1.958566    3.162428
    138          1           0       16.902322    3.970006    3.397530
    139          1           0       15.120690    3.787428    3.377226
    140          1           0       15.964884    4.927637    2.267565
 ---------------------------------------------------------------------

 SCF Done:  E(RPBE1PBE) =  -3005.34656647     A.U. after   15 cycles

 Excitation energies and oscillator strengths:

 Excited State   1:      Singlet-A      1.8942 eV  654.54 nm  f=0.3808  <S**2>=0.000
     245 -> 248        0.17348
     246 -> 247        0.69263
     246 <- 247       -0.10637
 This state for optimization and/or second-order correction.
 Total Energy, E(TD-HF/TD-DFT) =  -3005.27695533
 Copying the excited state density for this state as the 1-particle RhoCI density.

 Excited State   2:      Singlet-A      2.2862 eV  542.31 nm  f=0.1198  <S**2>=0.000
     245 -> 247        0.65125
     246 -> 248       -0.26107

 Excited State   3:      Singlet-A      2.7847 eV  445.24 nm  f=0.0010  <S**2>=0.000
     244 -> 247        0.66903
     244 -> 249        0.14558

 Excited State   4:      Singlet-A      3.0406 eV  407.76 nm  f=0.0005  <S**2>=0.000
     241 -> 247        0.65664
     241 -> 249       -0.15857
     243 -> 247       -0.13812

 Excited State   5:      Singlet-A      3.0797 eV  402.58 nm  f=0.0046  <S**2>=0.000
     241 -> 247        0.12075
     243 -> 247        0.67017

 The electronic state is 1-A.
 Alpha  occ. eigenvalues --  -46.91499 -19.26545 -19.23383 -19.20938 -19.19600
 Alpha  occ. eigenvalues --  -19.18961 -19.17476 -14.41898 -14.41202 -14.39336
 Alpha  occ. eigenvalues --  -14.38371 -10.36683 -10.35057 -10.31502 -10.30746
 Alpha  occ. eigenvalues --  -10.29071 -10.29040 -10.28733 -10.28181 -10.27941
 Alpha  occ. eigenvalues --  -10.27668 -10.27507 -10.27491 -10.26650 -10.26424
 Alpha  occ. eigenvalues --  -10.26119 -10.25874 -10.25761 -10.25715 -10.25646
 Alpha  occ. eigenvalues --  -10.25342 -10.25109 -10.25103 -10.25075 -10.25011
 Alpha  occ. eigenvalues --  -10.24962 -10.24317 -10.24175 -10.24049 -10.23989
 Alpha  occ. eigenvalues --  -10.23890 -10.23869 -10.23820 -10.23819 -10.23804
 Alpha  occ. eigenvalues --  -10.23794 -10.23590 -10.23245 -10.23202 -10.23123
 Alpha  occ. eigenvalues --  -10.23102 -10.23051 -10.22906 -10.22883 -10.22875
 Alpha  occ. eigenvalues --  -10.22751 -10.22710 -10.22533 -10.22469 -10.22382
 Alpha  occ. eigenvalues --  -10.22187 -10.22004 -10.21811 -10.21789 -10.21682
 Alpha  occ. eigenvalues --  -10.20868  -3.13712  -1.86575  -1.86095  -1.85929
 Alpha  occ. eigenvalues --   -1.12720  -1.09755  -1.04537  -1.03801  -1.02436
 Alpha  occ. eigenvalues --   -1.01415  -1.01019  -1.00235  -0.98401  -0.96537
 Alpha  occ. eigenvalues --   -0.88501  -0.84909  -0.84612  -0.83364  -0.83144
 Alpha  occ. eigenvalues --   -0.82894  -0.82705  -0.82286  -0.81935  -0.81396
 Alpha  occ. eigenvalues --   -0.80916  -0.80333  -0.79010  -0.78436  -0.77435
 Alpha  occ. eigenvalues --   -0.76461  -0.76148  -0.75418  -0.75208  -0.74445
 Alpha  occ. eigenvalues --   -0.73977  -0.73045  -0.72837  -0.71062  -0.70335
 Alpha  occ. eigenvalues --   -0.69807  -0.69314  -0.69290  -0.68654  -0.67996
 Alpha  occ. eigenvalues --   -0.67614  -0.67205  -0.66173  -0.64852  -0.63720
 Alpha  occ. eigenvalues --   -0.63481  -0.62681  -0.62497  -0.61071  -0.60833
 Alpha  occ. eigenvalues --   -0.60148  -0.59809  -0.59417  -0.58993  -0.58494
 Alpha  occ. eigenvalues --   -0.58120  -0.57866  -0.56894  -0.55713  -0.55092
 Alpha  occ. eigenvalues --   -0.54777  -0.54513  -0.54143  -0.53689  -0.53105
 Alpha  occ. eigenvalues --   -0.52548  -0.51871  -0.51431  -0.51194  -0.50538
 Alpha  occ. eigenvalues --   -0.49694  -0.49612  -0.48886  -0.48564  -0.48408
 Alpha  occ. eigenvalues --   -0.48101  -0.47842  -0.47615  -0.47322  -0.47254
 Alpha  occ. eigenvalues --   -0.47120  -0.46973  -0.46742  -0.46639  -0.46307
 Alpha  occ. eigenvalues --   -0.46071  -0.45922  -0.45728  -0.45351  -0.45124
 Alpha  occ. eigenvalues --   -0.45076  -0.44821  -0.44514  -0.44174  -0.44069
 Alpha  occ. eigenvalues --   -0.43934  -0.43795  -0.43621  -0.43467  -0.43149
 Alpha  occ. eigenvalues --   -0.42908  -0.42813  -0.42612  -0.42418  -0.42205
 Alpha  occ. eigenvalues --   -0.41844  -0.41679  -0.41476  -0.41436  -0.41295
 Alpha  occ. eigenvalues --   -0.41152  -0.40825  -0.40720  -0.40694  -0.40580
 Alpha  occ. eigenvalues --   -0.40231  -0.40180  -0.40060  -0.39912  -0.39857
 Alpha  occ. eigenvalues --   -0.39647  -0.39305  -0.39087  -0.38764  -0.38539
 Alpha  occ. eigenvalues --   -0.38396  -0.38281  -0.38085  -0.37953  -0.37759
 Alpha  occ. eigenvalues --   -0.37681  -0.37375  -0.37274  -0.37006  -0.36807
 Alpha  occ. eigenvalues --   -0.36748  -0.36429  -0.36221  -0.35921  -0.35831
 Alpha  occ. eigenvalues --   -0.35586  -0.35422  -0.35392  -0.35145  -0.35102
 Alpha  occ. eigenvalues --   -0.34781  -0.34415  -0.34330  -0.34229  -0.33963
 Alpha  occ. eigenvalues --   -0.33656  -0.33385  -0.33184  -0.32744  -0.32604
 Alpha  occ. eigenvalues --   -0.32192  -0.32108  -0.32021  -0.31752  -0.31290
 Alpha  occ. eigenvalues --   -0.30477  -0.30303  -0.30034  -0.29549  -0.29452
 Alpha  occ. eigenvalues --   -0.29082  -0.28600  -0.28150  -0.26979  -0.25901
 Alpha  occ. eigenvalues --   -0.25637  -0.25264  -0.25163  -0.24474  -0.21012
 Alpha  occ. eigenvalues --   -0.18834
 Alpha virt. eigenvalues --   -0.11067  -0.05006  -0.03729  -0.02022  -0.01272
 Alpha virt. eigenvalues --    0.00049   0.00399   0.01390   0.01821   0.03041
 Alpha virt. eigenvalues --    0.04258   0.04563   0.05503   0.05854   0.05959

 Mulliken charges:
               1
     1  Mg   0.983311
     2  C   -0.007269
     3  C   -0.075630
     4  C   -0.052907
     5  C   -0.101065
     6  N   -0.393669
     7  C    0.056679
     8  C   -0.127552
     9  C   -0.091077
    10  C    0.023052
    11  C   -0.004538
    12  C   -0.020091
    13  C    0.078626
    14  C    0.164274
    15  O   -0.260705
    16  O   -0.345364
    17  N   -0.529487
    18  C    0.232898
    19  C   -0.181469
    20  C    0.005461
    21  C    0.186413
    22  C    0.045737
    23  C   -0.043465
    24  O   -0.281403
    25  C   -0.007560
    26  N   -0.336379
    27  C    0.056164
    28  C   -0.130632
    29  C   -0.047282
    30  C    0.082904
    31  C   -0.002650
    32  C   -0.057168
    33  C   -0.083615
    34  N   -0.457216
    35  C    0.136427
    36  C   -0.221275
    37  C    0.013763
    38  C    0.152291
    39  C    0.069994
    40  C    0.096990
    41  O   -0.205416
    42  C   -0.097181
    43  C    0.288016
    44  O   -0.243226
    45  O   -0.390647
    46  C    0.113153
    47  C    0.234172
    48  C   -0.149636
    49  C   -0.198250
    50  C    0.007932
    51  C   -0.018155
    52  C    0.006682
    53  C    0.024552
    54  C   -0.227716
    55  C   -0.008998
    56  C   -0.013926
    57  C   -0.059345
    58  C   -0.025828
    59  C   -0.228277
    60  C    0.000270
    61  C   -0.014870
    62  C   -0.080790
    63  C   -0.012645
    64  C   -0.235570
    65  C   -0.026889
    66  C   -0.012369
    67  H   -0.006972
    68  H    0.032263
    69  H    0.001558
    70  H    0.090185
    71  H    0.051638
    72  H    0.052280
    73  H    0.074822
    74  H    0.045137
    75  H    0.040886
    76  H    0.046253
    77  H    0.060670
    78  H    0.054157
    79  H    0.063079
    80  H    0.049238
    81  H    0.037042
    82  H    0.065806
    83  H    0.051813
    84  H    0.060005
    85  H    0.065105
    86  H    0.037186
    87  H    0.063776
    88  H    0.041939
    89  H    0.044833
    90  H    0.040457
    91  H    0.033688
    92  H    0.038482
    93  H    0.036924
    94  H    0.054924
    95  H    0.068677
    96  H    0.053826
    97  H    0.026107
    98  H    0.090999
    99  H    0.062180
   100  H    0.065582
   101  H    0.037398
   102  H    0.059324
   103  H    0.043593
   104  H    0.026245
   105  H    0.061103
   106  H    0.049585
   107  H    0.053364
   108  H    0.014137
   109  H    0.036600
   110  H    0.029474
   111  H    0.031043
   112  H    0.011654
   113  H    0.029700
   114  H    0.031848
   115  H    0.022526
   116  H    0.027390
   117  H    0.051519
   118  H    0.022277
   119  H    0.018337
   120  H    0.032963
   121  H    0.033773
   122  H    0.027753
   123  H    0.020662
   124  H    0.032194
   125  H    0.022621
   126  H    0.032641
   127  H    0.040173
   128  H    0.035366
   129  H    0.038930
   130  H    0.036426
   131  H    0.044003
   132  H    0.032933
   133  H    0.027243
   134  H    0.040487
   135  H    0.037386
   136  H    0.025196
   137  H    0.030028
   138  H    0.028084
   139  H    0.042145
   140  H    0.036774
 Sum of Mulliken charges =  -0.00000

 Dipole moment (field-independent basis, Debye):
    X=              4.8766    Y=              1.8564    Z=             -3.7995  Tot=              6.4547
 Quadrupole moment (field-independent basis, Debye-Ang):
   XX=           -377.9740   YY=           -435.6226   ZZ=           -403.3903
   XY=            -27.6117   XZ=             17.8312   YZ=              9.2903

 Normal termination of Gaussian 16 at Fri Apr 29 00:40:34 2022.
