 Gaussian 16, Revision A.03,
 Gaussian 16:  ES64L-G16RevA.03 25-Dec-2016

 --------------------------------
 #p wB97XD/Def2SVP td=(nstates=5)
 --------------------------------

 -----------------------------------------------------
 step_1801_chromophore_21 TDDFT with wB97XD functional
 -----------------------------------------------------
 Symbolic Z-matrix:
 Charge =  0 Multiplicity = 1

                         Standard orientation:
 ---------------------------------------------------------------------
 Center     Atomic      Atomic             Coordinates (Angstroms)
 Number     Number       Type             X           Y           Z
 ---------------------------------------------------------------------
      1         12           0       -5.101284    1.158913   -0.188801
      2          6           0       -4.752719   -2.182949    0.126083
      3          6           0       -1.665740    1.514827   -0.189848
      4          6           0       -5.595700    4.490028   -0.068103
      5          6           0       -8.560777    0.867741    0.261440
      6          7           0       -3.383140   -0.208113   -0.143298
      7          6           0       -3.485101   -1.561581   -0.096661
      8          6           0       -2.189674   -2.248105   -0.319755
      9          6           0       -1.144725   -1.078739   -0.169565
     10          6           0       -2.053690    0.167941   -0.195386
     11          6           0       -0.354563   -1.145307    1.202983
     12          6           0       -2.111093   -2.909306   -1.707408
     13          6           0       -1.407665   -4.254914   -1.924522
     14          6           0       -0.519908   -4.561135   -0.744885
     15          8           0       -0.815073   -5.307598    0.167641
     16          8           0        0.657511   -3.892444   -0.838093
     17          7           0       -3.834272    2.757810   -0.231582
     18          6           0       -2.460069    2.691175   -0.212075
     19          6           0       -1.954397    4.026344   -0.021262
     20          6           0       -3.068056    4.940758   -0.044508
     21          6           0       -4.256037    4.089781   -0.126289
     22          6           0       -0.566129    4.325403    0.189095
     23          6           0       -3.016849    6.344813    0.108700
     24          8           0       -4.080730    6.979803    0.273347
     25          6           0       -1.707018    7.166333    0.074403
     26          7           0       -6.841960    2.427223   -0.136834
     27          6           0       -6.786137    3.753902   -0.074404
     28          6           0       -8.171228    4.505959   -0.247646
     29          6           0       -9.107386    3.302370   -0.115463
     30          6           0       -8.091702    2.112341    0.073031
     31          6           0       -8.470904    5.560637    0.918639
     32          6           0      -10.102968    3.186812   -1.290121
     33          6           0      -11.651806    3.262036   -1.020908
     34          7           0       -6.450485   -0.397671   -0.010760
     35          6           0       -7.795095   -0.348569    0.173815
     36          6           0       -8.180935   -1.713198    0.468634
     37          6           0       -7.036119   -2.426879    0.453289
     38          6           0       -5.997016   -1.601987    0.142444
     39          6           0       -9.490613   -2.213145    0.849861
     40          6           0       -6.536828   -3.752681    0.625084
     41          8           0       -7.129114   -4.723206    1.075345
     42          6           0       -5.054325   -3.664657    0.317451
     43          6           0       -4.355743   -4.294598    1.361912
     44          8           0       -3.797793   -3.840888    2.334946
     45          8           0       -4.251723   -5.645157    1.004097
     46          6           0       -3.330265   -6.428299    1.825208
     47          6           0        1.375310   -4.008829    0.433644
     48          6           0        2.677902   -3.247464    0.383729
     49          6           0        3.908260   -3.725419   -0.085524
     50          6           0        4.176465   -5.036416   -0.859084
     51          6           0        5.164872   -2.856923    0.128880
     52          6           0        5.456248   -1.627974   -0.694632
     53          6           0        6.600320   -1.831687   -1.647131
     54          6           0        7.768825   -0.791087   -1.434153
     55          6           0        8.108150    0.002515   -2.717668
     56          6           0        9.045540   -1.515723   -1.032342
     57          6           0       10.118555   -0.628613   -0.331450
     58          6           0       11.429372   -0.361449   -1.261654
     59          6           0       12.266061    0.991972   -0.855704
     60          6           0       12.693542    1.666339   -2.175618
     61          6           0       13.548603    0.655442   -0.041295
     62          6           0       14.407152    2.005864    0.188013
     63          6           0       14.998482    1.935919    1.611483
     64          6           0       16.282514    2.824421    1.704751
     65          6           0       17.545840    2.027749    2.096142
     66          6           0       16.009313    3.961444    2.771019
     67          1           0       -0.579695    1.568366   -0.096475
     68          1           0       -5.792103    5.558940   -0.179396
     69          1           0       -9.632486    0.778037    0.448295
     70          1           0       -2.112036   -3.010314    0.454136
     71          1           0       -0.503336   -0.980027   -1.045038
     72          1           0        0.719123   -1.136900    1.017158
     73          1           0       -0.702670   -1.976891    1.816162
     74          1           0       -0.567067   -0.260121    1.803006
     75          1           0       -1.650608   -2.303476   -2.488474
     76          1           0       -3.132433   -3.056575   -2.059829
     77          1           0       -0.967477   -4.209715   -2.920146
     78          1           0       -2.126573   -5.067922   -1.829925
     79          1           0       -0.403634    4.699412    1.199128
     80          1           0       -0.288291    5.122052   -0.501871
     81          1           0        0.203937    3.570189    0.033142
     82          1           0       -1.003205    6.825139    0.834036
     83          1           0       -2.004355    8.213952    0.129546
     84          1           0       -1.409653    7.006237   -0.961344
     85          1           0       -8.272655    4.965341   -1.231812
     86          1           0       -9.779692    3.303672    0.742303
     87          1           0       -7.739700    5.495667    1.724652
     88          1           0       -9.480811    5.498091    1.322671
     89          1           0       -8.468697    6.532536    0.423587
     90          1           0       -9.981192    2.226109   -1.792086
     91          1           0       -9.979324    3.926710   -2.081094
     92          1           0      -11.927311    2.810219   -0.067908
     93          1           0      -12.126345    2.578514   -1.724603
     94          1           0      -12.023335    4.269323   -1.205787
     95          1           0       -9.469016   -2.994370    1.608999
     96          1           0      -10.141264   -2.525618    0.033360
     97          1           0       -9.946012   -1.291654    1.214405
     98          1           0       -4.896322   -4.237124   -0.595618
     99          1           0       -3.071818   -5.950702    2.769814
    100          1           0       -2.442421   -6.705587    1.256264
    101          1           0       -3.800261   -7.374955    2.089792
    102          1           0        1.618301   -5.037060    0.702292
    103          1           0        0.806860   -3.537590    1.235774
    104          1           0        2.644359   -2.217136    0.734081
    105          1           0        4.726584   -5.701357   -0.193273
    106          1           0        4.845774   -4.821712   -1.693238
    107          1           0        3.304746   -5.494936   -1.326213
    108          1           0        5.977093   -3.577516    0.028456
    109          1           0        5.284994   -2.622163    1.185863
    110          1           0        5.637706   -0.816373    0.009559
    111          1           0        4.589794   -1.285997   -1.260961
    112          1           0        6.228455   -1.571220   -2.638578
    113          1           0        6.993817   -2.840066   -1.773122
    114          1           0        7.547483   -0.070925   -0.646141
    115          1           0        8.575694    0.902460   -2.317740
    116          1           0        7.201407    0.467354   -3.104544
    117          1           0        8.772413   -0.406485   -3.478659
    118          1           0        9.449027   -1.993706   -1.925083
    119          1           0        8.901636   -2.355569   -0.352386
    120          1           0       10.536874   -1.234512    0.472613
    121          1           0        9.767744    0.339099    0.028195
    122          1           0       11.141095   -0.450624   -2.309195
    123          1           0       12.041193   -1.241781   -1.067061
    124          1           0       11.609654    1.634924   -0.270616
    125          1           0       12.525579    2.740497   -2.098314
    126          1           0       12.033096    1.448298   -3.015088
    127          1           0       13.746859    1.505954   -2.403110
    128          1           0       14.089161    0.009717   -0.733669
    129          1           0       13.340022    0.189837    0.921307
    130          1           0       13.691587    2.825288    0.247216
    131          1           0       15.184151    2.157151   -0.561086
    132          1           0       15.193881    0.912798    1.931101
    133          1           0       14.197825    2.357627    2.220655
    134          1           0       16.416816    3.222545    0.699314
    135          1           0       18.485018    2.370935    1.660733
    136          1           0       17.449741    0.976867    1.823760
    137          1           0       17.760116    1.958566    3.162428
    138          1           0       16.902322    3.970006    3.397530
    139          1           0       15.120690    3.787428    3.377226
    140          1           0       15.964884    4.927637    2.267565
 ---------------------------------------------------------------------

 SCF Done:  E(RwB97XD) =  -3007.85623241     A.U. after   19 cycles

 Excitation energies and oscillator strengths:

 Excited State   1:      Singlet-A      1.6750 eV  740.22 nm  f=0.3871  <S**2>=0.000
     245 -> 248       -0.18796
     246 -> 247        0.68323
     245 <- 248       -0.11791
 This state for optimization and/or second-order correction.
 Total Energy, E(TD-HF/TD-DFT) =  -3007.79467882
 Copying the excited state density for this state as the 1-particle RhoCI density.

 Excited State   2:      Singlet-A      2.2233 eV  557.66 nm  f=0.1249  <S**2>=0.000
     245 -> 247        0.64057
     246 -> 248        0.28604

 Excited State   3:      Singlet-A      3.3598 eV  369.02 nm  f=0.0036  <S**2>=0.000
     243 -> 247        0.17811
     243 -> 248        0.12055
     243 -> 249       -0.19796
     243 -> 250        0.14658
     244 -> 247        0.53835
     244 -> 249       -0.22285
     244 -> 250        0.11710

 Excited State   4:      Singlet-A      3.4615 eV  358.18 nm  f=0.0073  <S**2>=0.000
     241 -> 247        0.12264
     243 -> 247        0.55588
     243 -> 249       -0.16503
     244 -> 247       -0.30143
     246 -> 248        0.10312

 Excited State   5:      Singlet-A      3.5601 eV  348.26 nm  f=0.0216  <S**2>=0.000
     240 -> 247        0.51810
     240 -> 249        0.29574
     240 -> 250        0.21578
     241 -> 247        0.21320
     246 -> 248       -0.13077

 The electronic state is 1-A.
 Alpha  occ. eigenvalues --  -46.94453 -19.31140 -19.27975 -19.25599 -19.24368
 Alpha  occ. eigenvalues --  -19.23864 -19.22189 -14.47057 -14.46269 -14.44245
 Alpha  occ. eigenvalues --  -14.43351 -10.43461 -10.41973 -10.38442 -10.37535
 Alpha  occ. eigenvalues --  -10.35597 -10.35402 -10.34993 -10.34452 -10.34286
 Alpha  occ. eigenvalues --  -10.33949 -10.33853 -10.33807 -10.32897 -10.32785
 Alpha  occ. eigenvalues --  -10.32401 -10.32389 -10.32254 -10.32055 -10.31918
 Alpha  occ. eigenvalues --  -10.31688 -10.31559 -10.31524 -10.31495 -10.31472
 Alpha  occ. eigenvalues --  -10.31175 -10.30808 -10.30627 -10.30452 -10.30401
 Alpha  occ. eigenvalues --  -10.30268 -10.30264 -10.30176 -10.30117 -10.30091
 Alpha  occ. eigenvalues --  -10.30066 -10.29856 -10.29773 -10.29630 -10.29473
 Alpha  occ. eigenvalues --  -10.29471 -10.29426 -10.29261 -10.29237 -10.29185
 Alpha  occ. eigenvalues --  -10.29104 -10.29071 -10.29009 -10.28824 -10.28740
 Alpha  occ. eigenvalues --  -10.28622 -10.28351 -10.28223 -10.28215 -10.28116
 Alpha  occ. eigenvalues --  -10.27277  -3.20502  -1.94118  -1.93637  -1.93473
 Alpha  occ. eigenvalues --   -1.20104  -1.17215  -1.12101  -1.11146  -1.09867
 Alpha  occ. eigenvalues --   -1.08826  -1.08371  -1.07578  -1.05837  -1.03891
 Alpha  occ. eigenvalues --   -0.96177  -0.92567  -0.92268  -0.90967  -0.90830
 Alpha  occ. eigenvalues --   -0.90470  -0.90383  -0.89941  -0.89529  -0.89015
 Alpha  occ. eigenvalues --   -0.88593  -0.87978  -0.86655  -0.86077  -0.85065
 Alpha  occ. eigenvalues --   -0.84085  -0.83818  -0.83080  -0.82876  -0.82106
 Alpha  occ. eigenvalues --   -0.81653  -0.80711  -0.80501  -0.78655  -0.78016
 Alpha  occ. eigenvalues --   -0.77399  -0.76990  -0.76940  -0.76349  -0.75666
 Alpha  occ. eigenvalues --   -0.75199  -0.74779  -0.73710  -0.72467  -0.71289
 Alpha  occ. eigenvalues --   -0.71034  -0.70310  -0.70026  -0.68689  -0.68362
 Alpha  occ. eigenvalues --   -0.67623  -0.67289  -0.67059  -0.66435  -0.65973
 Alpha  occ. eigenvalues --   -0.65807  -0.65528  -0.64548  -0.63240  -0.62618
 Alpha  occ. eigenvalues --   -0.62206  -0.61935  -0.61622  -0.61105  -0.60676
 Alpha  occ. eigenvalues --   -0.59901  -0.59316  -0.58910  -0.58594  -0.57971
 Alpha  occ. eigenvalues --   -0.57085  -0.57032  -0.56250  -0.56031  -0.55821
 Alpha  occ. eigenvalues --   -0.55555  -0.55213  -0.55001  -0.54758  -0.54683
 Alpha  occ. eigenvalues --   -0.54504  -0.54395  -0.54138  -0.53997  -0.53740
 Alpha  occ. eigenvalues --   -0.53434  -0.53298  -0.53038  -0.52712  -0.52513
 Alpha  occ. eigenvalues --   -0.52440  -0.52200  -0.51810  -0.51489  -0.51396
 Alpha  occ. eigenvalues --   -0.51226  -0.51108  -0.50977  -0.50759  -0.50482
 Alpha  occ. eigenvalues --   -0.50196  -0.50092  -0.49893  -0.49683  -0.49482
 Alpha  occ. eigenvalues --   -0.49115  -0.48895  -0.48757  -0.48693  -0.48530
 Alpha  occ. eigenvalues --   -0.48351  -0.48076  -0.47935  -0.47891  -0.47761
 Alpha  occ. eigenvalues --   -0.47418  -0.47358  -0.47308  -0.47145  -0.46962
 Alpha  occ. eigenvalues --   -0.46838  -0.46519  -0.46245  -0.45939  -0.45710
 Alpha  occ. eigenvalues --   -0.45514  -0.45483  -0.45193  -0.45117  -0.44918
 Alpha  occ. eigenvalues --   -0.44810  -0.44505  -0.44381  -0.44102  -0.43897
 Alpha  occ. eigenvalues --   -0.43831  -0.43560  -0.43271  -0.43019  -0.42894
 Alpha  occ. eigenvalues --   -0.42670  -0.42526  -0.42395  -0.42318  -0.42213
 Alpha  occ. eigenvalues --   -0.41842  -0.41456  -0.41375  -0.41132  -0.41022
 Alpha  occ. eigenvalues --   -0.40642  -0.40399  -0.40261  -0.39802  -0.39692
 Alpha  occ. eigenvalues --   -0.39231  -0.39143  -0.38969  -0.38776  -0.38207
 Alpha  occ. eigenvalues --   -0.37486  -0.37261  -0.37104  -0.36631  -0.36271
 Alpha  occ. eigenvalues --   -0.36099  -0.35468  -0.34913  -0.33553  -0.32849
 Alpha  occ. eigenvalues --   -0.32479  -0.31986  -0.31818  -0.31446  -0.25981
 Alpha  occ. eigenvalues --   -0.23039
 Alpha virt. eigenvalues --   -0.06949   0.00450   0.02528   0.04456   0.05382
 Alpha virt. eigenvalues --    0.06514   0.06897   0.07878   0.08141   0.09363
 Alpha virt. eigenvalues --    0.11064   0.11398   0.12268   0.12602   0.12743

 Mulliken charges:
               1
     1  Mg   0.973151
     2  C   -0.011917
     3  C   -0.090254
     4  C   -0.072778
     5  C   -0.120510
     6  N   -0.358882
     7  C    0.021594
     8  C   -0.087347
     9  C   -0.067224
    10  C    0.006170
    11  C    0.008774
    12  C   -0.016344
    13  C    0.093554
    14  C    0.155012
    15  O   -0.257752
    16  O   -0.344057
    17  N   -0.496130
    18  C    0.220943
    19  C   -0.165195
    20  C    0.013640
    21  C    0.176644
    22  C    0.056449
    23  C   -0.050652
    24  O   -0.277329
    25  C    0.008697
    26  N   -0.302519
    27  C    0.046061
    28  C   -0.105049
    29  C   -0.024484
    30  C    0.074544
    31  C    0.007666
    32  C   -0.046530
    33  C   -0.066214
    34  N   -0.412387
    35  C    0.122050
    36  C   -0.211196
    37  C    0.019856
    38  C    0.136694
    39  C    0.079724
    40  C    0.073546
    41  O   -0.193765
    42  C   -0.059808
    43  C    0.265974
    44  O   -0.235758
    45  O   -0.389969
    46  C    0.129292
    47  C    0.252617
    48  C   -0.153439
    49  C   -0.190525
    50  C    0.023260
    51  C    0.002375
    52  C    0.020370
    53  C    0.037485
    54  C   -0.195690
    55  C    0.002970
    56  C    0.002038
    57  C   -0.043380
    58  C   -0.011450
    59  C   -0.198992
    60  C    0.013232
    61  C    0.002468
    62  C   -0.062194
    63  C    0.001699
    64  C   -0.207489
    65  C   -0.014959
    66  C    0.001582
    67  H   -0.014666
    68  H    0.027177
    69  H   -0.004196
    70  H    0.064379
    71  H    0.043486
    72  H    0.041198
    73  H    0.070727
    74  H    0.039603
    75  H    0.034541
    76  H    0.036111
    77  H    0.057650
    78  H    0.047977
    79  H    0.057914
    80  H    0.041878
    81  H    0.033978
    82  H    0.060097
    83  H    0.050537
    84  H    0.053288
    85  H    0.056248
    86  H    0.024252
    87  H    0.058543
    88  H    0.035742
    89  H    0.039371
    90  H    0.031200
    91  H    0.026116
    92  H    0.031646
    93  H    0.030899
    94  H    0.049370
    95  H    0.066011
    96  H    0.049976
    97  H    0.017741
    98  H    0.083961
    99  H    0.058389
   100  H    0.060507
   101  H    0.033404
   102  H    0.054325
   103  H    0.033236
   104  H    0.019853
   105  H    0.055511
   106  H    0.042358
   107  H    0.049502
   108  H    0.002464
   109  H    0.030198
   110  H    0.022007
   111  H    0.024033
   112  H    0.003025
   113  H    0.020910
   114  H    0.018900
   115  H    0.013692
   116  H    0.021082
   117  H    0.046752
   118  H    0.010947
   119  H    0.009796
   120  H    0.024924
   121  H    0.024101
   122  H    0.014992
   123  H    0.011972
   124  H    0.020284
   125  H    0.016238
   126  H    0.026649
   127  H    0.032814
   128  H    0.024232
   129  H    0.030238
   130  H    0.025350
   131  H    0.034652
   132  H    0.023315
   133  H    0.016853
   134  H    0.029307
   135  H    0.032328
   136  H    0.018301
   137  H    0.023337
   138  H    0.020961
   139  H    0.036168
   140  H    0.031378
 Sum of Mulliken charges =  -0.00000

 Dipole moment (field-independent basis, Debye):
    X=              4.9720    Y=              1.7948    Z=             -3.7963  Tot=              6.5080
 Quadrupole moment (field-independent basis, Debye-Ang):
   XX=           -378.6034   YY=           -434.4298   ZZ=           -403.0378
   XY=            -26.1841   XZ=             17.9013   YZ=              9.3894

 Normal termination of Gaussian 16 at Fri Apr 29 01:11:39 2022.
