 Gaussian 16, Revision A.03,
 Gaussian 16:  ES64L-G16RevA.03 25-Dec-2016

 --------------------
 #p ZINDO=(nstates=5)
 --------------------

 ------------------------------
 step_1801_chromophore_21 ZINDO
 ------------------------------
 Symbolic Z-matrix:
 Charge =  0 Multiplicity = 1

                         Standard orientation:
 ---------------------------------------------------------------------
 Center     Atomic      Atomic             Coordinates (Angstroms)
 Number     Number       Type             X           Y           Z
 ---------------------------------------------------------------------
      1         12           0       -5.101284    1.158913   -0.188801
      2          6           0       -4.752719   -2.182949    0.126083
      3          6           0       -1.665740    1.514827   -0.189848
      4          6           0       -5.595700    4.490028   -0.068103
      5          6           0       -8.560777    0.867741    0.261440
      6          7           0       -3.383140   -0.208113   -0.143298
      7          6           0       -3.485101   -1.561581   -0.096661
      8          6           0       -2.189674   -2.248105   -0.319755
      9          6           0       -1.144725   -1.078739   -0.169565
     10          6           0       -2.053690    0.167941   -0.195386
     11          6           0       -0.354563   -1.145307    1.202983
     12          6           0       -2.111093   -2.909306   -1.707408
     13          6           0       -1.407665   -4.254914   -1.924522
     14          6           0       -0.519908   -4.561135   -0.744885
     15          8           0       -0.815073   -5.307598    0.167641
     16          8           0        0.657511   -3.892444   -0.838093
     17          7           0       -3.834272    2.757810   -0.231582
     18          6           0       -2.460069    2.691175   -0.212075
     19          6           0       -1.954397    4.026344   -0.021262
     20          6           0       -3.068056    4.940758   -0.044508
     21          6           0       -4.256037    4.089781   -0.126289
     22          6           0       -0.566129    4.325403    0.189095
     23          6           0       -3.016849    6.344813    0.108700
     24          8           0       -4.080730    6.979803    0.273347
     25          6           0       -1.707018    7.166333    0.074403
     26          7           0       -6.841960    2.427223   -0.136834
     27          6           0       -6.786137    3.753902   -0.074404
     28          6           0       -8.171228    4.505959   -0.247646
     29          6           0       -9.107386    3.302370   -0.115463
     30          6           0       -8.091702    2.112341    0.073031
     31          6           0       -8.470904    5.560637    0.918639
     32          6           0      -10.102968    3.186812   -1.290121
     33          6           0      -11.651806    3.262036   -1.020908
     34          7           0       -6.450485   -0.397671   -0.010760
     35          6           0       -7.795095   -0.348569    0.173815
     36          6           0       -8.180935   -1.713198    0.468634
     37          6           0       -7.036119   -2.426879    0.453289
     38          6           0       -5.997016   -1.601987    0.142444
     39          6           0       -9.490613   -2.213145    0.849861
     40          6           0       -6.536828   -3.752681    0.625084
     41          8           0       -7.129114   -4.723206    1.075345
     42          6           0       -5.054325   -3.664657    0.317451
     43          6           0       -4.355743   -4.294598    1.361912
     44          8           0       -3.797793   -3.840888    2.334946
     45          8           0       -4.251723   -5.645157    1.004097
     46          6           0       -3.330265   -6.428299    1.825208
     47          6           0        1.375310   -4.008829    0.433644
     48          6           0        2.677902   -3.247464    0.383729
     49          6           0        3.908260   -3.725419   -0.085524
     50          6           0        4.176465   -5.036416   -0.859084
     51          6           0        5.164872   -2.856923    0.128880
     52          6           0        5.456248   -1.627974   -0.694632
     53          6           0        6.600320   -1.831687   -1.647131
     54          6           0        7.768825   -0.791087   -1.434153
     55          6           0        8.108150    0.002515   -2.717668
     56          6           0        9.045540   -1.515723   -1.032342
     57          6           0       10.118555   -0.628613   -0.331450
     58          6           0       11.429372   -0.361449   -1.261654
     59          6           0       12.266061    0.991972   -0.855704
     60          6           0       12.693542    1.666339   -2.175618
     61          6           0       13.548603    0.655442   -0.041295
     62          6           0       14.407152    2.005864    0.188013
     63          6           0       14.998482    1.935919    1.611483
     64          6           0       16.282514    2.824421    1.704751
     65          6           0       17.545840    2.027749    2.096142
     66          6           0       16.009313    3.961444    2.771019
     67          1           0       -0.579695    1.568366   -0.096475
     68          1           0       -5.792103    5.558940   -0.179396
     69          1           0       -9.632486    0.778037    0.448295
     70          1           0       -2.112036   -3.010314    0.454136
     71          1           0       -0.503336   -0.980027   -1.045038
     72          1           0        0.719123   -1.136900    1.017158
     73          1           0       -0.702670   -1.976891    1.816162
     74          1           0       -0.567067   -0.260121    1.803006
     75          1           0       -1.650608   -2.303476   -2.488474
     76          1           0       -3.132433   -3.056575   -2.059829
     77          1           0       -0.967477   -4.209715   -2.920146
     78          1           0       -2.126573   -5.067922   -1.829925
     79          1           0       -0.403634    4.699412    1.199128
     80          1           0       -0.288291    5.122052   -0.501871
     81          1           0        0.203937    3.570189    0.033142
     82          1           0       -1.003205    6.825139    0.834036
     83          1           0       -2.004355    8.213952    0.129546
     84          1           0       -1.409653    7.006237   -0.961344
     85          1           0       -8.272655    4.965341   -1.231812
     86          1           0       -9.779692    3.303672    0.742303
     87          1           0       -7.739700    5.495667    1.724652
     88          1           0       -9.480811    5.498091    1.322671
     89          1           0       -8.468697    6.532536    0.423587
     90          1           0       -9.981192    2.226109   -1.792086
     91          1           0       -9.979324    3.926710   -2.081094
     92          1           0      -11.927311    2.810219   -0.067908
     93          1           0      -12.126345    2.578514   -1.724603
     94          1           0      -12.023335    4.269323   -1.205787
     95          1           0       -9.469016   -2.994370    1.608999
     96          1           0      -10.141264   -2.525618    0.033360
     97          1           0       -9.946012   -1.291654    1.214405
     98          1           0       -4.896322   -4.237124   -0.595618
     99          1           0       -3.071818   -5.950702    2.769814
    100          1           0       -2.442421   -6.705587    1.256264
    101          1           0       -3.800261   -7.374955    2.089792
    102          1           0        1.618301   -5.037060    0.702292
    103          1           0        0.806860   -3.537590    1.235774
    104          1           0        2.644359   -2.217136    0.734081
    105          1           0        4.726584   -5.701357   -0.193273
    106          1           0        4.845774   -4.821712   -1.693238
    107          1           0        3.304746   -5.494936   -1.326213
    108          1           0        5.977093   -3.577516    0.028456
    109          1           0        5.284994   -2.622163    1.185863
    110          1           0        5.637706   -0.816373    0.009559
    111          1           0        4.589794   -1.285997   -1.260961
    112          1           0        6.228455   -1.571220   -2.638578
    113          1           0        6.993817   -2.840066   -1.773122
    114          1           0        7.547483   -0.070925   -0.646141
    115          1           0        8.575694    0.902460   -2.317740
    116          1           0        7.201407    0.467354   -3.104544
    117          1           0        8.772413   -0.406485   -3.478659
    118          1           0        9.449027   -1.993706   -1.925083
    119          1           0        8.901636   -2.355569   -0.352386
    120          1           0       10.536874   -1.234512    0.472613
    121          1           0        9.767744    0.339099    0.028195
    122          1           0       11.141095   -0.450624   -2.309195
    123          1           0       12.041193   -1.241781   -1.067061
    124          1           0       11.609654    1.634924   -0.270616
    125          1           0       12.525579    2.740497   -2.098314
    126          1           0       12.033096    1.448298   -3.015088
    127          1           0       13.746859    1.505954   -2.403110
    128          1           0       14.089161    0.009717   -0.733669
    129          1           0       13.340022    0.189837    0.921307
    130          1           0       13.691587    2.825288    0.247216
    131          1           0       15.184151    2.157151   -0.561086
    132          1           0       15.193881    0.912798    1.931101
    133          1           0       14.197825    2.357627    2.220655
    134          1           0       16.416816    3.222545    0.699314
    135          1           0       18.485018    2.370935    1.660733
    136          1           0       17.449741    0.976867    1.823760
    137          1           0       17.760116    1.958566    3.162428
    138          1           0       16.902322    3.970006    3.397530
    139          1           0       15.120690    3.787428    3.377226
    140          1           0       15.964884    4.927637    2.267565
 ---------------------------------------------------------------------

 SCF Done:  E(RZINDO/S) =  -474.683837106     A.U. after   20 cycles

 Excitation energies and oscillator strengths:

 Excited State   1:      Singlet-A      1.2389 eV 1000.79 nm  f=0.5918  <S**2>=0.000
     175 ->178        -0.19392
     176 ->177         0.66243
 This state for optimization and/or second-order correction.
 Total Energy, E(CIS/TDA) =  -474.638309544
 Copying the excited state density for this state as the 1-particle RhoCI density.

 Excited State   2:      Singlet-A      1.9321 eV  641.69 nm  f=0.0564  <S**2>=0.000
     175 ->177         0.55278
     176 ->178         0.41695

 Excited State   3:      Singlet-A      2.8267 eV  438.61 nm  f=0.0007  <S**2>=0.000
     170 ->177        -0.31528
     170 ->178        -0.13566
     170 ->179         0.35240
     170 ->180        -0.30584
     170 ->186         0.17989
     170 ->187        -0.11796
     170 ->188         0.12426
     172 ->177         0.10260

 Excited State   4:      Singlet-A      2.8824 eV  430.14 nm  f=0.0007  <S**2>=0.000
     168 ->177         0.11873
     168 ->179         0.12054
     168 ->180         0.11275
     169 ->177         0.33470
     169 ->178         0.12615
     169 ->179         0.34866
     169 ->180         0.28173
     169 ->186         0.17196

 Excited State   5:      Singlet-A      3.0384 eV  408.06 nm  f=0.2218  <S**2>=0.000
     175 ->177         0.17458
     176 ->178        -0.21270
     176 ->179         0.59204
     176 ->180        -0.15766

 The electronic state is 1-A.
 Alpha  occ. eigenvalues --   -1.90818  -1.82810  -1.81110  -1.76471  -1.74250
 Alpha  occ. eigenvalues --   -1.71936  -1.64027  -1.60774  -1.60079  -1.57941
 Alpha  occ. eigenvalues --   -1.53870  -1.51327  -1.49935  -1.48704  -1.47796
 Alpha  occ. eigenvalues --   -1.44964  -1.43689  -1.42355  -1.39017  -1.38040
 Alpha  occ. eigenvalues --   -1.36870  -1.35264  -1.33416  -1.31370  -1.29234
 Alpha  occ. eigenvalues --   -1.26720  -1.25459  -1.21987  -1.20657  -1.20031
 Alpha  occ. eigenvalues --   -1.18140  -1.16722  -1.15010  -1.14300  -1.13048
 Alpha  occ. eigenvalues --   -1.12548  -1.10915  -1.09841  -1.04656  -1.03494
 Alpha  occ. eigenvalues --   -1.01906  -1.01751  -0.99044  -0.97417  -0.96542
 Alpha  occ. eigenvalues --   -0.95907  -0.94674  -0.94150  -0.93522  -0.91917
 Alpha  occ. eigenvalues --   -0.91416  -0.90807  -0.89189  -0.88792  -0.87120
 Alpha  occ. eigenvalues --   -0.86815  -0.85031  -0.83968  -0.82158  -0.81077
 Alpha  occ. eigenvalues --   -0.79535  -0.78532  -0.77283  -0.77202  -0.76650
 Alpha  occ. eigenvalues --   -0.76097  -0.75773  -0.75363  -0.74426  -0.73666
 Alpha  occ. eigenvalues --   -0.73237  -0.72737  -0.72409  -0.71433  -0.70917
 Alpha  occ. eigenvalues --   -0.70447  -0.69041  -0.68306  -0.68214  -0.68090
 Alpha  occ. eigenvalues --   -0.67611  -0.66982  -0.66622  -0.66507  -0.65187
 Alpha  occ. eigenvalues --   -0.64823  -0.64602  -0.64051  -0.63516  -0.62970
 Alpha  occ. eigenvalues --   -0.62752  -0.62639  -0.62383  -0.61838  -0.61533
 Alpha  occ. eigenvalues --   -0.61005  -0.60771  -0.60398  -0.60186  -0.59950
 Alpha  occ. eigenvalues --   -0.59667  -0.59388  -0.58830  -0.58406  -0.58117
 Alpha  occ. eigenvalues --   -0.57617  -0.57584  -0.56993  -0.56896  -0.56479
 Alpha  occ. eigenvalues --   -0.56191  -0.55665  -0.55528  -0.55405  -0.54560
 Alpha  occ. eigenvalues --   -0.54493  -0.54215  -0.53645  -0.53158  -0.53001
 Alpha  occ. eigenvalues --   -0.52790  -0.52181  -0.51661  -0.51476  -0.51260
 Alpha  occ. eigenvalues --   -0.51086  -0.50526  -0.50439  -0.50334  -0.50217
 Alpha  occ. eigenvalues --   -0.49539  -0.49415  -0.49033  -0.48813  -0.48722
 Alpha  occ. eigenvalues --   -0.48597  -0.48386  -0.48138  -0.47975  -0.47764
 Alpha  occ. eigenvalues --   -0.47612  -0.47120  -0.46967  -0.46902  -0.46622
 Alpha  occ. eigenvalues --   -0.46452  -0.46294  -0.45971  -0.45780  -0.45065
 Alpha  occ. eigenvalues --   -0.44969  -0.44776  -0.44518  -0.43927  -0.43754
 Alpha  occ. eigenvalues --   -0.43546  -0.43331  -0.42880  -0.42784  -0.42098
 Alpha  occ. eigenvalues --   -0.41432  -0.41036  -0.40894  -0.39052  -0.38807
 Alpha  occ. eigenvalues --   -0.37909  -0.36651  -0.34988  -0.34742  -0.33867
 Alpha  occ. eigenvalues --   -0.33418  -0.32542  -0.32159  -0.31926  -0.26529
 Alpha  occ. eigenvalues --   -0.21775
 Alpha virt. eigenvalues --   -0.08484  -0.01899  -0.00436   0.01362   0.01831
 Alpha virt. eigenvalues --    0.02839   0.03395   0.03502   0.03524   0.05338
 Alpha virt. eigenvalues --    0.06443   0.06910   0.07777   0.08120   0.08708

 Mulliken charges:
               1
     1  Mg   0.421272
     2  C   -0.058639
     3  C   -0.070458
     4  C   -0.067119
     5  C   -0.076431
     6  N   -0.280983
     7  C    0.142011
     8  C    0.017181
     9  C    0.004593
    10  C    0.105155
    11  C   -0.053211
    12  C   -0.018770
    13  C   -0.000184
    14  C    0.478906
    15  O   -0.525096
    16  O   -0.264093
    17  N   -0.328140
    18  C    0.094395
    19  C    0.021037
    20  C   -0.051690
    21  C    0.139411
    22  C   -0.037072
    23  C    0.317770
    24  O   -0.563161
    25  C   -0.037366
    26  N   -0.247277
    27  C    0.131925
    28  C   -0.001499
    29  C   -0.000210
    30  C    0.143263
    31  C   -0.055955
    32  C   -0.037089
    33  C   -0.063478
    34  N   -0.310680
    35  C    0.092688
    36  C    0.045603
    37  C   -0.045342
    38  C    0.126328
    39  C   -0.040828
    40  C    0.334799
    41  O   -0.519231
    42  C    0.066567
    43  C    0.503488
    44  O   -0.525002
    45  O   -0.281722
    46  C    0.068845
    47  C    0.105374
    48  C   -0.106977
    49  C   -0.006525
    50  C   -0.037520
    51  C   -0.022938
    52  C   -0.013718
    53  C   -0.034204
    54  C   -0.008823
    55  C   -0.062490
    56  C   -0.031440
    57  C   -0.050234
    58  C   -0.060482
    59  C   -0.014014
    60  C   -0.058617
    61  C   -0.041879
    62  C   -0.048217
    63  C   -0.041862
    64  C   -0.015573
    65  C   -0.056783
    66  C   -0.062380
    67  H    0.023470
    68  H    0.044526
    69  H    0.025299
    70  H    0.055090
    71  H    0.035143
    72  H    0.025120
    73  H    0.036537
    74  H    0.020936
    75  H    0.023339
    76  H    0.015504
    77  H    0.046010
    78  H    0.036060
    79  H    0.032084
    80  H    0.022161
    81  H    0.021430
    82  H    0.045907
    83  H    0.038559
    84  H    0.035581
    85  H    0.046128
    86  H    0.031330
    87  H    0.035870
    88  H    0.019908
    89  H    0.019267
    90  H    0.014458
    91  H    0.019635
    92  H    0.022478
    93  H    0.012804
    94  H    0.027808
    95  H    0.043382
    96  H    0.034615
    97  H    0.017031
    98  H    0.060296
    99  H    0.052165
   100  H    0.044858
   101  H    0.025428
   102  H    0.053274
   103  H    0.045783
   104  H    0.031060
   105  H    0.034037
   106  H    0.022164
   107  H    0.028261
   108  H    0.009387
   109  H    0.017763
   110  H    0.018990
   111  H    0.018284
   112  H    0.006694
   113  H    0.030068
   114  H    0.026861
   115  H    0.005246
   116  H    0.012108
   117  H    0.037613
   118  H    0.017094
   119  H    0.008383
   120  H    0.015575
   121  H    0.028287
   122  H    0.026093
   123  H    0.013303
   124  H    0.026961
   125  H    0.007411
   126  H    0.017328
   127  H    0.027419
   128  H    0.022821
   129  H    0.027333
   130  H    0.022766
   131  H    0.032228
   132  H    0.023574
   133  H    0.017730
   134  H    0.026962
   135  H    0.016937
   136  H    0.009249
   137  H    0.017059
   138  H    0.016412
   139  H    0.028823
   140  H    0.017232
 Sum of Mulliken charges =  -0.00000

 Dipole moment (field-independent basis, Debye):
    X=              5.5182    Y=              1.3132    Z=             -5.6849  Tot=              8.0308
 N-N= 4.300576612361D+03 E-N= 0.000000000000D+00  KE=-9.275885703513D+03
 Leave Link  601 at Fri Apr 29 01:24:35 2022, MaxMem=  6710886400 cpu:               0.8 elap:               0.0
 (Enter /sw/apps/gaussian-16.0/g16/l9999.exe)
 1\1\GINC-BP1-COMPUTE148\SP\RZINDO CIS\STO-3G\C55H74Mg1N4O6\OF15641\29-
 Apr-2022\0\\#p ZINDO=(nstates=5)\\step_1801_chromophore_21 ZINDO\\0,1\
 Mg,0,15.638,51.459,25.913\C,0,17.229,50.353,28.676\C,0,13.067,52.665,2
 7.879\C,0,13.968,52.121,23.062\C,0,17.996,49.857,23.881\N,0,15.241,51.
 589,28.069\C,0,16.087,51.136,29.03\C,0,15.695,51.563,30.395\C,0,14.225
 ,52.09,30.187\C,0,14.128,52.169,28.649\C,0,13.136,51.084,30.748\C,0,16
 .621,52.659,30.952\C,0,17.021,52.706,32.432\C,0,16.088,51.839,33.239\O

 Normal termination of Gaussian 16 at Fri Apr 29 01:24:36 2022.
