 Gaussian 16, Revision A.03,
 Gaussian 16:  ES64L-G16RevA.03 25-Dec-2016

 ------------------------------
 #p blyp/Def2SVP td=(nstates=5)
 ------------------------------

 --------------------------------------------------
 step_1151_chromophore_4 TDDFT with blyp functional
 --------------------------------------------------
 Symbolic Z-matrix:
 Charge =  0 Multiplicity = 1

                         Standard orientation:
 ---------------------------------------------------------------------
 Center     Atomic      Atomic             Coordinates (Angstroms)
 Number     Number       Type             X           Y           Z
 ---------------------------------------------------------------------
      1         12           0        5.842930    0.477739   -0.102039
      2          6           0        3.735132   -2.115687   -0.202930
      3          6           0        3.253492    2.694008   -0.802283
      4          6           0        8.179025    3.183638    0.174794
      5          6           0        8.677862   -1.709557    0.328578
      6          7           0        3.702379    0.272243   -0.689433
      7          6           0        3.066012   -0.884414   -0.465561
      8          6           0        1.555998   -0.559416   -0.443384
      9          6           0        1.434275    0.958709   -0.902598
     10          6           0        2.865792    1.361679   -0.808182
     11          6           0        0.726150    1.165062   -2.297245
     12          6           0        0.787614   -1.009510    0.855498
     13          6           0       -0.775893   -0.597285    0.834630
     14          6           0       -1.771924   -1.693688    0.473353
     15          8           0       -1.896135   -2.195632   -0.652374
     16          8           0       -2.646334   -2.033114    1.530696
     17          7           0        5.790789    2.538024   -0.326452
     18          6           0        4.603864    3.250965   -0.615902
     19          6           0        4.870307    4.722282   -0.511874
     20          6           0        6.305166    4.763947   -0.333344
     21          6           0        6.799976    3.465467   -0.160269
     22          6           0        3.804081    5.770303   -0.712475
     23          6           0        7.189490    6.041860   -0.274797
     24          8           0        8.394734    6.045868   -0.009843
     25          6           0        6.534605    7.372789   -0.439802
     26          7           0        8.261557    0.762466   -0.094949
     27          6           0        8.866968    1.965303    0.130038
     28          6           0       10.339263    1.730462    0.542498
     29          6           0       10.390175    0.200105    0.712989
     30          6           0        9.065175   -0.348674    0.261934
     31          6           0       11.335906    2.341320   -0.419696
     32          6           0       10.753526   -0.292983    2.142880
     33          6           0       11.753719   -1.499093    2.287672
     34          7           0        6.170079   -1.464733   -0.135489
     35          6           0        7.350419   -2.208905    0.197987
     36          6           0        6.991747   -3.611484    0.367057
     37          6           0        5.608571   -3.608876    0.125133
     38          6           0        5.162235   -2.266382   -0.090013
     39          6           0        7.756737   -4.731561    1.012124
     40          6           0        4.392744   -4.382960    0.212592
     41          8           0        4.326667   -5.603615    0.466916
     42          6           0        3.165558   -3.478247   -0.070111
     43          6           0        2.529795   -3.917098   -1.317361
     44          8           0        2.762637   -3.575390   -2.485105
     45          8           0        1.511981   -4.813249   -1.013219
     46          6           0        0.776819   -5.343352   -2.146251
     47          6           0       -3.671933   -3.092303    1.227193
     48          6           0       -5.097199   -2.485608    1.118440
     49          6           0       -6.287744   -3.037961    0.752990
     50          6           0       -6.512395   -4.560719    0.479075
     51          6           0       -7.502574   -2.146844    0.647382
     52          6           0       -7.794131   -1.606643   -0.797679
     53          6           0       -7.752514   -0.092402   -0.964626
     54          6           0       -9.167755    0.610925   -0.863209
     55          6           0       -9.554927    1.196968   -2.210894
     56          6           0       -9.239978    1.680740    0.226597
     57          6           0      -10.037781    1.292121    1.479737
     58          6           0      -10.849288    2.449000    2.066583
     59          6           0      -12.377352    1.990786    2.182179
     60          6           0      -12.937346    2.564905    3.543688
     61          6           0      -13.270582    2.563365    1.038058
     62          6           0      -14.715508    1.966885    0.985736
     63          6           0      -15.069353    1.907904   -0.536896
     64          6           0      -14.683170    0.545017   -1.215703
     65          6           0      -14.602989    0.574180   -2.750670
     66          6           0      -15.696623   -0.472124   -0.856386
     67          1           0        2.435887    3.403798   -0.945237
     68          1           0        8.862110    4.006371    0.393638
     69          1           0        9.457779   -2.418098    0.614126
     70          1           0        1.163926   -1.108744   -1.300353
     71          1           0        0.869669    1.520261   -0.157110
     72          1           0       -0.032040    0.403222   -2.478335
     73          1           0        1.480354    1.400625   -3.047616
     74          1           0        0.138054    2.067372   -2.127136
     75          1           0        1.228714   -0.567776    1.749573
     76          1           0        0.819901   -2.095504    0.942654
     77          1           0       -0.979949    0.183740    0.101749
     78          1           0       -0.950784   -0.149968    1.812883
     79          1           0        3.802822    6.358178    0.204317
     80          1           0        2.797268    5.484626   -1.017248
     81          1           0        4.038654    6.427604   -1.550058
     82          1           0        5.712029    7.413637    0.274165
     83          1           0        6.149607    7.413375   -1.458924
     84          1           0        7.216670    8.194774   -0.220324
     85          1           0       10.475219    2.052755    1.574841
     86          1           0       11.031212   -0.268287   -0.033278
     87          1           0       11.342405    3.419425   -0.263291
     88          1           0       11.076222    2.117426   -1.454486
     89          1           0       12.356107    2.038136   -0.181736
     90          1           0        9.813426   -0.664866    2.547805
     91          1           0       11.075025    0.527824    2.783994
     92          1           0       12.486932   -1.312222    3.071835
     93          1           0       12.267772   -1.818823    1.381832
     94          1           0       11.113455   -2.349084    2.524462
     95          1           0        8.541842   -5.075900    0.339133
     96          1           0        7.193192   -5.566727    1.427315
     97          1           0        8.271969   -4.216604    1.823134
     98          1           0        2.480477   -3.661550    0.758221
     99          1           0        0.198030   -6.243117   -1.935528
    100          1           0        1.490447   -5.489705   -2.957671
    101          1           0        0.156010   -4.474006   -2.362004
    102          1           0       -3.633181   -3.690819    2.136387
    103          1           0       -3.553493   -3.632381    0.288559
    104          1           0       -5.254831   -1.437286    1.368542
    105          1           0       -5.647024   -5.193349    0.676119
    106          1           0       -6.873800   -4.671505   -0.543320
    107          1           0       -7.315713   -4.800860    1.175151
    108          1           0       -7.486131   -1.414081    1.454410
    109          1           0       -8.370334   -2.787568    0.807865
    110          1           0       -8.710768   -1.994430   -1.241715
    111          1           0       -7.073669   -1.958650   -1.536204
    112          1           0       -7.205484    0.182330   -1.865975
    113          1           0       -7.118188    0.198502   -0.126953
    114          1           0       -9.936101   -0.125595   -0.624411
    115          1           0       -9.239079    2.237292   -2.130077
    116          1           0      -10.626174    1.394062   -2.242986
    117          1           0       -9.253114    0.730090   -3.148628
    118          1           0       -9.727318    2.568548   -0.176899
    119          1           0       -8.239387    2.009537    0.507558
    120          1           0       -9.360236    0.964166    2.267897
    121          1           0      -10.677323    0.443838    1.236130
    122          1           0      -10.728239    3.311858    1.411602
    123          1           0      -10.448370    2.731799    3.039856
    124          1           0      -12.294995    0.903978    2.203835
    125          1           0      -12.382628    3.459747    3.828805
    126          1           0      -12.633016    1.909589    4.360255
    127          1           0      -14.015683    2.712794    3.590360
    128          1           0      -12.836145    2.765194    0.059179
    129          1           0      -13.621426    3.546009    1.351202
    130          1           0      -15.420511    2.573253    1.555466
    131          1           0      -14.754568    0.998515    1.482735
    132          1           0      -14.524776    2.654534   -1.115104
    133          1           0      -16.143053    2.092139   -0.578613
    134          1           0      -13.722616    0.251189   -0.791546
    135          1           0      -15.577807    0.430474   -3.218153
    136          1           0      -13.904539   -0.174112   -3.123098
    137          1           0      -14.244879    1.567714   -3.019375
    138          1           0      -16.718236   -0.103001   -0.779577
    139          1           0      -15.455573   -0.782988    0.160103
    140          1           0      -15.624644   -1.372027   -1.466204
 ---------------------------------------------------------------------

 SCF Done:  E(RB-LYP) =  -3007.37906471     A.U. after   22 cycles

 Excitation energies and oscillator strengths:

 Excited State   1:      Singlet-A      1.7804 eV  696.36 nm  f=0.2249  <S**2>=0.000
     243 -> 247        0.24040
     244 -> 247        0.10067
     245 -> 247       -0.15850
     245 -> 248       -0.17457
     246 -> 247        0.62241
     246 <- 247       -0.13424
 This state for optimization and/or second-order correction.
 Total Energy, E(TD-HF/TD-DFT) =  -3007.31363442
 Copying the excited state density for this state as the 1-particle RhoCI density.

 Excited State   2:      Singlet-A      1.8220 eV  680.49 nm  f=0.0429  <S**2>=0.000
     243 -> 247        0.47142
     244 -> 247       -0.40763
     245 -> 247       -0.27115
     246 -> 247       -0.17851

 Excited State   3:      Singlet-A      1.8272 eV  678.54 nm  f=0.0503  <S**2>=0.000
     243 -> 247        0.29463
     244 -> 247        0.56831
     245 -> 247       -0.16780
     246 -> 247       -0.23756

 Excited State   4:      Singlet-A      2.0162 eV  614.93 nm  f=0.0779  <S**2>=0.000
     243 -> 247        0.35788
     245 -> 247        0.55657
     246 -> 248        0.23174

 Excited State   5:      Singlet-A      2.2566 eV  549.42 nm  f=0.0000  <S**2>=0.000
     242 -> 247        0.70710

 The electronic state is 1-A.
 Alpha  occ. eigenvalues --  -46.27590 -18.82293 -18.80653 -18.77455 -18.76169
 Alpha  occ. eigenvalues --  -18.75577 -18.75206 -14.03090 -14.02237 -14.01582
 Alpha  occ. eigenvalues --  -14.01530 -10.04938 -10.03327  -9.99921  -9.99331
 Alpha  occ. eigenvalues --   -9.98590  -9.97116  -9.96599  -9.96463  -9.96434
 Alpha  occ. eigenvalues --   -9.96284  -9.96234  -9.95705  -9.95635  -9.94962
 Alpha  occ. eigenvalues --   -9.94943  -9.94899  -9.94476  -9.94123  -9.94107
 Alpha  occ. eigenvalues --   -9.94099  -9.94005  -9.93892  -9.93728  -9.93659
 Alpha  occ. eigenvalues --   -9.93426  -9.93192  -9.93109  -9.92864  -9.92778
 Alpha  occ. eigenvalues --   -9.92745  -9.92727  -9.92632  -9.92604  -9.92583
 Alpha  occ. eigenvalues --   -9.92304  -9.92179  -9.91968  -9.91899  -9.91833
 Alpha  occ. eigenvalues --   -9.91800  -9.91768  -9.91629  -9.91514  -9.91501
 Alpha  occ. eigenvalues --   -9.91269  -9.91143  -9.91031  -9.91023  -9.90976
 Alpha  occ. eigenvalues --   -9.90952  -9.90873  -9.90783  -9.90723  -9.90691
 Alpha  occ. eigenvalues --   -9.90078  -2.92185  -1.72588  -1.72095  -1.71898
 Alpha  occ. eigenvalues --   -0.96437  -0.96303  -0.91085  -0.89750  -0.88972
 Alpha  occ. eigenvalues --   -0.88336  -0.86969  -0.85948  -0.84303  -0.83559
 Alpha  occ. eigenvalues --   -0.75763  -0.73446  -0.72834  -0.72353  -0.72153
 Alpha  occ. eigenvalues --   -0.72014  -0.71351  -0.70901  -0.70752  -0.70401
 Alpha  occ. eigenvalues --   -0.69954  -0.68716  -0.68065  -0.67280  -0.67065
 Alpha  occ. eigenvalues --   -0.66466  -0.65765  -0.65218  -0.64789  -0.64240
 Alpha  occ. eigenvalues --   -0.64038  -0.63038  -0.62589  -0.61743  -0.60666
 Alpha  occ. eigenvalues --   -0.60520  -0.60007  -0.59853  -0.59087  -0.58646
 Alpha  occ. eigenvalues --   -0.58402  -0.57816  -0.56876  -0.55999  -0.54333
 Alpha  occ. eigenvalues --   -0.53888  -0.53719  -0.52495  -0.51964  -0.51341
 Alpha  occ. eigenvalues --   -0.51149  -0.50707  -0.50440  -0.50366  -0.50184
 Alpha  occ. eigenvalues --   -0.49248  -0.48878  -0.48623  -0.47640  -0.46507
 Alpha  occ. eigenvalues --   -0.46022  -0.45802  -0.45346  -0.45242  -0.44678
 Alpha  occ. eigenvalues --   -0.44583  -0.43878  -0.43072  -0.42204  -0.41928
 Alpha  occ. eigenvalues --   -0.41611  -0.41573  -0.41435  -0.41222  -0.41180
 Alpha  occ. eigenvalues --   -0.40643  -0.40537  -0.39977  -0.39953  -0.39644
 Alpha  occ. eigenvalues --   -0.39455  -0.39296  -0.39280  -0.39171  -0.38876
 Alpha  occ. eigenvalues --   -0.38631  -0.38506  -0.38365  -0.38356  -0.38212
 Alpha  occ. eigenvalues --   -0.37973  -0.37820  -0.37727  -0.37575  -0.37341
 Alpha  occ. eigenvalues --   -0.37220  -0.37037  -0.36770  -0.36761  -0.36539
 Alpha  occ. eigenvalues --   -0.36490  -0.36302  -0.36042  -0.35944  -0.35717
 Alpha  occ. eigenvalues --   -0.35630  -0.35120  -0.35011  -0.34976  -0.34887
 Alpha  occ. eigenvalues --   -0.34559  -0.34404  -0.34317  -0.34192  -0.33946
 Alpha  occ. eigenvalues --   -0.33853  -0.33707  -0.33479  -0.33437  -0.32971
 Alpha  occ. eigenvalues --   -0.32819  -0.32751  -0.32577  -0.32547  -0.32207
 Alpha  occ. eigenvalues --   -0.32091  -0.31914  -0.31739  -0.31442  -0.31261
 Alpha  occ. eigenvalues --   -0.31182  -0.30992  -0.30742  -0.30691  -0.30667
 Alpha  occ. eigenvalues --   -0.30580  -0.30060  -0.29991  -0.29939  -0.29730
 Alpha  occ. eigenvalues --   -0.29516  -0.29428  -0.29094  -0.29022  -0.28897
 Alpha  occ. eigenvalues --   -0.28428  -0.28398  -0.28343  -0.27955  -0.27921
 Alpha  occ. eigenvalues --   -0.27504  -0.27382  -0.27226  -0.26501  -0.26405
 Alpha  occ. eigenvalues --   -0.26345  -0.26147  -0.26141  -0.25371  -0.24848
 Alpha  occ. eigenvalues --   -0.24648  -0.24212  -0.23778  -0.23663  -0.23550
 Alpha  occ. eigenvalues --   -0.22422  -0.22351  -0.21672  -0.21375  -0.21093
 Alpha  occ. eigenvalues --   -0.20528  -0.20035  -0.18477  -0.18317  -0.17113
 Alpha  occ. eigenvalues --   -0.15963
 Alpha virt. eigenvalues --   -0.11742  -0.06711  -0.06095  -0.04737  -0.03985
 Alpha virt. eigenvalues --   -0.02960  -0.02174  -0.01741  -0.01363   0.00129
 Alpha virt. eigenvalues --    0.01433   0.01647   0.01914   0.02302   0.02725

 Mulliken charges:
               1
     1  Mg   0.686586
     2  C    0.033359
     3  C   -0.037838
     4  C   -0.029363
     5  C   -0.058660
     6  N   -0.213122
     7  C   -0.062519
     8  C    0.057098
     9  C   -0.058664
    10  C    0.017926
    11  C    0.145407
    12  C    0.108839
    13  C    0.129709
    14  C    0.089671
    15  O   -0.204894
    16  O   -0.299986
    17  N   -0.300264
    18  C    0.127370
    19  C   -0.146620
    20  C    0.014194
    21  C    0.119744
    22  C    0.162973
    23  C   -0.062977
    24  O   -0.171759
    25  C    0.150937
    26  N   -0.188686
    27  C   -0.045255
    28  C    0.057580
    29  C    0.041731
    30  C   -0.016143
    31  C    0.151672
    32  C    0.070590
    33  C    0.057766
    34  N   -0.302653
    35  C    0.132307
    36  C   -0.190687
    37  C    0.120943
    38  C    0.057021
    39  C    0.185186
    40  C   -0.099821
    41  O   -0.159140
    42  C    0.096085
    43  C    0.123159
    44  O   -0.197934
    45  O   -0.284673
    46  C    0.224909
    47  C    0.332258
    48  C   -0.106050
    49  C   -0.192607
    50  C    0.134120
    51  C    0.154597
    52  C    0.063088
    53  C    0.109198
    54  C   -0.054944
    55  C    0.105204
    56  C    0.097868
    57  C    0.061523
    58  C    0.096191
    59  C   -0.057684
    60  C    0.090460
    61  C    0.079186
    62  C    0.060951
    63  C    0.091127
    64  C   -0.081917
    65  C    0.115159
    66  C    0.120255
    67  H   -0.072553
    68  H   -0.036721
    69  H   -0.063321
    70  H   -0.018794
    71  H   -0.023728
    72  H    0.016719
    73  H    0.011141
    74  H   -0.022315
    75  H   -0.014924
    76  H    0.007068
    77  H    0.007136
    78  H   -0.013172
    79  H    0.011258
    80  H   -0.010707
    81  H   -0.001792
    82  H   -0.002743
    83  H    0.009949
    84  H   -0.005554
    85  H   -0.034086
    86  H   -0.031343
    87  H   -0.001744
    88  H   -0.001697
    89  H   -0.014862
    90  H   -0.017713
    91  H   -0.015195
    92  H   -0.001606
    93  H   -0.006525
    94  H   -0.005543
    95  H   -0.002827
    96  H    0.020109
    97  H   -0.008158
    98  H    0.004366
    99  H    0.020027
   100  H    0.015696
   101  H    0.012122
   102  H    0.008641
   103  H    0.028660
   104  H   -0.041553
   105  H   -0.007815
   106  H    0.002540
   107  H    0.000091
   108  H   -0.007900
   109  H   -0.047197
   110  H   -0.035279
   111  H   -0.034201
   112  H   -0.033764
   113  H   -0.042897
   114  H   -0.036433
   115  H   -0.030710
   116  H   -0.029626
   117  H   -0.005515
   118  H   -0.044290
   119  H   -0.034598
   120  H   -0.032336
   121  H   -0.025264
   122  H   -0.033828
   123  H   -0.038299
   124  H   -0.024445
   125  H   -0.015750
   126  H   -0.031237
   127  H   -0.008173
   128  H   -0.019999
   129  H   -0.035947
   130  H   -0.024249
   131  H   -0.030853
   132  H   -0.033180
   133  H   -0.041609
   134  H   -0.037111
   135  H   -0.013786
   136  H   -0.009821
   137  H   -0.030070
   138  H   -0.018711
   139  H   -0.037425
   140  H   -0.023117
 Sum of Mulliken charges =  -0.00000

 Dipole moment (field-independent basis, Debye):
    X=             -2.9227    Y=              2.9164    Z=              3.1861  Tot=              5.2153
 Quadrupole moment (field-independent basis, Debye-Ang):
   XX=           -385.5016   YY=           -419.6704   ZZ=           -409.3073
   XY=             -1.4854   XZ=             14.6709   YZ=             -5.0292

 Normal termination of Gaussian 16 at Wed May  4 01:30:53 2022.
