 Gaussian 16, Revision A.03,
 Gaussian 16:  ES64L-G16RevA.03 25-Dec-2016

 -----------------------------------
 #p cam-b3lyp/Def2SVP td=(nstates=5)
 -----------------------------------

 -------------------------------------------------------
 step_1151_chromophore_4 TDDFT with cam-b3lyp functional
 -------------------------------------------------------
 Symbolic Z-matrix:
 Charge =  0 Multiplicity = 1

                         Standard orientation:
 ---------------------------------------------------------------------
 Center     Atomic      Atomic             Coordinates (Angstroms)
 Number     Number       Type             X           Y           Z
 ---------------------------------------------------------------------
      1         12           0        5.842930    0.477739   -0.102039
      2          6           0        3.735132   -2.115687   -0.202930
      3          6           0        3.253492    2.694008   -0.802283
      4          6           0        8.179025    3.183638    0.174794
      5          6           0        8.677862   -1.709557    0.328578
      6          7           0        3.702379    0.272243   -0.689433
      7          6           0        3.066012   -0.884414   -0.465561
      8          6           0        1.555998   -0.559416   -0.443384
      9          6           0        1.434275    0.958709   -0.902598
     10          6           0        2.865792    1.361679   -0.808182
     11          6           0        0.726150    1.165062   -2.297245
     12          6           0        0.787614   -1.009510    0.855498
     13          6           0       -0.775893   -0.597285    0.834630
     14          6           0       -1.771924   -1.693688    0.473353
     15          8           0       -1.896135   -2.195632   -0.652374
     16          8           0       -2.646334   -2.033114    1.530696
     17          7           0        5.790789    2.538024   -0.326452
     18          6           0        4.603864    3.250965   -0.615902
     19          6           0        4.870307    4.722282   -0.511874
     20          6           0        6.305166    4.763947   -0.333344
     21          6           0        6.799976    3.465467   -0.160269
     22          6           0        3.804081    5.770303   -0.712475
     23          6           0        7.189490    6.041860   -0.274797
     24          8           0        8.394734    6.045868   -0.009843
     25          6           0        6.534605    7.372789   -0.439802
     26          7           0        8.261557    0.762466   -0.094949
     27          6           0        8.866968    1.965303    0.130038
     28          6           0       10.339263    1.730462    0.542498
     29          6           0       10.390175    0.200105    0.712989
     30          6           0        9.065175   -0.348674    0.261934
     31          6           0       11.335906    2.341320   -0.419696
     32          6           0       10.753526   -0.292983    2.142880
     33          6           0       11.753719   -1.499093    2.287672
     34          7           0        6.170079   -1.464733   -0.135489
     35          6           0        7.350419   -2.208905    0.197987
     36          6           0        6.991747   -3.611484    0.367057
     37          6           0        5.608571   -3.608876    0.125133
     38          6           0        5.162235   -2.266382   -0.090013
     39          6           0        7.756737   -4.731561    1.012124
     40          6           0        4.392744   -4.382960    0.212592
     41          8           0        4.326667   -5.603615    0.466916
     42          6           0        3.165558   -3.478247   -0.070111
     43          6           0        2.529795   -3.917098   -1.317361
     44          8           0        2.762637   -3.575390   -2.485105
     45          8           0        1.511981   -4.813249   -1.013219
     46          6           0        0.776819   -5.343352   -2.146251
     47          6           0       -3.671933   -3.092303    1.227193
     48          6           0       -5.097199   -2.485608    1.118440
     49          6           0       -6.287744   -3.037961    0.752990
     50          6           0       -6.512395   -4.560719    0.479075
     51          6           0       -7.502574   -2.146844    0.647382
     52          6           0       -7.794131   -1.606643   -0.797679
     53          6           0       -7.752514   -0.092402   -0.964626
     54          6           0       -9.167755    0.610925   -0.863209
     55          6           0       -9.554927    1.196968   -2.210894
     56          6           0       -9.239978    1.680740    0.226597
     57          6           0      -10.037781    1.292121    1.479737
     58          6           0      -10.849288    2.449000    2.066583
     59          6           0      -12.377352    1.990786    2.182179
     60          6           0      -12.937346    2.564905    3.543688
     61          6           0      -13.270582    2.563365    1.038058
     62          6           0      -14.715508    1.966885    0.985736
     63          6           0      -15.069353    1.907904   -0.536896
     64          6           0      -14.683170    0.545017   -1.215703
     65          6           0      -14.602989    0.574180   -2.750670
     66          6           0      -15.696623   -0.472124   -0.856386
     67          1           0        2.435887    3.403798   -0.945237
     68          1           0        8.862110    4.006371    0.393638
     69          1           0        9.457779   -2.418098    0.614126
     70          1           0        1.163926   -1.108744   -1.300353
     71          1           0        0.869669    1.520261   -0.157110
     72          1           0       -0.032040    0.403222   -2.478335
     73          1           0        1.480354    1.400625   -3.047616
     74          1           0        0.138054    2.067372   -2.127136
     75          1           0        1.228714   -0.567776    1.749573
     76          1           0        0.819901   -2.095504    0.942654
     77          1           0       -0.979949    0.183740    0.101749
     78          1           0       -0.950784   -0.149968    1.812883
     79          1           0        3.802822    6.358178    0.204317
     80          1           0        2.797268    5.484626   -1.017248
     81          1           0        4.038654    6.427604   -1.550058
     82          1           0        5.712029    7.413637    0.274165
     83          1           0        6.149607    7.413375   -1.458924
     84          1           0        7.216670    8.194774   -0.220324
     85          1           0       10.475219    2.052755    1.574841
     86          1           0       11.031212   -0.268287   -0.033278
     87          1           0       11.342405    3.419425   -0.263291
     88          1           0       11.076222    2.117426   -1.454486
     89          1           0       12.356107    2.038136   -0.181736
     90          1           0        9.813426   -0.664866    2.547805
     91          1           0       11.075025    0.527824    2.783994
     92          1           0       12.486932   -1.312222    3.071835
     93          1           0       12.267772   -1.818823    1.381832
     94          1           0       11.113455   -2.349084    2.524462
     95          1           0        8.541842   -5.075900    0.339133
     96          1           0        7.193192   -5.566727    1.427315
     97          1           0        8.271969   -4.216604    1.823134
     98          1           0        2.480477   -3.661550    0.758221
     99          1           0        0.198030   -6.243117   -1.935528
    100          1           0        1.490447   -5.489705   -2.957671
    101          1           0        0.156010   -4.474006   -2.362004
    102          1           0       -3.633181   -3.690819    2.136387
    103          1           0       -3.553493   -3.632381    0.288559
    104          1           0       -5.254831   -1.437286    1.368542
    105          1           0       -5.647024   -5.193349    0.676119
    106          1           0       -6.873800   -4.671505   -0.543320
    107          1           0       -7.315713   -4.800860    1.175151
    108          1           0       -7.486131   -1.414081    1.454410
    109          1           0       -8.370334   -2.787568    0.807865
    110          1           0       -8.710768   -1.994430   -1.241715
    111          1           0       -7.073669   -1.958650   -1.536204
    112          1           0       -7.205484    0.182330   -1.865975
    113          1           0       -7.118188    0.198502   -0.126953
    114          1           0       -9.936101   -0.125595   -0.624411
    115          1           0       -9.239079    2.237292   -2.130077
    116          1           0      -10.626174    1.394062   -2.242986
    117          1           0       -9.253114    0.730090   -3.148628
    118          1           0       -9.727318    2.568548   -0.176899
    119          1           0       -8.239387    2.009537    0.507558
    120          1           0       -9.360236    0.964166    2.267897
    121          1           0      -10.677323    0.443838    1.236130
    122          1           0      -10.728239    3.311858    1.411602
    123          1           0      -10.448370    2.731799    3.039856
    124          1           0      -12.294995    0.903978    2.203835
    125          1           0      -12.382628    3.459747    3.828805
    126          1           0      -12.633016    1.909589    4.360255
    127          1           0      -14.015683    2.712794    3.590360
    128          1           0      -12.836145    2.765194    0.059179
    129          1           0      -13.621426    3.546009    1.351202
    130          1           0      -15.420511    2.573253    1.555466
    131          1           0      -14.754568    0.998515    1.482735
    132          1           0      -14.524776    2.654534   -1.115104
    133          1           0      -16.143053    2.092139   -0.578613
    134          1           0      -13.722616    0.251189   -0.791546
    135          1           0      -15.577807    0.430474   -3.218153
    136          1           0      -13.904539   -0.174112   -3.123098
    137          1           0      -14.244879    1.567714   -3.019375
    138          1           0      -16.718236   -0.103001   -0.779577
    139          1           0      -15.455573   -0.782988    0.160103
    140          1           0      -15.624644   -1.372027   -1.466204
 ---------------------------------------------------------------------

 SCF Done:  E(RCAM-B3LYP) =  -3007.15653537     A.U. after   19 cycles

 Excitation energies and oscillator strengths:

 Excited State   1:      Singlet-A      1.6609 eV  746.51 nm  f=0.3657  <S**2>=0.000
     245 -> 248        0.18703
     246 -> 247        0.68492
     245 <- 248        0.11405
 This state for optimization and/or second-order correction.
 Total Energy, E(TD-HF/TD-DFT) =  -3007.09549992
 Copying the excited state density for this state as the 1-particle RhoCI density.

 Excited State   2:      Singlet-A      2.1774 eV  569.41 nm  f=0.1515  <S**2>=0.000
     245 -> 247        0.65396
     246 -> 248       -0.26285

 Excited State   3:      Singlet-A      3.2795 eV  378.05 nm  f=0.0008  <S**2>=0.000
     240 -> 247        0.34161
     240 -> 249       -0.19619
     241 -> 247        0.46375
     241 -> 249       -0.24603
     241 -> 251        0.10860
     242 -> 247       -0.11752

 Excited State   4:      Singlet-A      3.3784 eV  367.00 nm  f=0.0009  <S**2>=0.000
     240 -> 247       -0.11444
     242 -> 247       -0.13320
     243 -> 247        0.66604

 Excited State   5:      Singlet-A      3.5579 eV  348.47 nm  f=0.1939  <S**2>=0.000
     239 -> 247        0.14825
     240 -> 247        0.38733
     241 -> 247       -0.27664
     242 -> 247        0.21544
     245 -> 247        0.12510
     246 -> 248        0.40912

 The electronic state is 1-A.
 Alpha  occ. eigenvalues --  -46.89208 -19.25150 -19.23604 -19.20485 -19.19417
 Alpha  occ. eigenvalues --  -19.18616 -19.18604 -14.41800 -14.41291 -14.40104
 Alpha  occ. eigenvalues --  -14.39980 -10.40396 -10.38979 -10.34990 -10.34894
 Alpha  occ. eigenvalues --  -10.32690 -10.31866 -10.31250 -10.31092 -10.30649
 Alpha  occ. eigenvalues --  -10.30513 -10.30222 -10.29988 -10.29752 -10.29564
 Alpha  occ. eigenvalues --  -10.29059 -10.28982 -10.28981 -10.28773 -10.28456
 Alpha  occ. eigenvalues --  -10.28240 -10.28200 -10.28054 -10.28051 -10.27402
 Alpha  occ. eigenvalues --  -10.27373 -10.27247 -10.27072 -10.26782 -10.26769
 Alpha  occ. eigenvalues --  -10.26700 -10.26599 -10.26412 -10.26385 -10.26308
 Alpha  occ. eigenvalues --  -10.26140 -10.26013 -10.25918 -10.25802 -10.25780
 Alpha  occ. eigenvalues --  -10.25465 -10.25425 -10.25312 -10.25281 -10.25214
 Alpha  occ. eigenvalues --  -10.25144 -10.24972 -10.24822 -10.24717 -10.24674
 Alpha  occ. eigenvalues --  -10.24579 -10.24498 -10.24424 -10.24302 -10.24258
 Alpha  occ. eigenvalues --  -10.23624  -3.17707  -1.92584  -1.92159  -1.92029
 Alpha  occ. eigenvalues --   -1.15044  -1.14721  -1.09316  -1.08295  -1.06767
 Alpha  occ. eigenvalues --   -1.06334  -1.04844  -1.03605  -1.01855  -1.00980
 Alpha  occ. eigenvalues --   -0.93071  -0.90287  -0.89628  -0.89110  -0.88907
 Alpha  occ. eigenvalues --   -0.88751  -0.88069  -0.87482  -0.87323  -0.87061
 Alpha  occ. eigenvalues --   -0.86451  -0.85029  -0.84319  -0.83571  -0.83190
 Alpha  occ. eigenvalues --   -0.82527  -0.81856  -0.81217  -0.80609  -0.80057
 Alpha  occ. eigenvalues --   -0.79825  -0.78780  -0.78210  -0.77248  -0.76021
 Alpha  occ. eigenvalues --   -0.75884  -0.75360  -0.75196  -0.74326  -0.73843
 Alpha  occ. eigenvalues --   -0.73479  -0.72852  -0.71770  -0.70817  -0.68988
 Alpha  occ. eigenvalues --   -0.68492  -0.68355  -0.66866  -0.66281  -0.65483
 Alpha  occ. eigenvalues --   -0.65370  -0.64871  -0.64443  -0.64374  -0.64197
 Alpha  occ. eigenvalues --   -0.63151  -0.62608  -0.62504  -0.61501  -0.59970
 Alpha  occ. eigenvalues --   -0.59698  -0.59522  -0.58753  -0.58604  -0.58298
 Alpha  occ. eigenvalues --   -0.58026  -0.57274  -0.56137  -0.55560  -0.55037
 Alpha  occ. eigenvalues --   -0.54749  -0.54366  -0.54250  -0.54188  -0.54105
 Alpha  occ. eigenvalues --   -0.53586  -0.53429  -0.52714  -0.52555  -0.52402
 Alpha  occ. eigenvalues --   -0.52181  -0.52064  -0.51771  -0.51647  -0.51404
 Alpha  occ. eigenvalues --   -0.51261  -0.51201  -0.51054  -0.50665  -0.50503
 Alpha  occ. eigenvalues --   -0.50213  -0.50048  -0.50031  -0.49805  -0.49643
 Alpha  occ. eigenvalues --   -0.49582  -0.49362  -0.49248  -0.49007  -0.48780
 Alpha  occ. eigenvalues --   -0.48650  -0.48477  -0.48316  -0.48051  -0.48002
 Alpha  occ. eigenvalues --   -0.47863  -0.47342  -0.47077  -0.47013  -0.46748
 Alpha  occ. eigenvalues --   -0.46533  -0.46372  -0.46135  -0.46105  -0.45952
 Alpha  occ. eigenvalues --   -0.45615  -0.45297  -0.45219  -0.45102  -0.44993
 Alpha  occ. eigenvalues --   -0.44435  -0.44312  -0.44304  -0.44250  -0.43894
 Alpha  occ. eigenvalues --   -0.43695  -0.43571  -0.43353  -0.43311  -0.42819
 Alpha  occ. eigenvalues --   -0.42698  -0.42652  -0.42387  -0.42198  -0.41920
 Alpha  occ. eigenvalues --   -0.41886  -0.41439  -0.41200  -0.41145  -0.41024
 Alpha  occ. eigenvalues --   -0.40682  -0.40655  -0.40474  -0.40287  -0.40080
 Alpha  occ. eigenvalues --   -0.39970  -0.39494  -0.39438  -0.38999  -0.38814
 Alpha  occ. eigenvalues --   -0.38389  -0.38185  -0.38053  -0.37717  -0.37245
 Alpha  occ. eigenvalues --   -0.37083  -0.36939  -0.36728  -0.36247  -0.35772
 Alpha  occ. eigenvalues --   -0.35737  -0.35215  -0.34649  -0.34558  -0.34186
 Alpha  occ. eigenvalues --   -0.33956  -0.33557  -0.32943  -0.30940  -0.30688
 Alpha  occ. eigenvalues --   -0.30585  -0.30345  -0.29681  -0.29616  -0.23793
 Alpha  occ. eigenvalues --   -0.21315
 Alpha virt. eigenvalues --   -0.09035  -0.01593   0.00411   0.01924   0.02391
 Alpha virt. eigenvalues --    0.03786   0.05344   0.05705   0.06089   0.06954
 Alpha virt. eigenvalues --    0.07450   0.07936   0.08089   0.08835   0.09113

 Mulliken charges:
               1
     1  Mg   0.817709
     2  C   -0.006895
     3  C   -0.052530
     4  C   -0.041301
     5  C   -0.067781
     6  N   -0.288670
     7  C   -0.004600
     8  C    0.001000
     9  C   -0.108336
    10  C    0.037205
    11  C    0.087674
    12  C    0.058791
    13  C    0.057053
    14  C    0.175154
    15  O   -0.246481
    16  O   -0.366331
    17  N   -0.386495
    18  C    0.136364
    19  C   -0.153589
    20  C   -0.057657
    21  C    0.140640
    22  C    0.102321
    23  C    0.019136
    24  O   -0.216132
    25  C    0.067915
    26  N   -0.248755
    27  C   -0.024587
    28  C   -0.002674
    29  C   -0.017002
    30  C    0.010061
    31  C    0.093016
    32  C    0.010458
    33  C   -0.002621
    34  N   -0.397253
    35  C    0.136395
    36  C   -0.174590
    37  C    0.046150
    38  C    0.100086
    39  C    0.125557
    40  C   -0.002660
    41  O   -0.195950
    42  C    0.013664
    43  C    0.215521
    44  O   -0.233836
    45  O   -0.347932
    46  C    0.182190
    47  C    0.301815
    48  C   -0.130041
    49  C   -0.212734
    50  C    0.078233
    51  C    0.087661
    52  C    0.012337
    53  C    0.057341
    54  C   -0.112187
    55  C    0.048363
    56  C    0.043478
    57  C    0.009732
    58  C    0.044782
    59  C   -0.111324
    60  C    0.031667
    61  C    0.024802
    62  C    0.011727
    63  C    0.034702
    64  C   -0.139275
    65  C    0.055597
    66  C    0.057241
    67  H   -0.038509
    68  H    0.005390
    69  H   -0.025727
    70  H    0.017124
    71  H    0.009904
    72  H    0.039790
    73  H    0.037575
    74  H    0.001461
    75  H    0.016334
    76  H    0.032047
    77  H    0.036081
    78  H    0.024783
    79  H    0.034622
    80  H    0.017541
    81  H    0.022887
    82  H    0.022883
    83  H    0.036062
    84  H    0.029240
    85  H    0.001836
    86  H    0.003902
    87  H    0.022829
    88  H    0.022916
    89  H    0.010110
    90  H    0.012539
    91  H    0.013792
    92  H    0.023762
    93  H    0.016583
    94  H    0.013732
    95  H    0.024470
    96  H    0.050669
    97  H    0.016108
    98  H    0.049435
    99  H    0.043243
   100  H    0.041032
   101  H    0.035023
   102  H    0.036836
   103  H    0.058566
   104  H   -0.009603
   105  H    0.015726
   106  H    0.025413
   107  H    0.022977
   108  H    0.020116
   109  H   -0.014902
   110  H   -0.007296
   111  H   -0.003580
   112  H   -0.003167
   113  H   -0.016447
   114  H   -0.006031
   115  H   -0.006382
   116  H   -0.006970
   117  H    0.019447
   118  H   -0.015990
   119  H   -0.004816
   120  H   -0.004579
   121  H   -0.000282
   122  H   -0.005608
   123  H   -0.007682
   124  H    0.004717
   125  H    0.008196
   126  H   -0.004968
   127  H    0.014434
   128  H    0.004381
   129  H   -0.005349
   130  H    0.003700
   131  H   -0.004607
   132  H   -0.005981
   133  H   -0.011902
   134  H   -0.008051
   135  H    0.010268
   136  H    0.014422
   137  H   -0.006807
   138  H    0.005847
   139  H   -0.012226
   140  H    0.003390
 Sum of Mulliken charges =  -0.00000

 Dipole moment (field-independent basis, Debye):
    X=             -2.8638    Y=              2.8494    Z=              3.3975  Tot=              5.2786
 Quadrupole moment (field-independent basis, Debye-Ang):
   XX=           -382.3471   YY=           -416.5225   ZZ=           -409.6425
   XY=             -3.4293   XZ=             16.4549   YZ=             -5.3220

 Normal termination of Gaussian 16 at Wed May  4 00:33:14 2022.
