 Gaussian 16, Revision A.03,
 Gaussian 16:  ES64L-G16RevA.03 25-Dec-2016

 ---------------------------------
 #p PBE1PBE/Def2SVP td=(nstates=5)
 ---------------------------------

 -----------------------------------------------------
 step_1151_chromophore_4 TDDFT with PBE1PBE functional
 -----------------------------------------------------
 Symbolic Z-matrix:
 Charge =  0 Multiplicity = 1

                         Standard orientation:
 ---------------------------------------------------------------------
 Center     Atomic      Atomic             Coordinates (Angstroms)
 Number     Number       Type             X           Y           Z
 ---------------------------------------------------------------------
      1         12           0        5.842930    0.477739   -0.102039
      2          6           0        3.735132   -2.115687   -0.202930
      3          6           0        3.253492    2.694008   -0.802283
      4          6           0        8.179025    3.183638    0.174794
      5          6           0        8.677862   -1.709557    0.328578
      6          7           0        3.702379    0.272243   -0.689433
      7          6           0        3.066012   -0.884414   -0.465561
      8          6           0        1.555998   -0.559416   -0.443384
      9          6           0        1.434275    0.958709   -0.902598
     10          6           0        2.865792    1.361679   -0.808182
     11          6           0        0.726150    1.165062   -2.297245
     12          6           0        0.787614   -1.009510    0.855498
     13          6           0       -0.775893   -0.597285    0.834630
     14          6           0       -1.771924   -1.693688    0.473353
     15          8           0       -1.896135   -2.195632   -0.652374
     16          8           0       -2.646334   -2.033114    1.530696
     17          7           0        5.790789    2.538024   -0.326452
     18          6           0        4.603864    3.250965   -0.615902
     19          6           0        4.870307    4.722282   -0.511874
     20          6           0        6.305166    4.763947   -0.333344
     21          6           0        6.799976    3.465467   -0.160269
     22          6           0        3.804081    5.770303   -0.712475
     23          6           0        7.189490    6.041860   -0.274797
     24          8           0        8.394734    6.045868   -0.009843
     25          6           0        6.534605    7.372789   -0.439802
     26          7           0        8.261557    0.762466   -0.094949
     27          6           0        8.866968    1.965303    0.130038
     28          6           0       10.339263    1.730462    0.542498
     29          6           0       10.390175    0.200105    0.712989
     30          6           0        9.065175   -0.348674    0.261934
     31          6           0       11.335906    2.341320   -0.419696
     32          6           0       10.753526   -0.292983    2.142880
     33          6           0       11.753719   -1.499093    2.287672
     34          7           0        6.170079   -1.464733   -0.135489
     35          6           0        7.350419   -2.208905    0.197987
     36          6           0        6.991747   -3.611484    0.367057
     37          6           0        5.608571   -3.608876    0.125133
     38          6           0        5.162235   -2.266382   -0.090013
     39          6           0        7.756737   -4.731561    1.012124
     40          6           0        4.392744   -4.382960    0.212592
     41          8           0        4.326667   -5.603615    0.466916
     42          6           0        3.165558   -3.478247   -0.070111
     43          6           0        2.529795   -3.917098   -1.317361
     44          8           0        2.762637   -3.575390   -2.485105
     45          8           0        1.511981   -4.813249   -1.013219
     46          6           0        0.776819   -5.343352   -2.146251
     47          6           0       -3.671933   -3.092303    1.227193
     48          6           0       -5.097199   -2.485608    1.118440
     49          6           0       -6.287744   -3.037961    0.752990
     50          6           0       -6.512395   -4.560719    0.479075
     51          6           0       -7.502574   -2.146844    0.647382
     52          6           0       -7.794131   -1.606643   -0.797679
     53          6           0       -7.752514   -0.092402   -0.964626
     54          6           0       -9.167755    0.610925   -0.863209
     55          6           0       -9.554927    1.196968   -2.210894
     56          6           0       -9.239978    1.680740    0.226597
     57          6           0      -10.037781    1.292121    1.479737
     58          6           0      -10.849288    2.449000    2.066583
     59          6           0      -12.377352    1.990786    2.182179
     60          6           0      -12.937346    2.564905    3.543688
     61          6           0      -13.270582    2.563365    1.038058
     62          6           0      -14.715508    1.966885    0.985736
     63          6           0      -15.069353    1.907904   -0.536896
     64          6           0      -14.683170    0.545017   -1.215703
     65          6           0      -14.602989    0.574180   -2.750670
     66          6           0      -15.696623   -0.472124   -0.856386
     67          1           0        2.435887    3.403798   -0.945237
     68          1           0        8.862110    4.006371    0.393638
     69          1           0        9.457779   -2.418098    0.614126
     70          1           0        1.163926   -1.108744   -1.300353
     71          1           0        0.869669    1.520261   -0.157110
     72          1           0       -0.032040    0.403222   -2.478335
     73          1           0        1.480354    1.400625   -3.047616
     74          1           0        0.138054    2.067372   -2.127136
     75          1           0        1.228714   -0.567776    1.749573
     76          1           0        0.819901   -2.095504    0.942654
     77          1           0       -0.979949    0.183740    0.101749
     78          1           0       -0.950784   -0.149968    1.812883
     79          1           0        3.802822    6.358178    0.204317
     80          1           0        2.797268    5.484626   -1.017248
     81          1           0        4.038654    6.427604   -1.550058
     82          1           0        5.712029    7.413637    0.274165
     83          1           0        6.149607    7.413375   -1.458924
     84          1           0        7.216670    8.194774   -0.220324
     85          1           0       10.475219    2.052755    1.574841
     86          1           0       11.031212   -0.268287   -0.033278
     87          1           0       11.342405    3.419425   -0.263291
     88          1           0       11.076222    2.117426   -1.454486
     89          1           0       12.356107    2.038136   -0.181736
     90          1           0        9.813426   -0.664866    2.547805
     91          1           0       11.075025    0.527824    2.783994
     92          1           0       12.486932   -1.312222    3.071835
     93          1           0       12.267772   -1.818823    1.381832
     94          1           0       11.113455   -2.349084    2.524462
     95          1           0        8.541842   -5.075900    0.339133
     96          1           0        7.193192   -5.566727    1.427315
     97          1           0        8.271969   -4.216604    1.823134
     98          1           0        2.480477   -3.661550    0.758221
     99          1           0        0.198030   -6.243117   -1.935528
    100          1           0        1.490447   -5.489705   -2.957671
    101          1           0        0.156010   -4.474006   -2.362004
    102          1           0       -3.633181   -3.690819    2.136387
    103          1           0       -3.553493   -3.632381    0.288559
    104          1           0       -5.254831   -1.437286    1.368542
    105          1           0       -5.647024   -5.193349    0.676119
    106          1           0       -6.873800   -4.671505   -0.543320
    107          1           0       -7.315713   -4.800860    1.175151
    108          1           0       -7.486131   -1.414081    1.454410
    109          1           0       -8.370334   -2.787568    0.807865
    110          1           0       -8.710768   -1.994430   -1.241715
    111          1           0       -7.073669   -1.958650   -1.536204
    112          1           0       -7.205484    0.182330   -1.865975
    113          1           0       -7.118188    0.198502   -0.126953
    114          1           0       -9.936101   -0.125595   -0.624411
    115          1           0       -9.239079    2.237292   -2.130077
    116          1           0      -10.626174    1.394062   -2.242986
    117          1           0       -9.253114    0.730090   -3.148628
    118          1           0       -9.727318    2.568548   -0.176899
    119          1           0       -8.239387    2.009537    0.507558
    120          1           0       -9.360236    0.964166    2.267897
    121          1           0      -10.677323    0.443838    1.236130
    122          1           0      -10.728239    3.311858    1.411602
    123          1           0      -10.448370    2.731799    3.039856
    124          1           0      -12.294995    0.903978    2.203835
    125          1           0      -12.382628    3.459747    3.828805
    126          1           0      -12.633016    1.909589    4.360255
    127          1           0      -14.015683    2.712794    3.590360
    128          1           0      -12.836145    2.765194    0.059179
    129          1           0      -13.621426    3.546009    1.351202
    130          1           0      -15.420511    2.573253    1.555466
    131          1           0      -14.754568    0.998515    1.482735
    132          1           0      -14.524776    2.654534   -1.115104
    133          1           0      -16.143053    2.092139   -0.578613
    134          1           0      -13.722616    0.251189   -0.791546
    135          1           0      -15.577807    0.430474   -3.218153
    136          1           0      -13.904539   -0.174112   -3.123098
    137          1           0      -14.244879    1.567714   -3.019375
    138          1           0      -16.718236   -0.103001   -0.779577
    139          1           0      -15.455573   -0.782988    0.160103
    140          1           0      -15.624644   -1.372027   -1.466204
 ---------------------------------------------------------------------

 SCF Done:  E(RPBE1PBE) =  -3005.34613277     A.U. after   16 cycles

 Excitation energies and oscillator strengths:

 Excited State   1:      Singlet-A      1.8268 eV  678.68 nm  f=0.3539  <S**2>=0.000
     245 -> 248       -0.18144
     246 -> 247        0.69169
     246 <- 247       -0.10723
 This state for optimization and/or second-order correction.
 Total Energy, E(TD-HF/TD-DFT) =  -3005.27899799
 Copying the excited state density for this state as the 1-particle RhoCI density.

 Excited State   2:      Singlet-A      2.1875 eV  566.79 nm  f=0.1417  <S**2>=0.000
     245 -> 247        0.66140
     246 -> 248        0.24448

 Excited State   3:      Singlet-A      2.8159 eV  440.30 nm  f=0.0004  <S**2>=0.000
     242 -> 247        0.66355
     242 -> 249        0.17326
     243 -> 247        0.11697

 Excited State   4:      Singlet-A      2.9699 eV  417.47 nm  f=0.0030  <S**2>=0.000
     241 -> 247        0.10626
     242 -> 247       -0.12500
     243 -> 247        0.66502

 Excited State   5:      Singlet-A      3.0512 eV  406.35 nm  f=0.0015  <S**2>=0.000
     241 -> 247        0.67953
     243 -> 247       -0.13437

 The electronic state is 1-A.
 Alpha  occ. eigenvalues --  -46.92601 -19.25880 -19.24226 -19.20757 -19.19584
 Alpha  occ. eigenvalues --  -19.18974 -19.18717 -14.41416 -14.40703 -14.39746
 Alpha  occ. eigenvalues --  -14.39651 -10.37440 -10.35920 -10.32258 -10.31939
 Alpha  occ. eigenvalues --  -10.30117 -10.29472 -10.28841 -10.28754 -10.28612
 Alpha  occ. eigenvalues --  -10.28335 -10.27815 -10.27624 -10.27407 -10.27047
 Alpha  occ. eigenvalues --  -10.26754 -10.26664 -10.26504 -10.26418 -10.26045
 Alpha  occ. eigenvalues --  -10.26003 -10.25966 -10.25914 -10.25652 -10.25210
 Alpha  occ. eigenvalues --  -10.24968 -10.24925 -10.24878 -10.24651 -10.24568
 Alpha  occ. eigenvalues --  -10.24223 -10.24133 -10.23985 -10.23955 -10.23789
 Alpha  occ. eigenvalues --  -10.23682 -10.23580 -10.23346 -10.23331 -10.23175
 Alpha  occ. eigenvalues --  -10.23172 -10.22913 -10.22899 -10.22896 -10.22787
 Alpha  occ. eigenvalues --  -10.22707 -10.22572 -10.22415 -10.22314 -10.22251
 Alpha  occ. eigenvalues --  -10.22052 -10.22004 -10.22001 -10.21684 -10.21664
 Alpha  occ. eigenvalues --  -10.20985  -3.14683  -1.87499  -1.87051  -1.86928
 Alpha  occ. eigenvalues --   -1.09740  -1.09506  -1.04151  -1.02891  -1.01638
 Alpha  occ. eigenvalues --   -1.01081  -0.99419  -0.98247  -0.96492  -0.95678
 Alpha  occ. eigenvalues --   -0.87360  -0.84386  -0.83720  -0.83328  -0.83102
 Alpha  occ. eigenvalues --   -0.82937  -0.82330  -0.81815  -0.81446  -0.81332
 Alpha  occ. eigenvalues --   -0.80815  -0.79310  -0.78501  -0.77809  -0.77474
 Alpha  occ. eigenvalues --   -0.76732  -0.76107  -0.75463  -0.74841  -0.74377
 Alpha  occ. eigenvalues --   -0.74025  -0.73109  -0.72483  -0.71587  -0.70278
 Alpha  occ. eigenvalues --   -0.70122  -0.69490  -0.69438  -0.68491  -0.68005
 Alpha  occ. eigenvalues --   -0.67867  -0.67261  -0.66145  -0.65195  -0.63279
 Alpha  occ. eigenvalues --   -0.62870  -0.62647  -0.61123  -0.60753  -0.59980
 Alpha  occ. eigenvalues --   -0.59548  -0.59367  -0.58948  -0.58811  -0.58516
 Alpha  occ. eigenvalues --   -0.57416  -0.57062  -0.56681  -0.56004  -0.54653
 Alpha  occ. eigenvalues --   -0.54223  -0.54064  -0.53291  -0.53021  -0.52703
 Alpha  occ. eigenvalues --   -0.52439  -0.51858  -0.50746  -0.49979  -0.49627
 Alpha  occ. eigenvalues --   -0.49299  -0.48785  -0.48719  -0.48682  -0.48550
 Alpha  occ. eigenvalues --   -0.48105  -0.47889  -0.47263  -0.47056  -0.46959
 Alpha  occ. eigenvalues --   -0.46721  -0.46649  -0.46338  -0.46106  -0.45827
 Alpha  occ. eigenvalues --   -0.45797  -0.45756  -0.45639  -0.45264  -0.45066
 Alpha  occ. eigenvalues --   -0.44914  -0.44669  -0.44582  -0.44429  -0.44197
 Alpha  occ. eigenvalues --   -0.44088  -0.43988  -0.43885  -0.43653  -0.43344
 Alpha  occ. eigenvalues --   -0.43328  -0.43144  -0.42962  -0.42713  -0.42628
 Alpha  occ. eigenvalues --   -0.42464  -0.41991  -0.41736  -0.41695  -0.41382
 Alpha  occ. eigenvalues --   -0.41256  -0.41155  -0.40897  -0.40766  -0.40653
 Alpha  occ. eigenvalues --   -0.40292  -0.40034  -0.39994  -0.39730  -0.39697
 Alpha  occ. eigenvalues --   -0.39262  -0.39025  -0.39008  -0.38926  -0.38702
 Alpha  occ. eigenvalues --   -0.38478  -0.38308  -0.38095  -0.38018  -0.37589
 Alpha  occ. eigenvalues --   -0.37500  -0.37439  -0.37179  -0.37094  -0.36791
 Alpha  occ. eigenvalues --   -0.36612  -0.36355  -0.36109  -0.35894  -0.35872
 Alpha  occ. eigenvalues --   -0.35622  -0.35397  -0.35273  -0.35141  -0.34867
 Alpha  occ. eigenvalues --   -0.34735  -0.34401  -0.34246  -0.33983  -0.33635
 Alpha  occ. eigenvalues --   -0.33361  -0.32983  -0.32860  -0.32761  -0.32057
 Alpha  occ. eigenvalues --   -0.31923  -0.31828  -0.31758  -0.31175  -0.30796
 Alpha  occ. eigenvalues --   -0.30668  -0.30062  -0.29600  -0.29369  -0.29123
 Alpha  occ. eigenvalues --   -0.28843  -0.28598  -0.28399  -0.26543  -0.26161
 Alpha  occ. eigenvalues --   -0.25568  -0.25338  -0.25256  -0.24902  -0.20796
 Alpha  occ. eigenvalues --   -0.18941
 Alpha virt. eigenvalues --   -0.11430  -0.05094  -0.03813  -0.02101  -0.00910
 Alpha virt. eigenvalues --   -0.00697   0.00796   0.01301   0.01507   0.03122
 Alpha virt. eigenvalues --    0.04325   0.04338   0.04604   0.05255   0.05556

 Mulliken charges:
               1
     1  Mg   0.961937
     2  C   -0.017865
     3  C   -0.045865
     4  C   -0.036337
     5  C   -0.058640
     6  N   -0.392988
     7  C    0.076052
     8  C   -0.065895
     9  C   -0.182076
    10  C    0.073556
    11  C    0.028865
    12  C   -0.002552
    13  C   -0.018823
    14  C    0.241748
    15  O   -0.278145
    16  O   -0.395172
    17  N   -0.502557
    18  C    0.162460
    19  C   -0.173194
    20  C   -0.110859
    21  C    0.174253
    22  C    0.039547
    23  C    0.072030
    24  O   -0.252731
    25  C   -0.008603
    26  N   -0.343629
    27  C    0.024024
    28  C   -0.092220
    29  C   -0.085724
    30  C    0.048919
    31  C    0.032476
    32  C   -0.053117
    33  C   -0.073654
    34  N   -0.532131
    35  C    0.142567
    36  C   -0.185140
    37  C    0.002180
    38  C    0.155416
    39  C    0.065440
    40  C    0.090957
    41  O   -0.241054
    42  C   -0.101409
    43  C    0.308322
    44  O   -0.268535
    45  O   -0.380099
    46  C    0.127464
    47  C    0.257462
    48  C   -0.136598
    49  C   -0.255124
    50  C    0.014831
    51  C    0.015740
    52  C   -0.043471
    53  C    0.003831
    54  C   -0.199122
    55  C   -0.014883
    56  C   -0.009899
    57  C   -0.051729
    58  C   -0.003627
    59  C   -0.200449
    60  C   -0.030805
    61  C   -0.030561
    62  C   -0.044353
    63  C   -0.025395
    64  C   -0.233773
    65  C   -0.007137
    66  C   -0.001935
    67  H   -0.005070
    68  H    0.037600
    69  H    0.007473
    70  H    0.058262
    71  H    0.047289
    72  H    0.065961
    73  H    0.064969
    74  H    0.029239
    75  H    0.048430
    76  H    0.068511
    77  H    0.068773
    78  H    0.056423
    79  H    0.063278
    80  H    0.044104
    81  H    0.051432
    82  H    0.050820
    83  H    0.063374
    84  H    0.057288
    85  H    0.040554
    86  H    0.042647
    87  H    0.050880
    88  H    0.050723
    89  H    0.039427
    90  H    0.047704
    91  H    0.044888
    92  H    0.051292
    93  H    0.043194
    94  H    0.040718
    95  H    0.052132
    96  H    0.076192
    97  H    0.043517
    98  H    0.084946
    99  H    0.064961
   100  H    0.062747
   101  H    0.057825
   102  H    0.064331
   103  H    0.083860
   104  H    0.020403
   105  H    0.042545
   106  H    0.053231
   107  H    0.050795
   108  H    0.050679
   109  H    0.019484
   110  H    0.024326
   111  H    0.029218
   112  H    0.028245
   113  H    0.017777
   114  H    0.031814
   115  H    0.022610
   116  H    0.023190
   117  H    0.046330
   118  H    0.016647
   119  H    0.027458
   120  H    0.029109
   121  H    0.030478
   122  H    0.025819
   123  H    0.024610
   124  H    0.041122
   125  H    0.035947
   126  H    0.024425
   127  H    0.041920
   128  H    0.035197
   129  H    0.029805
   130  H    0.034707
   131  H    0.027536
   132  H    0.026138
   133  H    0.021091
   134  H    0.031409
   135  H    0.037860
   136  H    0.042202
   137  H    0.020954
   138  H    0.033090
   139  H    0.016778
   140  H    0.032152
 Sum of Mulliken charges =  -0.00000

 Dipole moment (field-independent basis, Debye):
    X=             -2.9472    Y=              3.2219    Z=              3.3965  Tot=              5.5320
 Quadrupole moment (field-independent basis, Debye-Ang):
   XX=           -377.5264   YY=           -413.2218   ZZ=           -407.1575
   XY=             -1.9848   XZ=             16.9329   YZ=             -5.5218

 Normal termination of Gaussian 16 at Wed May  4 00:49:04 2022.
