 Gaussian 16, Revision A.03,
 Gaussian 16:  ES64L-G16RevA.03 25-Dec-2016

 --------------------------------
 #p wB97XD/Def2SVP td=(nstates=5)
 --------------------------------

 ----------------------------------------------------
 step_1151_chromophore_4 TDDFT with wB97XD functional
 ----------------------------------------------------
 Symbolic Z-matrix:
 Charge =  0 Multiplicity = 1

                         Standard orientation:
 ---------------------------------------------------------------------
 Center     Atomic      Atomic             Coordinates (Angstroms)
 Number     Number       Type             X           Y           Z
 ---------------------------------------------------------------------
      1         12           0        5.842930    0.477739   -0.102039
      2          6           0        3.735132   -2.115687   -0.202930
      3          6           0        3.253492    2.694008   -0.802283
      4          6           0        8.179025    3.183638    0.174794
      5          6           0        8.677862   -1.709557    0.328578
      6          7           0        3.702379    0.272243   -0.689433
      7          6           0        3.066012   -0.884414   -0.465561
      8          6           0        1.555998   -0.559416   -0.443384
      9          6           0        1.434275    0.958709   -0.902598
     10          6           0        2.865792    1.361679   -0.808182
     11          6           0        0.726150    1.165062   -2.297245
     12          6           0        0.787614   -1.009510    0.855498
     13          6           0       -0.775893   -0.597285    0.834630
     14          6           0       -1.771924   -1.693688    0.473353
     15          8           0       -1.896135   -2.195632   -0.652374
     16          8           0       -2.646334   -2.033114    1.530696
     17          7           0        5.790789    2.538024   -0.326452
     18          6           0        4.603864    3.250965   -0.615902
     19          6           0        4.870307    4.722282   -0.511874
     20          6           0        6.305166    4.763947   -0.333344
     21          6           0        6.799976    3.465467   -0.160269
     22          6           0        3.804081    5.770303   -0.712475
     23          6           0        7.189490    6.041860   -0.274797
     24          8           0        8.394734    6.045868   -0.009843
     25          6           0        6.534605    7.372789   -0.439802
     26          7           0        8.261557    0.762466   -0.094949
     27          6           0        8.866968    1.965303    0.130038
     28          6           0       10.339263    1.730462    0.542498
     29          6           0       10.390175    0.200105    0.712989
     30          6           0        9.065175   -0.348674    0.261934
     31          6           0       11.335906    2.341320   -0.419696
     32          6           0       10.753526   -0.292983    2.142880
     33          6           0       11.753719   -1.499093    2.287672
     34          7           0        6.170079   -1.464733   -0.135489
     35          6           0        7.350419   -2.208905    0.197987
     36          6           0        6.991747   -3.611484    0.367057
     37          6           0        5.608571   -3.608876    0.125133
     38          6           0        5.162235   -2.266382   -0.090013
     39          6           0        7.756737   -4.731561    1.012124
     40          6           0        4.392744   -4.382960    0.212592
     41          8           0        4.326667   -5.603615    0.466916
     42          6           0        3.165558   -3.478247   -0.070111
     43          6           0        2.529795   -3.917098   -1.317361
     44          8           0        2.762637   -3.575390   -2.485105
     45          8           0        1.511981   -4.813249   -1.013219
     46          6           0        0.776819   -5.343352   -2.146251
     47          6           0       -3.671933   -3.092303    1.227193
     48          6           0       -5.097199   -2.485608    1.118440
     49          6           0       -6.287744   -3.037961    0.752990
     50          6           0       -6.512395   -4.560719    0.479075
     51          6           0       -7.502574   -2.146844    0.647382
     52          6           0       -7.794131   -1.606643   -0.797679
     53          6           0       -7.752514   -0.092402   -0.964626
     54          6           0       -9.167755    0.610925   -0.863209
     55          6           0       -9.554927    1.196968   -2.210894
     56          6           0       -9.239978    1.680740    0.226597
     57          6           0      -10.037781    1.292121    1.479737
     58          6           0      -10.849288    2.449000    2.066583
     59          6           0      -12.377352    1.990786    2.182179
     60          6           0      -12.937346    2.564905    3.543688
     61          6           0      -13.270582    2.563365    1.038058
     62          6           0      -14.715508    1.966885    0.985736
     63          6           0      -15.069353    1.907904   -0.536896
     64          6           0      -14.683170    0.545017   -1.215703
     65          6           0      -14.602989    0.574180   -2.750670
     66          6           0      -15.696623   -0.472124   -0.856386
     67          1           0        2.435887    3.403798   -0.945237
     68          1           0        8.862110    4.006371    0.393638
     69          1           0        9.457779   -2.418098    0.614126
     70          1           0        1.163926   -1.108744   -1.300353
     71          1           0        0.869669    1.520261   -0.157110
     72          1           0       -0.032040    0.403222   -2.478335
     73          1           0        1.480354    1.400625   -3.047616
     74          1           0        0.138054    2.067372   -2.127136
     75          1           0        1.228714   -0.567776    1.749573
     76          1           0        0.819901   -2.095504    0.942654
     77          1           0       -0.979949    0.183740    0.101749
     78          1           0       -0.950784   -0.149968    1.812883
     79          1           0        3.802822    6.358178    0.204317
     80          1           0        2.797268    5.484626   -1.017248
     81          1           0        4.038654    6.427604   -1.550058
     82          1           0        5.712029    7.413637    0.274165
     83          1           0        6.149607    7.413375   -1.458924
     84          1           0        7.216670    8.194774   -0.220324
     85          1           0       10.475219    2.052755    1.574841
     86          1           0       11.031212   -0.268287   -0.033278
     87          1           0       11.342405    3.419425   -0.263291
     88          1           0       11.076222    2.117426   -1.454486
     89          1           0       12.356107    2.038136   -0.181736
     90          1           0        9.813426   -0.664866    2.547805
     91          1           0       11.075025    0.527824    2.783994
     92          1           0       12.486932   -1.312222    3.071835
     93          1           0       12.267772   -1.818823    1.381832
     94          1           0       11.113455   -2.349084    2.524462
     95          1           0        8.541842   -5.075900    0.339133
     96          1           0        7.193192   -5.566727    1.427315
     97          1           0        8.271969   -4.216604    1.823134
     98          1           0        2.480477   -3.661550    0.758221
     99          1           0        0.198030   -6.243117   -1.935528
    100          1           0        1.490447   -5.489705   -2.957671
    101          1           0        0.156010   -4.474006   -2.362004
    102          1           0       -3.633181   -3.690819    2.136387
    103          1           0       -3.553493   -3.632381    0.288559
    104          1           0       -5.254831   -1.437286    1.368542
    105          1           0       -5.647024   -5.193349    0.676119
    106          1           0       -6.873800   -4.671505   -0.543320
    107          1           0       -7.315713   -4.800860    1.175151
    108          1           0       -7.486131   -1.414081    1.454410
    109          1           0       -8.370334   -2.787568    0.807865
    110          1           0       -8.710768   -1.994430   -1.241715
    111          1           0       -7.073669   -1.958650   -1.536204
    112          1           0       -7.205484    0.182330   -1.865975
    113          1           0       -7.118188    0.198502   -0.126953
    114          1           0       -9.936101   -0.125595   -0.624411
    115          1           0       -9.239079    2.237292   -2.130077
    116          1           0      -10.626174    1.394062   -2.242986
    117          1           0       -9.253114    0.730090   -3.148628
    118          1           0       -9.727318    2.568548   -0.176899
    119          1           0       -8.239387    2.009537    0.507558
    120          1           0       -9.360236    0.964166    2.267897
    121          1           0      -10.677323    0.443838    1.236130
    122          1           0      -10.728239    3.311858    1.411602
    123          1           0      -10.448370    2.731799    3.039856
    124          1           0      -12.294995    0.903978    2.203835
    125          1           0      -12.382628    3.459747    3.828805
    126          1           0      -12.633016    1.909589    4.360255
    127          1           0      -14.015683    2.712794    3.590360
    128          1           0      -12.836145    2.765194    0.059179
    129          1           0      -13.621426    3.546009    1.351202
    130          1           0      -15.420511    2.573253    1.555466
    131          1           0      -14.754568    0.998515    1.482735
    132          1           0      -14.524776    2.654534   -1.115104
    133          1           0      -16.143053    2.092139   -0.578613
    134          1           0      -13.722616    0.251189   -0.791546
    135          1           0      -15.577807    0.430474   -3.218153
    136          1           0      -13.904539   -0.174112   -3.123098
    137          1           0      -14.244879    1.567714   -3.019375
    138          1           0      -16.718236   -0.103001   -0.779577
    139          1           0      -15.455573   -0.782988    0.160103
    140          1           0      -15.624644   -1.372027   -1.466204
 ---------------------------------------------------------------------

 SCF Done:  E(RwB97XD) =  -3007.85316944     A.U. after   19 cycles

 Excitation energies and oscillator strengths:

 Excited State   1:      Singlet-A      1.5994 eV  775.21 nm  f=0.3643  <S**2>=0.000
     245 -> 248        0.19250
     246 -> 247        0.68286
     245 <- 248        0.12401
 This state for optimization and/or second-order correction.
 Total Energy, E(TD-HF/TD-DFT) =  -3007.79439401
 Copying the excited state density for this state as the 1-particle RhoCI density.

 Excited State   2:      Singlet-A      2.1219 eV  584.31 nm  f=0.1472  <S**2>=0.000
     245 -> 247        0.65175
     246 -> 248       -0.26598
     246 <- 248       -0.10022

 Excited State   3:      Singlet-A      3.2962 eV  376.14 nm  f=0.0010  <S**2>=0.000
     240 -> 247        0.12104
     241 -> 247        0.55976
     241 -> 249       -0.32645
     241 -> 250        0.13868

 Excited State   4:      Singlet-A      3.4083 eV  363.77 nm  f=0.0005  <S**2>=0.000
     240 -> 247       -0.15059
     242 -> 247       -0.17853
     243 -> 247        0.64049

 Excited State   5:      Singlet-A      3.5621 eV  348.07 nm  f=0.2212  <S**2>=0.000
     239 -> 247        0.16320
     240 -> 247        0.47224
     241 -> 247       -0.12649
     245 -> 247        0.13124
     246 -> 248        0.42934

 The electronic state is 1-A.
 Alpha  occ. eigenvalues --  -46.95544 -19.30421 -19.28860 -19.25430 -19.24371
 Alpha  occ. eigenvalues --  -19.23727 -19.23611 -14.46359 -14.45949 -14.44713
 Alpha  occ. eigenvalues --  -14.44576 -10.44231 -10.42832 -10.38975 -10.38926
 Alpha  occ. eigenvalues --  -10.36606 -10.35929 -10.35380 -10.35151 -10.34685
 Alpha  occ. eigenvalues --  -10.34503 -10.33996 -10.33945 -10.33737 -10.33609
 Alpha  occ. eigenvalues --  -10.33190 -10.33059 -10.32924 -10.32873 -10.32525
 Alpha  occ. eigenvalues --  -10.32311 -10.32306 -10.32197 -10.32090 -10.31423
 Alpha  occ. eigenvalues --  -10.31276 -10.31255 -10.31101 -10.30829 -10.30813
 Alpha  occ. eigenvalues --  -10.30639 -10.30571 -10.30394 -10.30266 -10.30223
 Alpha  occ. eigenvalues --  -10.30133 -10.29951 -10.29777 -10.29726 -10.29633
 Alpha  occ. eigenvalues --  -10.29443 -10.29417 -10.29268 -10.29195 -10.29142
 Alpha  occ. eigenvalues --  -10.29064 -10.28909 -10.28761 -10.28648 -10.28597
 Alpha  occ. eigenvalues --  -10.28426 -10.28399 -10.28348 -10.28108 -10.28081
 Alpha  occ. eigenvalues --  -10.27427  -3.21501  -1.95065  -1.94617  -1.94486
 Alpha  occ. eigenvalues --   -1.17219  -1.16895  -1.11491  -1.10574  -1.08988
 Alpha  occ. eigenvalues --   -1.08537  -1.06914  -1.05613  -1.03853  -1.02991
 Alpha  occ. eigenvalues --   -0.95093  -0.92048  -0.91389  -0.90977  -0.90766
 Alpha  occ. eigenvalues --   -0.90582  -0.90002  -0.89403  -0.89101  -0.88999
 Alpha  occ. eigenvalues --   -0.88353  -0.86918  -0.86144  -0.85511  -0.85083
 Alpha  occ. eigenvalues --   -0.84375  -0.83758  -0.83151  -0.82492  -0.81990
 Alpha  occ. eigenvalues --   -0.81691  -0.80739  -0.80108  -0.79174  -0.77918
 Alpha  occ. eigenvalues --   -0.77788  -0.77145  -0.77136  -0.76151  -0.75668
 Alpha  occ. eigenvalues --   -0.75432  -0.74828  -0.73711  -0.72776  -0.70915
 Alpha  occ. eigenvalues --   -0.70439  -0.70281  -0.68737  -0.68253  -0.67463
 Alpha  occ. eigenvalues --   -0.67195  -0.66839  -0.66435  -0.66280  -0.66122
 Alpha  occ. eigenvalues --   -0.65001  -0.64572  -0.64326  -0.63532  -0.61964
 Alpha  occ. eigenvalues --   -0.61689  -0.61544  -0.60698  -0.60532  -0.60257
 Alpha  occ. eigenvalues --   -0.59931  -0.59269  -0.58111  -0.57490  -0.56998
 Alpha  occ. eigenvalues --   -0.56709  -0.56210  -0.56175  -0.56118  -0.55977
 Alpha  occ. eigenvalues --   -0.55528  -0.55306  -0.54608  -0.54441  -0.54326
 Alpha  occ. eigenvalues --   -0.54099  -0.53990  -0.53692  -0.53514  -0.53391
 Alpha  occ. eigenvalues --   -0.53135  -0.53115  -0.53015  -0.52562  -0.52388
 Alpha  occ. eigenvalues --   -0.52140  -0.51946  -0.51919  -0.51742  -0.51543
 Alpha  occ. eigenvalues --   -0.51500  -0.51252  -0.51153  -0.50921  -0.50646
 Alpha  occ. eigenvalues --   -0.50573  -0.50390  -0.50278  -0.49963  -0.49902
 Alpha  occ. eigenvalues --   -0.49728  -0.49289  -0.49054  -0.48914  -0.48620
 Alpha  occ. eigenvalues --   -0.48469  -0.48311  -0.48049  -0.47970  -0.47875
 Alpha  occ. eigenvalues --   -0.47500  -0.47180  -0.47130  -0.46943  -0.46936
 Alpha  occ. eigenvalues --   -0.46381  -0.46228  -0.46207  -0.46138  -0.45811
 Alpha  occ. eigenvalues --   -0.45637  -0.45516  -0.45260  -0.45210  -0.44843
 Alpha  occ. eigenvalues --   -0.44606  -0.44546  -0.44265  -0.44166  -0.43850
 Alpha  occ. eigenvalues --   -0.43733  -0.43406  -0.43140  -0.42997  -0.42931
 Alpha  occ. eigenvalues --   -0.42664  -0.42611  -0.42328  -0.42177  -0.41922
 Alpha  occ. eigenvalues --   -0.41806  -0.41404  -0.41315  -0.40888  -0.40660
 Alpha  occ. eigenvalues --   -0.40280  -0.40022  -0.39887  -0.39641  -0.39092
 Alpha  occ. eigenvalues --   -0.38932  -0.38894  -0.38792  -0.38166  -0.37694
 Alpha  occ. eigenvalues --   -0.37632  -0.37226  -0.36498  -0.36460  -0.36023
 Alpha  occ. eigenvalues --   -0.35881  -0.35600  -0.35143  -0.33167  -0.32825
 Alpha  occ. eigenvalues --   -0.32614  -0.32350  -0.31806  -0.31646  -0.25701
 Alpha  occ. eigenvalues --   -0.23117
 Alpha virt. eigenvalues --   -0.07414   0.00304   0.02454   0.04492   0.05024
 Alpha virt. eigenvalues --    0.06048   0.07488   0.08000   0.08332   0.09720
 Alpha virt. eigenvalues --    0.10651   0.10986   0.11285   0.12028   0.12366

 Mulliken charges:
               1
     1  Mg   0.955851
     2  C   -0.022923
     3  C   -0.061863
     4  C   -0.046426
     5  C   -0.074758
     6  N   -0.359798
     7  C    0.042418
     8  C   -0.041650
     9  C   -0.157719
    10  C    0.059630
    11  C    0.038681
    12  C    0.013312
    13  C   -0.003048
    14  C    0.231336
    15  O   -0.276051
    16  O   -0.395449
    17  N   -0.472184
    18  C    0.153017
    19  C   -0.168743
    20  C   -0.102041
    21  C    0.161498
    22  C    0.053014
    23  C    0.066683
    24  O   -0.248677
    25  C    0.005864
    26  N   -0.308872
    27  C    0.001882
    28  C   -0.058881
    29  C   -0.065580
    30  C    0.038102
    31  C    0.041378
    32  C   -0.034918
    33  C   -0.058254
    34  N   -0.494875
    35  C    0.142212
    36  C   -0.179984
    37  C    0.003837
    38  C    0.137387
    39  C    0.077417
    40  C    0.071516
    41  O   -0.229602
    42  C   -0.061909
    43  C    0.284921
    44  O   -0.262564
    45  O   -0.379521
    46  C    0.141769
    47  C    0.273024
    48  C   -0.150094
    49  C   -0.241243
    50  C    0.029713
    51  C    0.037046
    52  C   -0.030955
    53  C    0.019917
    54  C   -0.169437
    55  C    0.000453
    56  C    0.007321
    57  C   -0.032669
    58  C    0.007131
    59  C   -0.168655
    60  C   -0.016281
    61  C   -0.012234
    62  C   -0.033534
    63  C   -0.004373
    64  C   -0.202368
    65  C    0.005941
    66  C    0.007954
    67  H   -0.013775
    68  H    0.032603
    69  H    0.000114
    70  H    0.045049
    71  H    0.035668
    72  H    0.060806
    73  H    0.060434
    74  H    0.023122
    75  H    0.042393
    76  H    0.056110
    77  H    0.060654
    78  H    0.053269
    79  H    0.056253
    80  H    0.040624
    81  H    0.044142
    82  H    0.042940
    83  H    0.057097
    84  H    0.055844
    85  H    0.029157
    86  H    0.030077
    87  H    0.045633
    88  H    0.045413
    89  H    0.033319
    90  H    0.035921
    91  H    0.038020
    92  H    0.047376
    93  H    0.037450
    94  H    0.032895
    95  H    0.048214
    96  H    0.075415
    97  H    0.036630
    98  H    0.079849
    99  H    0.062250
   100  H    0.057913
   101  H    0.054908
   102  H    0.060309
   103  H    0.079217
   104  H    0.016254
   105  H    0.038091
   106  H    0.047256
   107  H    0.043939
   108  H    0.042889
   109  H    0.010994
   110  H    0.016343
   111  H    0.021050
   112  H    0.022148
   113  H    0.003633
   114  H    0.016614
   115  H    0.013814
   116  H    0.016034
   117  H    0.042083
   118  H    0.002311
   119  H    0.020022
   120  H    0.021548
   121  H    0.017280
   122  H    0.016383
   123  H    0.017259
   124  H    0.028082
   125  H    0.028622
   126  H    0.018317
   127  H    0.035591
   128  H    0.024424
   129  H    0.018468
   130  H    0.028215
   131  H    0.016396
   132  H    0.014558
   133  H    0.012677
   134  H    0.018367
   135  H    0.031537
   136  H    0.036925
   137  H    0.013942
   138  H    0.026759
   139  H    0.009179
   140  H    0.026584
 Sum of Mulliken charges =  -0.00000

 Dipole moment (field-independent basis, Debye):
    X=             -2.8714    Y=              2.7860    Z=              3.4706  Tot=              5.2964
 Quadrupole moment (field-independent basis, Debye-Ang):
   XX=           -376.8467   YY=           -412.1114   ZZ=           -406.8090
   XY=             -4.0856   XZ=             17.4952   YZ=             -5.4909

 Normal termination of Gaussian 16 at Wed May  4 01:17:36 2022.
