 Gaussian 16, Revision A.03,
 Gaussian 16:  ES64L-G16RevA.03 25-Dec-2016

 --------------------
 #p ZINDO=(nstates=5)
 --------------------

 -----------------------------
 step_1151_chromophore_4 ZINDO
 -----------------------------
 Symbolic Z-matrix:
 Charge =  0 Multiplicity = 1

                         Standard orientation:
 ---------------------------------------------------------------------
 Center     Atomic      Atomic             Coordinates (Angstroms)
 Number     Number       Type             X           Y           Z
 ---------------------------------------------------------------------
      1         12           0        5.842930    0.477739   -0.102039
      2          6           0        3.735132   -2.115687   -0.202930
      3          6           0        3.253492    2.694008   -0.802283
      4          6           0        8.179025    3.183638    0.174794
      5          6           0        8.677862   -1.709557    0.328578
      6          7           0        3.702379    0.272243   -0.689433
      7          6           0        3.066012   -0.884414   -0.465561
      8          6           0        1.555998   -0.559416   -0.443384
      9          6           0        1.434275    0.958709   -0.902598
     10          6           0        2.865792    1.361679   -0.808182
     11          6           0        0.726150    1.165062   -2.297245
     12          6           0        0.787614   -1.009510    0.855498
     13          6           0       -0.775893   -0.597285    0.834630
     14          6           0       -1.771924   -1.693688    0.473353
     15          8           0       -1.896135   -2.195632   -0.652374
     16          8           0       -2.646334   -2.033114    1.530696
     17          7           0        5.790789    2.538024   -0.326452
     18          6           0        4.603864    3.250965   -0.615902
     19          6           0        4.870307    4.722282   -0.511874
     20          6           0        6.305166    4.763947   -0.333344
     21          6           0        6.799976    3.465467   -0.160269
     22          6           0        3.804081    5.770303   -0.712475
     23          6           0        7.189490    6.041860   -0.274797
     24          8           0        8.394734    6.045868   -0.009843
     25          6           0        6.534605    7.372789   -0.439802
     26          7           0        8.261557    0.762466   -0.094949
     27          6           0        8.866968    1.965303    0.130038
     28          6           0       10.339263    1.730462    0.542498
     29          6           0       10.390175    0.200105    0.712989
     30          6           0        9.065175   -0.348674    0.261934
     31          6           0       11.335906    2.341320   -0.419696
     32          6           0       10.753526   -0.292983    2.142880
     33          6           0       11.753719   -1.499093    2.287672
     34          7           0        6.170079   -1.464733   -0.135489
     35          6           0        7.350419   -2.208905    0.197987
     36          6           0        6.991747   -3.611484    0.367057
     37          6           0        5.608571   -3.608876    0.125133
     38          6           0        5.162235   -2.266382   -0.090013
     39          6           0        7.756737   -4.731561    1.012124
     40          6           0        4.392744   -4.382960    0.212592
     41          8           0        4.326667   -5.603615    0.466916
     42          6           0        3.165558   -3.478247   -0.070111
     43          6           0        2.529795   -3.917098   -1.317361
     44          8           0        2.762637   -3.575390   -2.485105
     45          8           0        1.511981   -4.813249   -1.013219
     46          6           0        0.776819   -5.343352   -2.146251
     47          6           0       -3.671933   -3.092303    1.227193
     48          6           0       -5.097199   -2.485608    1.118440
     49          6           0       -6.287744   -3.037961    0.752990
     50          6           0       -6.512395   -4.560719    0.479075
     51          6           0       -7.502574   -2.146844    0.647382
     52          6           0       -7.794131   -1.606643   -0.797679
     53          6           0       -7.752514   -0.092402   -0.964626
     54          6           0       -9.167755    0.610925   -0.863209
     55          6           0       -9.554927    1.196968   -2.210894
     56          6           0       -9.239978    1.680740    0.226597
     57          6           0      -10.037781    1.292121    1.479737
     58          6           0      -10.849288    2.449000    2.066583
     59          6           0      -12.377352    1.990786    2.182179
     60          6           0      -12.937346    2.564905    3.543688
     61          6           0      -13.270582    2.563365    1.038058
     62          6           0      -14.715508    1.966885    0.985736
     63          6           0      -15.069353    1.907904   -0.536896
     64          6           0      -14.683170    0.545017   -1.215703
     65          6           0      -14.602989    0.574180   -2.750670
     66          6           0      -15.696623   -0.472124   -0.856386
     67          1           0        2.435887    3.403798   -0.945237
     68          1           0        8.862110    4.006371    0.393638
     69          1           0        9.457779   -2.418098    0.614126
     70          1           0        1.163926   -1.108744   -1.300353
     71          1           0        0.869669    1.520261   -0.157110
     72          1           0       -0.032040    0.403222   -2.478335
     73          1           0        1.480354    1.400625   -3.047616
     74          1           0        0.138054    2.067372   -2.127136
     75          1           0        1.228714   -0.567776    1.749573
     76          1           0        0.819901   -2.095504    0.942654
     77          1           0       -0.979949    0.183740    0.101749
     78          1           0       -0.950784   -0.149968    1.812883
     79          1           0        3.802822    6.358178    0.204317
     80          1           0        2.797268    5.484626   -1.017248
     81          1           0        4.038654    6.427604   -1.550058
     82          1           0        5.712029    7.413637    0.274165
     83          1           0        6.149607    7.413375   -1.458924
     84          1           0        7.216670    8.194774   -0.220324
     85          1           0       10.475219    2.052755    1.574841
     86          1           0       11.031212   -0.268287   -0.033278
     87          1           0       11.342405    3.419425   -0.263291
     88          1           0       11.076222    2.117426   -1.454486
     89          1           0       12.356107    2.038136   -0.181736
     90          1           0        9.813426   -0.664866    2.547805
     91          1           0       11.075025    0.527824    2.783994
     92          1           0       12.486932   -1.312222    3.071835
     93          1           0       12.267772   -1.818823    1.381832
     94          1           0       11.113455   -2.349084    2.524462
     95          1           0        8.541842   -5.075900    0.339133
     96          1           0        7.193192   -5.566727    1.427315
     97          1           0        8.271969   -4.216604    1.823134
     98          1           0        2.480477   -3.661550    0.758221
     99          1           0        0.198030   -6.243117   -1.935528
    100          1           0        1.490447   -5.489705   -2.957671
    101          1           0        0.156010   -4.474006   -2.362004
    102          1           0       -3.633181   -3.690819    2.136387
    103          1           0       -3.553493   -3.632381    0.288559
    104          1           0       -5.254831   -1.437286    1.368542
    105          1           0       -5.647024   -5.193349    0.676119
    106          1           0       -6.873800   -4.671505   -0.543320
    107          1           0       -7.315713   -4.800860    1.175151
    108          1           0       -7.486131   -1.414081    1.454410
    109          1           0       -8.370334   -2.787568    0.807865
    110          1           0       -8.710768   -1.994430   -1.241715
    111          1           0       -7.073669   -1.958650   -1.536204
    112          1           0       -7.205484    0.182330   -1.865975
    113          1           0       -7.118188    0.198502   -0.126953
    114          1           0       -9.936101   -0.125595   -0.624411
    115          1           0       -9.239079    2.237292   -2.130077
    116          1           0      -10.626174    1.394062   -2.242986
    117          1           0       -9.253114    0.730090   -3.148628
    118          1           0       -9.727318    2.568548   -0.176899
    119          1           0       -8.239387    2.009537    0.507558
    120          1           0       -9.360236    0.964166    2.267897
    121          1           0      -10.677323    0.443838    1.236130
    122          1           0      -10.728239    3.311858    1.411602
    123          1           0      -10.448370    2.731799    3.039856
    124          1           0      -12.294995    0.903978    2.203835
    125          1           0      -12.382628    3.459747    3.828805
    126          1           0      -12.633016    1.909589    4.360255
    127          1           0      -14.015683    2.712794    3.590360
    128          1           0      -12.836145    2.765194    0.059179
    129          1           0      -13.621426    3.546009    1.351202
    130          1           0      -15.420511    2.573253    1.555466
    131          1           0      -14.754568    0.998515    1.482735
    132          1           0      -14.524776    2.654534   -1.115104
    133          1           0      -16.143053    2.092139   -0.578613
    134          1           0      -13.722616    0.251189   -0.791546
    135          1           0      -15.577807    0.430474   -3.218153
    136          1           0      -13.904539   -0.174112   -3.123098
    137          1           0      -14.244879    1.567714   -3.019375
    138          1           0      -16.718236   -0.103001   -0.779577
    139          1           0      -15.455573   -0.782988    0.160103
    140          1           0      -15.624644   -1.372027   -1.466204
 ---------------------------------------------------------------------

 SCF Done:  E(RZINDO/S) =  -473.915791633     A.U. after   19 cycles

 Excitation energies and oscillator strengths:

 Excited State   1:      Singlet-A      1.2061 eV 1027.97 nm  f=0.5838  <S**2>=0.000
     175 ->178         0.19042
     176 ->177         0.66367
 This state for optimization and/or second-order correction.
 Total Energy, E(CIS/TDA) =  -473.871468031
 Copying the excited state density for this state as the 1-particle RhoCI density.

 Excited State   2:      Singlet-A      1.8668 eV  664.15 nm  f=0.1139  <S**2>=0.000
     175 ->177         0.59354
     176 ->178        -0.35277

 Excited State   3:      Singlet-A      2.8321 eV  437.78 nm  f=0.0008  <S**2>=0.000
     167 ->179         0.13913
     168 ->177         0.39384
     168 ->179        -0.41640
     168 ->181         0.10533
     168 ->185        -0.17889

 Excited State   4:      Singlet-A      2.9500 eV  420.28 nm  f=0.1012  <S**2>=0.000
     169 ->181         0.10768
     170 ->177        -0.24121
     170 ->179        -0.18118
     170 ->181        -0.43209
     170 ->183        -0.15231
     170 ->185        -0.17665
     170 ->187         0.16345
     176 ->178         0.18437

 Excited State   5:      Singlet-A      2.9815 eV  415.85 nm  f=0.7546  <S**2>=0.000
     170 ->181         0.13178
     171 ->177         0.11277
     174 ->177         0.13954
     175 ->177         0.27626
     176 ->178         0.51275
     176 ->179         0.22569

 The electronic state is 1-A.
 Alpha  occ. eigenvalues --   -1.85562  -1.78691  -1.77485  -1.73008  -1.70017
 Alpha  occ. eigenvalues --   -1.68393  -1.65295  -1.61568  -1.58703  -1.57609
 Alpha  occ. eigenvalues --   -1.55208  -1.50531  -1.48629  -1.47326  -1.45215
 Alpha  occ. eigenvalues --   -1.42758  -1.41288  -1.39619  -1.38616  -1.38013
 Alpha  occ. eigenvalues --   -1.35900  -1.34707  -1.32824  -1.29926  -1.27623
 Alpha  occ. eigenvalues --   -1.27369  -1.24457  -1.21138  -1.20272  -1.18165
 Alpha  occ. eigenvalues --   -1.17656  -1.15721  -1.15007  -1.13745  -1.12473
 Alpha  occ. eigenvalues --   -1.11247  -1.10754  -1.09445  -1.05120  -1.03666
 Alpha  occ. eigenvalues --   -1.02405  -1.01065  -0.98989  -0.97742  -0.96831
 Alpha  occ. eigenvalues --   -0.96444  -0.96142  -0.93467  -0.92589  -0.91429
 Alpha  occ. eigenvalues --   -0.90528  -0.89418  -0.89133  -0.87554  -0.86946
 Alpha  occ. eigenvalues --   -0.85161  -0.83646  -0.82734  -0.81092  -0.79639
 Alpha  occ. eigenvalues --   -0.78967  -0.78226  -0.78053  -0.77326  -0.76555
 Alpha  occ. eigenvalues --   -0.75561  -0.75232  -0.74649  -0.74152  -0.74030
 Alpha  occ. eigenvalues --   -0.72627  -0.72237  -0.71567  -0.71128  -0.70634
 Alpha  occ. eigenvalues --   -0.69794  -0.68803  -0.68391  -0.67498  -0.67410
 Alpha  occ. eigenvalues --   -0.67166  -0.67155  -0.66283  -0.66277  -0.66150
 Alpha  occ. eigenvalues --   -0.65557  -0.64758  -0.64228  -0.63885  -0.63457
 Alpha  occ. eigenvalues --   -0.63332  -0.63211  -0.62303  -0.62206  -0.61885
 Alpha  occ. eigenvalues --   -0.61610  -0.61334  -0.60686  -0.60423  -0.59927
 Alpha  occ. eigenvalues --   -0.59879  -0.59083  -0.58885  -0.58559  -0.58133
 Alpha  occ. eigenvalues --   -0.57759  -0.57625  -0.57459  -0.57046  -0.56417
 Alpha  occ. eigenvalues --   -0.56079  -0.55757  -0.55696  -0.54910  -0.54536
 Alpha  occ. eigenvalues --   -0.54398  -0.54284  -0.53976  -0.52967  -0.52769
 Alpha  occ. eigenvalues --   -0.52675  -0.52410  -0.51986  -0.51705  -0.51405
 Alpha  occ. eigenvalues --   -0.51390  -0.51234  -0.51060  -0.50658  -0.50477
 Alpha  occ. eigenvalues --   -0.49953  -0.49848  -0.49485  -0.49203  -0.48991
 Alpha  occ. eigenvalues --   -0.48746  -0.48610  -0.48310  -0.47943  -0.47354
 Alpha  occ. eigenvalues --   -0.47241  -0.47107  -0.47038  -0.46572  -0.46146
 Alpha  occ. eigenvalues --   -0.45928  -0.45680  -0.45460  -0.45105  -0.45037
 Alpha  occ. eigenvalues --   -0.44929  -0.44597  -0.44425  -0.44094  -0.43798
 Alpha  occ. eigenvalues --   -0.43530  -0.43501  -0.42313  -0.42226  -0.41893
 Alpha  occ. eigenvalues --   -0.41740  -0.41396  -0.41085  -0.39337  -0.38448
 Alpha  occ. eigenvalues --   -0.38271  -0.36910  -0.35275  -0.34839  -0.34098
 Alpha  occ. eigenvalues --   -0.33711  -0.32347  -0.31816  -0.31580  -0.26260
 Alpha  occ. eigenvalues --   -0.21866
 Alpha virt. eigenvalues --   -0.08951  -0.01702  -0.00771   0.01164   0.01514
 Alpha virt. eigenvalues --    0.02146   0.02677   0.02972   0.04769   0.04991
 Alpha virt. eigenvalues --    0.06313   0.06526   0.07012   0.07473   0.07858

 Mulliken charges:
               1
     1  Mg   0.436054
     2  C   -0.081564
     3  C   -0.083317
     4  C   -0.055229
     5  C   -0.056185
     6  N   -0.291134
     7  C    0.161368
     8  C    0.000763
     9  C    0.000157
    10  C    0.116912
    11  C   -0.051559
    12  C   -0.017295
    13  C    0.001420
    14  C    0.467993
    15  O   -0.516811
    16  O   -0.281230
    17  N   -0.319244
    18  C    0.069706
    19  C   -0.025023
    20  C   -0.047977
    21  C    0.130968
    22  C   -0.037705
    23  C    0.321303
    24  O   -0.533753
    25  C   -0.027907
    26  N   -0.301442
    27  C    0.113701
    28  C    0.010788
    29  C    0.009193
    30  C    0.140154
    31  C   -0.042753
    32  C   -0.032909
    33  C   -0.061796
    34  N   -0.304610
    35  C    0.096594
    36  C    0.056184
    37  C   -0.056419
    38  C    0.153815
    39  C   -0.030122
    40  C    0.330020
    41  O   -0.535834
    42  C    0.073965
    43  C    0.491570
    44  O   -0.528313
    45  O   -0.276960
    46  C    0.071158
    47  C    0.108098
    48  C   -0.099770
    49  C   -0.014720
    50  C   -0.046655
    51  C   -0.013857
    52  C   -0.029306
    53  C   -0.036542
    54  C   -0.005832
    55  C   -0.063134
    56  C   -0.033187
    57  C   -0.038829
    58  C   -0.042922
    59  C   -0.015252
    60  C   -0.063334
    61  C   -0.046075
    62  C   -0.038257
    63  C   -0.035706
    64  C   -0.006900
    65  C   -0.055406
    66  C   -0.051007
    67  H    0.028386
    68  H    0.055803
    69  H    0.037869
    70  H    0.037992
    71  H    0.022223
    72  H    0.038402
    73  H    0.040744
    74  H    0.009001
    75  H    0.028695
    76  H    0.031255
    77  H    0.046651
    78  H    0.031720
    79  H    0.030129
    80  H    0.028626
    81  H    0.021704
    82  H    0.033771
    83  H    0.038951
    84  H    0.037338
    85  H    0.031111
    86  H    0.028594
    87  H    0.023147
    88  H    0.030425
    89  H    0.015017
    90  H    0.018331
    91  H    0.024912
    92  H    0.025581
    93  H    0.022303
    94  H    0.015251
    95  H    0.034072
    96  H    0.047478
    97  H    0.023398
    98  H    0.060968
    99  H    0.041989
   100  H    0.049452
   101  H    0.040973
   102  H    0.044092
   103  H    0.070903
   104  H    0.028293
   105  H    0.027177
   106  H    0.031639
   107  H    0.026275
   108  H    0.033546
   109  H    0.010198
   110  H    0.017315
   111  H    0.014328
   112  H    0.023372
   113  H    0.014141
   114  H    0.019512
   115  H    0.013874
   116  H    0.007167
   117  H    0.028697
   118  H    0.016100
   119  H    0.017906
   120  H    0.012865
   121  H    0.022440
   122  H    0.021368
   123  H    0.019580
   124  H    0.032940
   125  H    0.019878
   126  H    0.007321
   127  H    0.025490
   128  H    0.033332
   129  H    0.011030
   130  H    0.019043
   131  H    0.020140
   132  H    0.020288
   133  H    0.015560
   134  H    0.021267
   135  H    0.021995
   136  H    0.020880
   137  H    0.010361
   138  H    0.023417
   139  H    0.001518
   140  H    0.014387
 Sum of Mulliken charges =  -0.00000

 Dipole moment (field-independent basis, Debye):
    X=             -3.7909    Y=              2.4745    Z=              5.9758  Tot=              7.4970
 N-N= 4.235150391144D+03 E-N= 0.000000000000D+00  KE=-9.144659593239D+03
 Leave Link  601 at Wed May  4 01:31:00 2022, MaxMem=  6710886400 cpu:               0.8 elap:               0.0
 (Enter /sw/apps/gaussian-16.0/g16/l9999.exe)
 1\1\GINC-BP1-COMPUTE121\SP\RZINDO CIS\STO-3G\C55H74Mg1N4O6\OF15641\04-
 May-2022\0\\#p ZINDO=(nstates=5)\\step_1151_chromophore_4 ZINDO\\0,1\M
 g,0,8.91,2.918,28.152\C,0,10.249,1.439,30.835\C,0,7.452,5.367,30.148\C
 ,0,7.651,4.487,25.184\C,0,10.098,0.293,25.983\N,0,8.678,3.237,30.346\C
 ,0,9.484,2.587,31.195\C,0,9.475,3.391,32.514\C,0,8.354,4.505,32.333\C,
 0,8.121,4.386,30.866\C,0,7.098,4.327,33.271\C,0,10.89,3.836,33.043\C,0
 ,10.806,4.713,34.399\C,0,11.103,3.988,35.707\O,0,10.373,3.131,36.224\O

 Normal termination of Gaussian 16 at Wed May  4 01:31:00 2022.
