 Gaussian 16, Revision A.03,
 Gaussian 16:  ES64L-G16RevA.03 25-Dec-2016

 ------------------------------
 #p blyp/Def2SVP td=(nstates=5)
 ------------------------------

 --------------------------------------------------
 step_451_chromophore_26 TDDFT with blyp functional
 --------------------------------------------------
 Symbolic Z-matrix:
 Charge =  0 Multiplicity = 1

                         Standard orientation:
 ---------------------------------------------------------------------
 Center     Atomic      Atomic             Coordinates (Angstroms)
 Number     Number       Type             X           Y           Z
 ---------------------------------------------------------------------
      1         12           0       -3.597859    1.179716    0.616819
      2          6           0       -4.675447   -1.969336   -0.186186
      3          6           0       -2.172472   -0.103073    3.509724
      4          6           0       -2.224720    4.176162    1.213713
      5          6           0       -4.541293    2.238169   -2.637914
      6          7           0       -3.293487   -0.876943    1.490903
      7          6           0       -4.003513   -1.956665    1.039203
      8          6           0       -3.576116   -3.166187    1.929322
      9          6           0       -2.991056   -2.494988    3.238344
     10          6           0       -2.796123   -1.053437    2.738014
     11          6           0       -3.941975   -2.531006    4.491412
     12          6           0       -2.579368   -4.067431    1.171786
     13          6           0       -1.594797   -3.444650    0.191000
     14          6           0       -0.369134   -4.341683   -0.248048
     15          8           0       -0.428808   -5.267292   -1.032406
     16          8           0        0.737849   -4.053932    0.475698
     17          7           0       -2.363226    1.962623    2.144628
     18          6           0       -1.969546    1.306792    3.258838
     19          6           0       -1.334181    2.199619    4.194798
     20          6           0       -1.294734    3.460791    3.573220
     21          6           0       -1.920577    3.286689    2.250156
     22          6           0       -0.847602    1.787666    5.544556
     23          6           0       -0.665977    4.775824    4.216726
     24          8           0       -0.175328    4.640539    5.336006
     25          6           0       -0.661960    6.077549    3.505396
     26          7           0       -3.105985    2.805751   -0.660079
     27          6           0       -2.860398    3.983895   -0.061119
     28          6           0       -3.081386    5.161034   -0.931106
     29          6           0       -3.871177    4.537646   -2.104973
     30          6           0       -3.792520    3.123928   -1.842192
     31          6           0       -3.720076    6.423223   -0.198274
     32          6           0       -3.282956    4.984424   -3.457043
     33          6           0       -4.124595    5.694668   -4.440109
     34          7           0       -4.380971    0.309024   -1.142072
     35          6           0       -4.885932    0.883075   -2.352133
     36          6           0       -5.632470   -0.069529   -3.055121
     37          6           0       -5.641612   -1.262427   -2.230102
     38          6           0       -4.810568   -0.915611   -1.134466
     39          6           0       -6.285696    0.155590   -4.404506
     40          6           0       -6.022670   -2.622422   -2.096737
     41          8           0       -6.682567   -3.377399   -2.770903
     42          6           0       -5.430591   -3.153705   -0.772293
     43          6           0       -6.469407   -3.781578    0.078949
     44          8           0       -6.710898   -5.023233    0.079651
     45          8           0       -7.149063   -2.863529    0.818472
     46          6           0       -7.944508   -3.180118    1.984018
     47          6           0        2.047432   -4.650320    0.075622
     48          6           0        3.004522   -3.558716   -0.265252
     49          6           0        3.262932   -3.115117   -1.542305
     50          6           0        2.549265   -3.749805   -2.786302
     51          6           0        4.431166   -2.170125   -1.765567
     52          6           0        4.039514   -0.811346   -2.387607
     53          6           0        4.729275   -0.664063   -3.740333
     54          6           0        5.518978    0.688474   -3.758649
     55          6           0        5.373160    1.249495   -5.170263
     56          6           0        6.923534    0.522976   -3.270669
     57          6           0        7.427018    1.787576   -2.520000
     58          6           0        7.628466    1.622168   -1.021855
     59          6           0        9.203343    1.623649   -0.709580
     60          6           0        9.669667    3.052870   -0.194257
     61          6           0        9.532251    0.396952    0.234576
     62          6           0       11.070837    0.095609    0.240998
     63          6           0       11.608663   -0.184829    1.669481
     64          6           0       11.539812   -1.717939    1.882840
     65          6           0       11.005313   -2.197363    3.314328
     66          6           0       13.011952   -2.267490    1.642073
     67          1           0       -1.971975   -0.423910    4.534221
     68          1           0       -1.936451    5.220867    1.348908
     69          1           0       -5.051141    2.516566   -3.562637
     70          1           0       -4.390193   -3.864991    2.126637
     71          1           0       -2.066742   -3.040268    3.426240
     72          1           0       -4.926006   -2.890467    4.190579
     73          1           0       -4.170868   -1.512365    4.803000
     74          1           0       -3.575696   -3.082521    5.357660
     75          1           0       -3.140458   -4.832852    0.636102
     76          1           0       -1.919947   -4.549890    1.893932
     77          1           0       -1.212630   -2.509453    0.600235
     78          1           0       -2.185656   -3.262520   -0.706946
     79          1           0       -0.490228    0.758656    5.521585
     80          1           0       -1.540584    1.822806    6.384942
     81          1           0        0.045438    2.283670    5.926401
     82          1           0       -1.557296    6.690808    3.611848
     83          1           0       -0.394646    5.962112    2.454992
     84          1           0        0.177854    6.727015    3.750197
     85          1           0       -2.114252    5.510756   -1.293555
     86          1           0       -4.899949    4.896985   -2.082428
     87          1           0       -3.828032    6.417049    0.886742
     88          1           0       -4.735932    6.632988   -0.532675
     89          1           0       -3.150767    7.301394   -0.504115
     90          1           0       -2.974072    4.097151   -4.009570
     91          1           0       -2.338829    5.526665   -3.509097
     92          1           0       -5.125437    5.542772   -4.035303
     93          1           0       -4.207021    5.303387   -5.453895
     94          1           0       -4.035237    6.779969   -4.380386
     95          1           0       -6.562331   -0.795950   -4.858894
     96          1           0       -5.508072    0.602707   -5.023277
     97          1           0       -7.183168    0.771925   -4.462638
     98          1           0       -4.743068   -3.933449   -1.101738
     99          1           0       -7.564646   -4.043376    2.530656
    100          1           0       -8.991189   -3.341316    1.725154
    101          1           0       -7.813489   -2.366612    2.698575
    102          1           0        2.161182   -5.493143   -0.605450
    103          1           0        2.544594   -5.047106    0.962189
    104          1           0        3.682876   -3.144100    0.479570
    105          1           0        1.839487   -4.508083   -2.456822
    106          1           0        3.353900   -4.005356   -3.475181
    107          1           0        2.083734   -2.980804   -3.402290
    108          1           0        5.215120   -2.682894   -2.323842
    109          1           0        4.972486   -2.058110   -0.826612
    110          1           0        4.281957   -0.066791   -1.629583
    111          1           0        2.958541   -0.932530   -2.447793
    112          1           0        3.957509   -0.704034   -4.508404
    113          1           0        5.373245   -1.519487   -3.945256
    114          1           0        5.072896    1.392293   -3.055805
    115          1           0        4.532128    0.889262   -5.762575
    116          1           0        6.286722    1.041650   -5.726759
    117          1           0        5.236081    2.326536   -5.071816
    118          1           0        7.614080    0.333707   -4.093384
    119          1           0        7.102395   -0.341277   -2.631232
    120          1           0        6.673767    2.574670   -2.552704
    121          1           0        8.283715    2.136539   -3.096542
    122          1           0        7.198481    0.696092   -0.639566
    123          1           0        7.254494    2.567603   -0.628305
    124          1           0        9.763990    1.433255   -1.624935
    125          1           0        8.893795    3.817301   -0.168228
    126          1           0       10.446722    3.329572   -0.906706
    127          1           0       10.195747    2.914440    0.750187
    128          1           0        8.967493   -0.486342   -0.062784
    129          1           0        9.166237    0.660051    1.226730
    130          1           0       11.594292    0.968939   -0.147402
    131          1           0       11.277400   -0.832601   -0.292331
    132          1           0       10.929730    0.225186    2.416916
    133          1           0       12.614439    0.206629    1.822530
    134          1           0       10.881888   -2.223737    1.175828
    135          1           0       11.698585   -2.895586    3.782648
    136          1           0       10.007778   -2.610194    3.164157
    137          1           0       10.917368   -1.311567    3.943907
    138          1           0       12.923790   -3.055860    0.893144
    139          1           0       13.535822   -2.500910    2.569138
    140          1           0       13.679067   -1.603861    1.091472
 ---------------------------------------------------------------------

 SCF Done:  E(RB-LYP) =  -3007.33653052     A.U. after   22 cycles

 Excitation energies and oscillator strengths:

 Excited State   1:      Singlet-A      1.6546 eV  749.35 nm  f=0.0005  <S**2>=0.000
     244 -> 247        0.70454
 This state for optimization and/or second-order correction.
 Total Energy, E(TD-HF/TD-DFT) =  -3007.27572683
 Copying the excited state density for this state as the 1-particle RhoCI density.

 Excited State   2:      Singlet-A      1.7912 eV  692.20 nm  f=0.2857  <S**2>=0.000
     245 -> 248        0.18381
     246 -> 247        0.68398
     246 <- 247       -0.14522

 Excited State   3:      Singlet-A      1.9313 eV  641.96 nm  f=0.0726  <S**2>=0.000
     241 -> 247       -0.15223
     243 -> 247        0.10884
     245 -> 247        0.63711
     246 -> 248       -0.19332

 Excited State   4:      Singlet-A      2.0391 eV  608.05 nm  f=0.0033  <S**2>=0.000
     243 -> 247        0.69787

 Excited State   5:      Singlet-A      2.1156 eV  586.05 nm  f=0.0000  <S**2>=0.000
     242 -> 247        0.70696

 The electronic state is 1-A.
 Alpha  occ. eigenvalues --  -46.28642 -18.82007 -18.81831 -18.76603 -18.75887
 Alpha  occ. eigenvalues --  -18.75491 -18.74826 -14.04035 -14.03511 -14.01585
 Alpha  occ. eigenvalues --  -14.00766 -10.03657 -10.03548 -10.01409  -9.98818
 Alpha  occ. eigenvalues --   -9.98433  -9.97569  -9.97273  -9.96792  -9.96759
 Alpha  occ. eigenvalues --   -9.96735  -9.96717  -9.96122  -9.95309  -9.94610
 Alpha  occ. eigenvalues --   -9.94581  -9.94483  -9.94345  -9.94103  -9.94088
 Alpha  occ. eigenvalues --   -9.93957  -9.93590  -9.93567  -9.93552  -9.93465
 Alpha  occ. eigenvalues --   -9.93441  -9.93244  -9.93115  -9.93083  -9.93021
 Alpha  occ. eigenvalues --   -9.92961  -9.92862  -9.92767  -9.92560  -9.92501
 Alpha  occ. eigenvalues --   -9.92127  -9.92069  -9.91974  -9.91859  -9.91818
 Alpha  occ. eigenvalues --   -9.91488  -9.91337  -9.91282  -9.91263  -9.91255
 Alpha  occ. eigenvalues --   -9.91240  -9.91207  -9.91200  -9.91039  -9.90889
 Alpha  occ. eigenvalues --   -9.90885  -9.90869  -9.90731  -9.90716  -9.90681
 Alpha  occ. eigenvalues --   -9.90552  -2.93125  -1.73503  -1.73034  -1.72837
 Alpha  occ. eigenvalues --   -0.97276  -0.96938  -0.92123  -0.91543  -0.89111
 Alpha  occ. eigenvalues --   -0.87514  -0.87385  -0.86594  -0.86047  -0.85364
 Alpha  occ. eigenvalues --   -0.75520  -0.73999  -0.73744  -0.72623  -0.72328
 Alpha  occ. eigenvalues --   -0.72231  -0.71787  -0.71241  -0.70521  -0.70270
 Alpha  occ. eigenvalues --   -0.69863  -0.68974  -0.68482  -0.68213  -0.67267
 Alpha  occ. eigenvalues --   -0.66973  -0.66422  -0.65871  -0.65068  -0.64484
 Alpha  occ. eigenvalues --   -0.63686  -0.63209  -0.62483  -0.61982  -0.61311
 Alpha  occ. eigenvalues --   -0.60591  -0.60303  -0.59776  -0.59622  -0.58907
 Alpha  occ. eigenvalues --   -0.58450  -0.57636  -0.57175  -0.55549  -0.54997
 Alpha  occ. eigenvalues --   -0.54147  -0.53471  -0.52714  -0.52422  -0.52145
 Alpha  occ. eigenvalues --   -0.51267  -0.51063  -0.50854  -0.50800  -0.49952
 Alpha  occ. eigenvalues --   -0.49668  -0.49573  -0.49148  -0.48805  -0.47193
 Alpha  occ. eigenvalues --   -0.46588  -0.46005  -0.45731  -0.45418  -0.45202
 Alpha  occ. eigenvalues --   -0.44189  -0.43953  -0.43575  -0.42944  -0.42830
 Alpha  occ. eigenvalues --   -0.42622  -0.42163  -0.41534  -0.41156  -0.40942
 Alpha  occ. eigenvalues --   -0.40811  -0.40692  -0.40405  -0.40334  -0.40212
 Alpha  occ. eigenvalues --   -0.39740  -0.39453  -0.39360  -0.39338  -0.39145
 Alpha  occ. eigenvalues --   -0.38941  -0.38767  -0.38701  -0.38294  -0.38250
 Alpha  occ. eigenvalues --   -0.38187  -0.37818  -0.37708  -0.37435  -0.37367
 Alpha  occ. eigenvalues --   -0.37191  -0.36920  -0.36633  -0.36428  -0.36260
 Alpha  occ. eigenvalues --   -0.36067  -0.35868  -0.35828  -0.35793  -0.35536
 Alpha  occ. eigenvalues --   -0.35442  -0.35238  -0.34994  -0.34838  -0.34780
 Alpha  occ. eigenvalues --   -0.34551  -0.34463  -0.34413  -0.34035  -0.33870
 Alpha  occ. eigenvalues --   -0.33792  -0.33684  -0.33528  -0.33527  -0.33459
 Alpha  occ. eigenvalues --   -0.33179  -0.32969  -0.32745  -0.32715  -0.32463
 Alpha  occ. eigenvalues --   -0.31928  -0.31822  -0.31584  -0.31535  -0.31430
 Alpha  occ. eigenvalues --   -0.31131  -0.31066  -0.30931  -0.30875  -0.30664
 Alpha  occ. eigenvalues --   -0.30574  -0.30317  -0.30241  -0.30031  -0.29925
 Alpha  occ. eigenvalues --   -0.29758  -0.29383  -0.29209  -0.29097  -0.28810
 Alpha  occ. eigenvalues --   -0.28416  -0.28368  -0.28219  -0.28178  -0.28006
 Alpha  occ. eigenvalues --   -0.27859  -0.27614  -0.27038  -0.26711  -0.26618
 Alpha  occ. eigenvalues --   -0.26433  -0.26116  -0.26097  -0.26009  -0.25068
 Alpha  occ. eigenvalues --   -0.24583  -0.24489  -0.24284  -0.23775  -0.23715
 Alpha  occ. eigenvalues --   -0.22605  -0.22458  -0.21451  -0.21158  -0.20782
 Alpha  occ. eigenvalues --   -0.20314  -0.19940  -0.19567  -0.18153  -0.17599
 Alpha  occ. eigenvalues --   -0.16443
 Alpha virt. eigenvalues --   -0.12166  -0.07695  -0.06294  -0.05260  -0.04401
 Alpha virt. eigenvalues --   -0.02983  -0.02852  -0.02433  -0.01504  -0.00680
 Alpha virt. eigenvalues --    0.00731   0.01768   0.01988   0.02432   0.02868

 Mulliken charges:
               1
     1  Mg   0.667746
     2  C    0.059991
     3  C   -0.061610
     4  C   -0.070956
     5  C   -0.068200
     6  N   -0.215580
     7  C   -0.101465
     8  C    0.039191
     9  C    0.018290
    10  C    0.029806
    11  C    0.130247
    12  C    0.046865
    13  C    0.139286
    14  C    0.083278
    15  O   -0.189655
    16  O   -0.256545
    17  N   -0.280914
    18  C    0.120508
    19  C   -0.107777
    20  C    0.017323
    21  C    0.140604
    22  C    0.162436
    23  C   -0.033150
    24  O   -0.158096
    25  C    0.124702
    26  N   -0.221846
    27  C    0.009017
    28  C    0.033810
    29  C    0.085433
    30  C    0.078281
    31  C    0.102248
    32  C    0.083685
    33  C    0.067931
    34  N   -0.236935
    35  C    0.061744
    36  C   -0.150096
    37  C    0.106610
    38  C    0.036409
    39  C    0.147971
    40  C   -0.118453
    41  O   -0.104838
    42  C    0.075997
    43  C    0.118605
    44  O   -0.208420
    45  O   -0.270448
    46  C    0.221137
    47  C    0.352175
    48  C   -0.130386
    49  C   -0.161014
    50  C    0.144816
    51  C    0.092428
    52  C    0.089092
    53  C    0.113859
    54  C   -0.075177
    55  C    0.125692
    56  C    0.116486
    57  C    0.037303
    58  C    0.131722
    59  C   -0.124856
    60  C    0.110173
    61  C    0.085317
    62  C    0.078808
    63  C    0.116680
    64  C   -0.143998
    65  C    0.103307
    66  C    0.089776
    67  H   -0.055808
    68  H   -0.076621
    69  H   -0.064878
    70  H   -0.030807
    71  H   -0.016918
    72  H   -0.018671
    73  H   -0.015039
    74  H    0.006732
    75  H    0.007749
    76  H   -0.020051
    77  H   -0.005696
    78  H   -0.004832
    79  H   -0.021811
    80  H    0.001167
    81  H   -0.000297
    82  H    0.027948
    83  H    0.008293
    84  H   -0.012313
    85  H   -0.009440
    86  H   -0.017667
    87  H    0.005001
    88  H   -0.020351
    89  H   -0.012409
    90  H   -0.033148
    91  H   -0.029183
    92  H   -0.042066
    93  H    0.000393
    94  H   -0.012464
    95  H    0.004064
    96  H   -0.003660
    97  H    0.007982
    98  H    0.008432
    99  H    0.009519
   100  H    0.026554
   101  H    0.008449
   102  H    0.013126
   103  H   -0.027671
   104  H   -0.041883
   105  H    0.026093
   106  H   -0.015983
   107  H   -0.015749
   108  H   -0.024324
   109  H   -0.052356
   110  H   -0.014704
   111  H   -0.017504
   112  H   -0.042429
   113  H   -0.028438
   114  H   -0.030372
   115  H   -0.015451
   116  H   -0.023471
   117  H   -0.023840
   118  H   -0.046392
   119  H   -0.040239
   120  H   -0.037539
   121  H   -0.027094
   122  H   -0.019969
   123  H   -0.036530
   124  H   -0.026776
   125  H   -0.002539
   126  H   -0.016470
   127  H   -0.012414
   128  H   -0.033101
   129  H   -0.030782
   130  H   -0.032641
   131  H   -0.021084
   132  H   -0.039471
   133  H   -0.027577
   134  H   -0.024806
   135  H   -0.010817
   136  H   -0.010962
   137  H   -0.018809
   138  H   -0.021722
   139  H   -0.003610
   140  H   -0.028219
 Sum of Mulliken charges =  -0.00000

 Dipole moment (field-independent basis, Debye):
    X=              1.5969    Y=              8.1575    Z=              1.6747  Tot=              8.4794
 Quadrupole moment (field-independent basis, Debye-Ang):
   XX=           -404.0554   YY=           -420.0367   ZZ=           -408.9632
   XY=            -51.1086   XZ=            -33.0726   YZ=            -37.7508

 Normal termination of Gaussian 16 at Wed May  4 23:10:03 2022.
