 Gaussian 16, Revision A.03,
 Gaussian 16:  ES64L-G16RevA.03 25-Dec-2016

 -----------------------------------
 #p cam-b3lyp/Def2SVP td=(nstates=5)
 -----------------------------------

 -------------------------------------------------------
 step_451_chromophore_26 TDDFT with cam-b3lyp functional
 -------------------------------------------------------
 Symbolic Z-matrix:
 Charge =  0 Multiplicity = 1

                         Standard orientation:
 ---------------------------------------------------------------------
 Center     Atomic      Atomic             Coordinates (Angstroms)
 Number     Number       Type             X           Y           Z
 ---------------------------------------------------------------------
      1         12           0       -3.597859    1.179716    0.616819
      2          6           0       -4.675447   -1.969336   -0.186186
      3          6           0       -2.172472   -0.103073    3.509724
      4          6           0       -2.224720    4.176162    1.213713
      5          6           0       -4.541293    2.238169   -2.637914
      6          7           0       -3.293487   -0.876943    1.490903
      7          6           0       -4.003513   -1.956665    1.039203
      8          6           0       -3.576116   -3.166187    1.929322
      9          6           0       -2.991056   -2.494988    3.238344
     10          6           0       -2.796123   -1.053437    2.738014
     11          6           0       -3.941975   -2.531006    4.491412
     12          6           0       -2.579368   -4.067431    1.171786
     13          6           0       -1.594797   -3.444650    0.191000
     14          6           0       -0.369134   -4.341683   -0.248048
     15          8           0       -0.428808   -5.267292   -1.032406
     16          8           0        0.737849   -4.053932    0.475698
     17          7           0       -2.363226    1.962623    2.144628
     18          6           0       -1.969546    1.306792    3.258838
     19          6           0       -1.334181    2.199619    4.194798
     20          6           0       -1.294734    3.460791    3.573220
     21          6           0       -1.920577    3.286689    2.250156
     22          6           0       -0.847602    1.787666    5.544556
     23          6           0       -0.665977    4.775824    4.216726
     24          8           0       -0.175328    4.640539    5.336006
     25          6           0       -0.661960    6.077549    3.505396
     26          7           0       -3.105985    2.805751   -0.660079
     27          6           0       -2.860398    3.983895   -0.061119
     28          6           0       -3.081386    5.161034   -0.931106
     29          6           0       -3.871177    4.537646   -2.104973
     30          6           0       -3.792520    3.123928   -1.842192
     31          6           0       -3.720076    6.423223   -0.198274
     32          6           0       -3.282956    4.984424   -3.457043
     33          6           0       -4.124595    5.694668   -4.440109
     34          7           0       -4.380971    0.309024   -1.142072
     35          6           0       -4.885932    0.883075   -2.352133
     36          6           0       -5.632470   -0.069529   -3.055121
     37          6           0       -5.641612   -1.262427   -2.230102
     38          6           0       -4.810568   -0.915611   -1.134466
     39          6           0       -6.285696    0.155590   -4.404506
     40          6           0       -6.022670   -2.622422   -2.096737
     41          8           0       -6.682567   -3.377399   -2.770903
     42          6           0       -5.430591   -3.153705   -0.772293
     43          6           0       -6.469407   -3.781578    0.078949
     44          8           0       -6.710898   -5.023233    0.079651
     45          8           0       -7.149063   -2.863529    0.818472
     46          6           0       -7.944508   -3.180118    1.984018
     47          6           0        2.047432   -4.650320    0.075622
     48          6           0        3.004522   -3.558716   -0.265252
     49          6           0        3.262932   -3.115117   -1.542305
     50          6           0        2.549265   -3.749805   -2.786302
     51          6           0        4.431166   -2.170125   -1.765567
     52          6           0        4.039514   -0.811346   -2.387607
     53          6           0        4.729275   -0.664063   -3.740333
     54          6           0        5.518978    0.688474   -3.758649
     55          6           0        5.373160    1.249495   -5.170263
     56          6           0        6.923534    0.522976   -3.270669
     57          6           0        7.427018    1.787576   -2.520000
     58          6           0        7.628466    1.622168   -1.021855
     59          6           0        9.203343    1.623649   -0.709580
     60          6           0        9.669667    3.052870   -0.194257
     61          6           0        9.532251    0.396952    0.234576
     62          6           0       11.070837    0.095609    0.240998
     63          6           0       11.608663   -0.184829    1.669481
     64          6           0       11.539812   -1.717939    1.882840
     65          6           0       11.005313   -2.197363    3.314328
     66          6           0       13.011952   -2.267490    1.642073
     67          1           0       -1.971975   -0.423910    4.534221
     68          1           0       -1.936451    5.220867    1.348908
     69          1           0       -5.051141    2.516566   -3.562637
     70          1           0       -4.390193   -3.864991    2.126637
     71          1           0       -2.066742   -3.040268    3.426240
     72          1           0       -4.926006   -2.890467    4.190579
     73          1           0       -4.170868   -1.512365    4.803000
     74          1           0       -3.575696   -3.082521    5.357660
     75          1           0       -3.140458   -4.832852    0.636102
     76          1           0       -1.919947   -4.549890    1.893932
     77          1           0       -1.212630   -2.509453    0.600235
     78          1           0       -2.185656   -3.262520   -0.706946
     79          1           0       -0.490228    0.758656    5.521585
     80          1           0       -1.540584    1.822806    6.384942
     81          1           0        0.045438    2.283670    5.926401
     82          1           0       -1.557296    6.690808    3.611848
     83          1           0       -0.394646    5.962112    2.454992
     84          1           0        0.177854    6.727015    3.750197
     85          1           0       -2.114252    5.510756   -1.293555
     86          1           0       -4.899949    4.896985   -2.082428
     87          1           0       -3.828032    6.417049    0.886742
     88          1           0       -4.735932    6.632988   -0.532675
     89          1           0       -3.150767    7.301394   -0.504115
     90          1           0       -2.974072    4.097151   -4.009570
     91          1           0       -2.338829    5.526665   -3.509097
     92          1           0       -5.125437    5.542772   -4.035303
     93          1           0       -4.207021    5.303387   -5.453895
     94          1           0       -4.035237    6.779969   -4.380386
     95          1           0       -6.562331   -0.795950   -4.858894
     96          1           0       -5.508072    0.602707   -5.023277
     97          1           0       -7.183168    0.771925   -4.462638
     98          1           0       -4.743068   -3.933449   -1.101738
     99          1           0       -7.564646   -4.043376    2.530656
    100          1           0       -8.991189   -3.341316    1.725154
    101          1           0       -7.813489   -2.366612    2.698575
    102          1           0        2.161182   -5.493143   -0.605450
    103          1           0        2.544594   -5.047106    0.962189
    104          1           0        3.682876   -3.144100    0.479570
    105          1           0        1.839487   -4.508083   -2.456822
    106          1           0        3.353900   -4.005356   -3.475181
    107          1           0        2.083734   -2.980804   -3.402290
    108          1           0        5.215120   -2.682894   -2.323842
    109          1           0        4.972486   -2.058110   -0.826612
    110          1           0        4.281957   -0.066791   -1.629583
    111          1           0        2.958541   -0.932530   -2.447793
    112          1           0        3.957509   -0.704034   -4.508404
    113          1           0        5.373245   -1.519487   -3.945256
    114          1           0        5.072896    1.392293   -3.055805
    115          1           0        4.532128    0.889262   -5.762575
    116          1           0        6.286722    1.041650   -5.726759
    117          1           0        5.236081    2.326536   -5.071816
    118          1           0        7.614080    0.333707   -4.093384
    119          1           0        7.102395   -0.341277   -2.631232
    120          1           0        6.673767    2.574670   -2.552704
    121          1           0        8.283715    2.136539   -3.096542
    122          1           0        7.198481    0.696092   -0.639566
    123          1           0        7.254494    2.567603   -0.628305
    124          1           0        9.763990    1.433255   -1.624935
    125          1           0        8.893795    3.817301   -0.168228
    126          1           0       10.446722    3.329572   -0.906706
    127          1           0       10.195747    2.914440    0.750187
    128          1           0        8.967493   -0.486342   -0.062784
    129          1           0        9.166237    0.660051    1.226730
    130          1           0       11.594292    0.968939   -0.147402
    131          1           0       11.277400   -0.832601   -0.292331
    132          1           0       10.929730    0.225186    2.416916
    133          1           0       12.614439    0.206629    1.822530
    134          1           0       10.881888   -2.223737    1.175828
    135          1           0       11.698585   -2.895586    3.782648
    136          1           0       10.007778   -2.610194    3.164157
    137          1           0       10.917368   -1.311567    3.943907
    138          1           0       12.923790   -3.055860    0.893144
    139          1           0       13.535822   -2.500910    2.569138
    140          1           0       13.679067   -1.603861    1.091472
 ---------------------------------------------------------------------

 SCF Done:  E(RCAM-B3LYP) =  -3007.12904364     A.U. after   18 cycles

 Excitation energies and oscillator strengths:

 Excited State   1:      Singlet-A      1.7615 eV  703.87 nm  f=0.3627  <S**2>=0.000
     245 -> 248       -0.15832
     246 -> 247        0.68662
 This state for optimization and/or second-order correction.
 Total Energy, E(TD-HF/TD-DFT) =  -3007.06431077
 Copying the excited state density for this state as the 1-particle RhoCI density.

 Excited State   2:      Singlet-A      2.1695 eV  571.50 nm  f=0.1141  <S**2>=0.000
     245 -> 247        0.64633
     246 -> 248        0.26082

 Excited State   3:      Singlet-A      3.3514 eV  369.95 nm  f=0.0043  <S**2>=0.000
     240 -> 247        0.16019
     241 -> 247        0.46554
     242 -> 247       -0.20871
     244 -> 247       -0.44010

 Excited State   4:      Singlet-A      3.3969 eV  364.99 nm  f=0.0112  <S**2>=0.000
     241 -> 247       -0.11946
     242 -> 247        0.43894
     242 -> 249       -0.14501
     242 -> 251        0.19626
     244 -> 247       -0.39277
     246 -> 248        0.17934

 Excited State   5:      Singlet-A      3.4352 eV  360.92 nm  f=0.1033  <S**2>=0.000
     240 -> 247       -0.17854
     241 -> 247       -0.26631
     242 -> 247       -0.36144
     242 -> 249        0.10207
     242 -> 251       -0.12485
     244 -> 247       -0.20738
     245 -> 247       -0.11458
     246 -> 248        0.40275

 The electronic state is 1-A.
 Alpha  occ. eigenvalues --  -46.90322 -19.24718 -19.24605 -19.20370 -19.18740
 Alpha  occ. eigenvalues --  -19.18365 -19.17299 -14.43164 -14.42221 -14.40431
 Alpha  occ. eigenvalues --  -14.38864 -10.38949 -10.38712 -10.37131 -10.33485
 Alpha  occ. eigenvalues --  -10.32319 -10.32258 -10.31926 -10.31637 -10.31584
 Alpha  occ. eigenvalues --  -10.31247 -10.30970 -10.30721 -10.29224 -10.28810
 Alpha  occ. eigenvalues --  -10.28750 -10.28742 -10.28688 -10.28329 -10.28297
 Alpha  occ. eigenvalues --  -10.28005 -10.27915 -10.27902 -10.27651 -10.27532
 Alpha  occ. eigenvalues --  -10.27531 -10.27512 -10.27256 -10.27119 -10.27010
 Alpha  occ. eigenvalues --  -10.26847 -10.26608 -10.26584 -10.26085 -10.26031
 Alpha  occ. eigenvalues --  -10.25936 -10.25910 -10.25883 -10.25592 -10.25411
 Alpha  occ. eigenvalues --  -10.25122 -10.25057 -10.25013 -10.24995 -10.24914
 Alpha  occ. eigenvalues --  -10.24902 -10.24783 -10.24742 -10.24634 -10.24543
 Alpha  occ. eigenvalues --  -10.24504 -10.24484 -10.24425 -10.24348 -10.24320
 Alpha  occ. eigenvalues --  -10.24093  -3.18696  -1.93554  -1.93171  -1.92990
 Alpha  occ. eigenvalues --   -1.15624  -1.15161  -1.11021  -1.09355  -1.06859
 Alpha  occ. eigenvalues --   -1.05396  -1.05118  -1.04244  -1.03723  -1.02957
 Alpha  occ. eigenvalues --   -0.92303  -0.90726  -0.90580  -0.89349  -0.89157
 Alpha  occ. eigenvalues --   -0.89037  -0.88493  -0.87887  -0.87129  -0.86815
 Alpha  occ. eigenvalues --   -0.86557  -0.85450  -0.84694  -0.84364  -0.83704
 Alpha  occ. eigenvalues --   -0.83110  -0.82477  -0.81744  -0.80837  -0.80236
 Alpha  occ. eigenvalues --   -0.79422  -0.78722  -0.78277  -0.77650  -0.76662
 Alpha  occ. eigenvalues --   -0.76002  -0.75628  -0.75133  -0.74918  -0.74167
 Alpha  occ. eigenvalues --   -0.73382  -0.72661  -0.72111  -0.70404  -0.69547
 Alpha  occ. eigenvalues --   -0.68569  -0.68046  -0.67492  -0.66559  -0.66440
 Alpha  occ. eigenvalues --   -0.65470  -0.65058  -0.64975  -0.64665  -0.63981
 Alpha  occ. eigenvalues --   -0.63266  -0.63223  -0.63125  -0.62732  -0.61062
 Alpha  occ. eigenvalues --   -0.60230  -0.59627  -0.59232  -0.58757  -0.58465
 Alpha  occ. eigenvalues --   -0.57640  -0.57219  -0.56745  -0.55982  -0.55886
 Alpha  occ. eigenvalues --   -0.55635  -0.55162  -0.54273  -0.53937  -0.53726
 Alpha  occ. eigenvalues --   -0.53563  -0.53414  -0.53313  -0.53094  -0.52845
 Alpha  occ. eigenvalues --   -0.52534  -0.52436  -0.52017  -0.51937  -0.51784
 Alpha  occ. eigenvalues --   -0.51626  -0.51356  -0.51190  -0.51090  -0.50888
 Alpha  occ. eigenvalues --   -0.50671  -0.50510  -0.50357  -0.49905  -0.49651
 Alpha  occ. eigenvalues --   -0.49431  -0.49111  -0.48900  -0.48712  -0.48603
 Alpha  occ. eigenvalues --   -0.48290  -0.48085  -0.47991  -0.47887  -0.47731
 Alpha  occ. eigenvalues --   -0.47648  -0.47307  -0.47132  -0.46632  -0.46619
 Alpha  occ. eigenvalues --   -0.46464  -0.46308  -0.46165  -0.46044  -0.45671
 Alpha  occ. eigenvalues --   -0.45556  -0.45438  -0.45235  -0.45181  -0.45096
 Alpha  occ. eigenvalues --   -0.45000  -0.44586  -0.44410  -0.44281  -0.44012
 Alpha  occ. eigenvalues --   -0.43691  -0.43423  -0.43369  -0.43232  -0.43101
 Alpha  occ. eigenvalues --   -0.43020  -0.42550  -0.42334  -0.42245  -0.41890
 Alpha  occ. eigenvalues --   -0.41780  -0.41564  -0.41526  -0.41427  -0.41142
 Alpha  occ. eigenvalues --   -0.40981  -0.40613  -0.40414  -0.40349  -0.40210
 Alpha  occ. eigenvalues --   -0.40034  -0.39367  -0.39213  -0.39151  -0.38965
 Alpha  occ. eigenvalues --   -0.38885  -0.38479  -0.37983  -0.37868  -0.37226
 Alpha  occ. eigenvalues --   -0.37147  -0.37064  -0.36835  -0.36696  -0.35885
 Alpha  occ. eigenvalues --   -0.35610  -0.35593  -0.34704  -0.34298  -0.33783
 Alpha  occ. eigenvalues --   -0.33257  -0.32911  -0.32805  -0.32339  -0.31641
 Alpha  occ. eigenvalues --   -0.30898  -0.29699  -0.29596  -0.29452  -0.24423
 Alpha  occ. eigenvalues --   -0.21939
 Alpha virt. eigenvalues --   -0.09306  -0.02439  -0.00147   0.00698   0.01872
 Alpha virt. eigenvalues --    0.04527   0.04606   0.05104   0.06432   0.06694
 Alpha virt. eigenvalues --    0.07566   0.08063   0.08377   0.08560   0.08757

 Mulliken charges:
               1
     1  Mg   0.797589
     2  C    0.027638
     3  C   -0.077559
     4  C   -0.091620
     5  C   -0.060488
     6  N   -0.285354
     7  C   -0.061421
     8  C   -0.004497
     9  C   -0.039459
    10  C    0.047704
    11  C    0.073427
    12  C    0.001832
    13  C    0.072679
    14  C    0.163598
    15  O   -0.230780
    16  O   -0.321464
    17  N   -0.369701
    18  C    0.138041
    19  C   -0.116997
    20  C   -0.041143
    21  C    0.168224
    22  C    0.104405
    23  C    0.046465
    24  O   -0.194712
    25  C    0.038688
    26  N   -0.285083
    27  C    0.041000
    28  C   -0.027515
    29  C    0.018345
    30  C    0.085217
    31  C    0.042768
    32  C    0.024507
    33  C    0.007098
    34  N   -0.324564
    35  C    0.053087
    36  C   -0.146036
    37  C    0.022256
    38  C    0.075174
    39  C    0.097812
    40  C   -0.019381
    41  O   -0.150179
    42  C   -0.000528
    43  C    0.206055
    44  O   -0.247841
    45  O   -0.332755
    46  C    0.186413
    47  C    0.308970
    48  C   -0.149606
    49  C   -0.178837
    50  C    0.088067
    51  C    0.038206
    52  C    0.029574
    53  C    0.059655
    54  C   -0.133951
    55  C    0.067615
    56  C    0.065501
    57  C   -0.015385
    58  C    0.076921
    59  C   -0.173198
    60  C    0.051123
    61  C    0.039745
    62  C    0.020407
    63  C    0.060104
    64  C   -0.201027
    65  C    0.047410
    66  C    0.031311
    67  H   -0.021410
    68  H   -0.040555
    69  H   -0.028993
    70  H    0.003725
    71  H    0.020035
    72  H    0.005537
    73  H    0.010704
    74  H    0.031724
    75  H    0.035993
    76  H    0.008883
    77  H    0.025626
    78  H    0.025536
    79  H    0.006962
    80  H    0.031548
    81  H    0.033162
    82  H    0.057538
    83  H    0.036271
    84  H    0.024821
    85  H    0.027030
    86  H    0.016601
    87  H    0.028700
    88  H    0.007316
    89  H    0.013604
    90  H    0.000173
    91  H   -0.000447
    92  H   -0.019116
    93  H    0.025933
    94  H    0.010582
    95  H    0.031081
    96  H    0.017946
    97  H    0.031369
    98  H    0.047363
    99  H    0.030847
   100  H    0.048469
   101  H    0.028832
   102  H    0.045981
   103  H    0.002763
   104  H   -0.009378
   105  H    0.048511
   106  H    0.008078
   107  H    0.008667
   108  H    0.003433
   109  H   -0.021307
   110  H    0.012211
   111  H    0.012216
   112  H   -0.011846
   113  H   -0.001055
   114  H    0.000591
   115  H    0.009674
   116  H    0.000165
   117  H    0.000302
   118  H   -0.016055
   119  H   -0.013916
   120  H   -0.009728
   121  H    0.001308
   122  H    0.005380
   123  H   -0.007479
   124  H    0.002699
   125  H    0.020432
   126  H    0.006708
   127  H    0.010129
   128  H   -0.006488
   129  H   -0.003822
   130  H   -0.003928
   131  H    0.005978
   132  H   -0.012272
   133  H    0.002595
   134  H    0.005397
   135  H    0.012853
   136  H    0.012004
   137  H    0.004154
   138  H    0.002712
   139  H    0.019366
   140  H   -0.003976
 Sum of Mulliken charges =  -0.00000

 Dipole moment (field-independent basis, Debye):
    X=              2.3143    Y=              9.4031    Z=              2.8920  Tot=             10.1063
 Quadrupole moment (field-independent basis, Debye-Ang):
   XX=           -408.5749   YY=           -415.8319   ZZ=           -405.6784
   XY=            -55.2014   XZ=            -36.8112   YZ=            -37.5344

 Normal termination of Gaussian 16 at Wed May  4 21:29:18 2022.
