 Gaussian 16, Revision A.03,
 Gaussian 16:  ES64L-G16RevA.03 25-Dec-2016

 ---------------------------------
 #p PBE1PBE/Def2SVP td=(nstates=5)
 ---------------------------------

 -----------------------------------------------------
 step_451_chromophore_26 TDDFT with PBE1PBE functional
 -----------------------------------------------------
 Symbolic Z-matrix:
 Charge =  0 Multiplicity = 1

                         Standard orientation:
 ---------------------------------------------------------------------
 Center     Atomic      Atomic             Coordinates (Angstroms)
 Number     Number       Type             X           Y           Z
 ---------------------------------------------------------------------
      1         12           0       -3.597859    1.179716    0.616819
      2          6           0       -4.675447   -1.969336   -0.186186
      3          6           0       -2.172472   -0.103073    3.509724
      4          6           0       -2.224720    4.176162    1.213713
      5          6           0       -4.541293    2.238169   -2.637914
      6          7           0       -3.293487   -0.876943    1.490903
      7          6           0       -4.003513   -1.956665    1.039203
      8          6           0       -3.576116   -3.166187    1.929322
      9          6           0       -2.991056   -2.494988    3.238344
     10          6           0       -2.796123   -1.053437    2.738014
     11          6           0       -3.941975   -2.531006    4.491412
     12          6           0       -2.579368   -4.067431    1.171786
     13          6           0       -1.594797   -3.444650    0.191000
     14          6           0       -0.369134   -4.341683   -0.248048
     15          8           0       -0.428808   -5.267292   -1.032406
     16          8           0        0.737849   -4.053932    0.475698
     17          7           0       -2.363226    1.962623    2.144628
     18          6           0       -1.969546    1.306792    3.258838
     19          6           0       -1.334181    2.199619    4.194798
     20          6           0       -1.294734    3.460791    3.573220
     21          6           0       -1.920577    3.286689    2.250156
     22          6           0       -0.847602    1.787666    5.544556
     23          6           0       -0.665977    4.775824    4.216726
     24          8           0       -0.175328    4.640539    5.336006
     25          6           0       -0.661960    6.077549    3.505396
     26          7           0       -3.105985    2.805751   -0.660079
     27          6           0       -2.860398    3.983895   -0.061119
     28          6           0       -3.081386    5.161034   -0.931106
     29          6           0       -3.871177    4.537646   -2.104973
     30          6           0       -3.792520    3.123928   -1.842192
     31          6           0       -3.720076    6.423223   -0.198274
     32          6           0       -3.282956    4.984424   -3.457043
     33          6           0       -4.124595    5.694668   -4.440109
     34          7           0       -4.380971    0.309024   -1.142072
     35          6           0       -4.885932    0.883075   -2.352133
     36          6           0       -5.632470   -0.069529   -3.055121
     37          6           0       -5.641612   -1.262427   -2.230102
     38          6           0       -4.810568   -0.915611   -1.134466
     39          6           0       -6.285696    0.155590   -4.404506
     40          6           0       -6.022670   -2.622422   -2.096737
     41          8           0       -6.682567   -3.377399   -2.770903
     42          6           0       -5.430591   -3.153705   -0.772293
     43          6           0       -6.469407   -3.781578    0.078949
     44          8           0       -6.710898   -5.023233    0.079651
     45          8           0       -7.149063   -2.863529    0.818472
     46          6           0       -7.944508   -3.180118    1.984018
     47          6           0        2.047432   -4.650320    0.075622
     48          6           0        3.004522   -3.558716   -0.265252
     49          6           0        3.262932   -3.115117   -1.542305
     50          6           0        2.549265   -3.749805   -2.786302
     51          6           0        4.431166   -2.170125   -1.765567
     52          6           0        4.039514   -0.811346   -2.387607
     53          6           0        4.729275   -0.664063   -3.740333
     54          6           0        5.518978    0.688474   -3.758649
     55          6           0        5.373160    1.249495   -5.170263
     56          6           0        6.923534    0.522976   -3.270669
     57          6           0        7.427018    1.787576   -2.520000
     58          6           0        7.628466    1.622168   -1.021855
     59          6           0        9.203343    1.623649   -0.709580
     60          6           0        9.669667    3.052870   -0.194257
     61          6           0        9.532251    0.396952    0.234576
     62          6           0       11.070837    0.095609    0.240998
     63          6           0       11.608663   -0.184829    1.669481
     64          6           0       11.539812   -1.717939    1.882840
     65          6           0       11.005313   -2.197363    3.314328
     66          6           0       13.011952   -2.267490    1.642073
     67          1           0       -1.971975   -0.423910    4.534221
     68          1           0       -1.936451    5.220867    1.348908
     69          1           0       -5.051141    2.516566   -3.562637
     70          1           0       -4.390193   -3.864991    2.126637
     71          1           0       -2.066742   -3.040268    3.426240
     72          1           0       -4.926006   -2.890467    4.190579
     73          1           0       -4.170868   -1.512365    4.803000
     74          1           0       -3.575696   -3.082521    5.357660
     75          1           0       -3.140458   -4.832852    0.636102
     76          1           0       -1.919947   -4.549890    1.893932
     77          1           0       -1.212630   -2.509453    0.600235
     78          1           0       -2.185656   -3.262520   -0.706946
     79          1           0       -0.490228    0.758656    5.521585
     80          1           0       -1.540584    1.822806    6.384942
     81          1           0        0.045438    2.283670    5.926401
     82          1           0       -1.557296    6.690808    3.611848
     83          1           0       -0.394646    5.962112    2.454992
     84          1           0        0.177854    6.727015    3.750197
     85          1           0       -2.114252    5.510756   -1.293555
     86          1           0       -4.899949    4.896985   -2.082428
     87          1           0       -3.828032    6.417049    0.886742
     88          1           0       -4.735932    6.632988   -0.532675
     89          1           0       -3.150767    7.301394   -0.504115
     90          1           0       -2.974072    4.097151   -4.009570
     91          1           0       -2.338829    5.526665   -3.509097
     92          1           0       -5.125437    5.542772   -4.035303
     93          1           0       -4.207021    5.303387   -5.453895
     94          1           0       -4.035237    6.779969   -4.380386
     95          1           0       -6.562331   -0.795950   -4.858894
     96          1           0       -5.508072    0.602707   -5.023277
     97          1           0       -7.183168    0.771925   -4.462638
     98          1           0       -4.743068   -3.933449   -1.101738
     99          1           0       -7.564646   -4.043376    2.530656
    100          1           0       -8.991189   -3.341316    1.725154
    101          1           0       -7.813489   -2.366612    2.698575
    102          1           0        2.161182   -5.493143   -0.605450
    103          1           0        2.544594   -5.047106    0.962189
    104          1           0        3.682876   -3.144100    0.479570
    105          1           0        1.839487   -4.508083   -2.456822
    106          1           0        3.353900   -4.005356   -3.475181
    107          1           0        2.083734   -2.980804   -3.402290
    108          1           0        5.215120   -2.682894   -2.323842
    109          1           0        4.972486   -2.058110   -0.826612
    110          1           0        4.281957   -0.066791   -1.629583
    111          1           0        2.958541   -0.932530   -2.447793
    112          1           0        3.957509   -0.704034   -4.508404
    113          1           0        5.373245   -1.519487   -3.945256
    114          1           0        5.072896    1.392293   -3.055805
    115          1           0        4.532128    0.889262   -5.762575
    116          1           0        6.286722    1.041650   -5.726759
    117          1           0        5.236081    2.326536   -5.071816
    118          1           0        7.614080    0.333707   -4.093384
    119          1           0        7.102395   -0.341277   -2.631232
    120          1           0        6.673767    2.574670   -2.552704
    121          1           0        8.283715    2.136539   -3.096542
    122          1           0        7.198481    0.696092   -0.639566
    123          1           0        7.254494    2.567603   -0.628305
    124          1           0        9.763990    1.433255   -1.624935
    125          1           0        8.893795    3.817301   -0.168228
    126          1           0       10.446722    3.329572   -0.906706
    127          1           0       10.195747    2.914440    0.750187
    128          1           0        8.967493   -0.486342   -0.062784
    129          1           0        9.166237    0.660051    1.226730
    130          1           0       11.594292    0.968939   -0.147402
    131          1           0       11.277400   -0.832601   -0.292331
    132          1           0       10.929730    0.225186    2.416916
    133          1           0       12.614439    0.206629    1.822530
    134          1           0       10.881888   -2.223737    1.175828
    135          1           0       11.698585   -2.895586    3.782648
    136          1           0       10.007778   -2.610194    3.164157
    137          1           0       10.917368   -1.311567    3.943907
    138          1           0       12.923790   -3.055860    0.893144
    139          1           0       13.535822   -2.500910    2.569138
    140          1           0       13.679067   -1.603861    1.091472
 ---------------------------------------------------------------------

 SCF Done:  E(RPBE1PBE) =  -3005.31889897     A.U. after   16 cycles

 Excitation energies and oscillator strengths:

 Excited State   1:      Singlet-A      1.8562 eV  667.95 nm  f=0.3475  <S**2>=0.000
     245 -> 248        0.16194
     246 -> 247        0.69153
     246 <- 247       -0.10310
 This state for optimization and/or second-order correction.
 Total Energy, E(TD-HF/TD-DFT) =  -3005.25068568
 Copying the excited state density for this state as the 1-particle RhoCI density.

 Excited State   2:      Singlet-A      2.1671 eV  572.11 nm  f=0.1078  <S**2>=0.000
     245 -> 247        0.65774
     246 -> 248       -0.23518

 Excited State   3:      Singlet-A      2.7412 eV  452.29 nm  f=0.0004  <S**2>=0.000
     244 -> 247        0.68499
     244 -> 249       -0.11129

 Excited State   4:      Singlet-A      2.9893 eV  414.76 nm  f=0.0005  <S**2>=0.000
     241 -> 247       -0.19263
     242 -> 247        0.66615
     246 -> 248        0.10100

 Excited State   5:      Singlet-A      3.1296 eV  396.16 nm  f=0.0050  <S**2>=0.000
     239 -> 247       -0.13329
     240 -> 247        0.12130
     241 -> 247        0.62086
     242 -> 247        0.14465
     246 -> 248        0.22394

 The electronic state is 1-A.
 Alpha  occ. eigenvalues --  -46.93672 -19.25482 -19.25306 -19.20256 -19.19028
 Alpha  occ. eigenvalues --  -19.18797 -19.17954 -14.42539 -14.41820 -14.39846
 Alpha  occ. eigenvalues --  -14.38706 -10.36133 -10.35774 -10.33982 -10.30960
 Alpha  occ. eigenvalues --  -10.29654 -10.29536 -10.29121 -10.29049 -10.28993
 Alpha  occ. eigenvalues --  -10.28956 -10.28741 -10.28402 -10.27031 -10.26443
 Alpha  occ. eigenvalues --  -10.26431 -10.26390 -10.26248 -10.26200 -10.26022
 Alpha  occ. eigenvalues --  -10.26016 -10.25752 -10.25536 -10.25410 -10.25217
 Alpha  occ. eigenvalues --  -10.24976 -10.24929 -10.24873 -10.24725 -10.24713
 Alpha  occ. eigenvalues --  -10.24273 -10.24260 -10.24105 -10.23782 -10.23642
 Alpha  occ. eigenvalues --  -10.23639 -10.23578 -10.23188 -10.23006 -10.22872
 Alpha  occ. eigenvalues --  -10.22866 -10.22813 -10.22648 -10.22589 -10.22548
 Alpha  occ. eigenvalues --  -10.22451 -10.22334 -10.22311 -10.22283 -10.22091
 Alpha  occ. eigenvalues --  -10.22018 -10.21978 -10.21938 -10.21890 -10.21726
 Alpha  occ. eigenvalues --  -10.21477  -3.15631  -1.88427  -1.88023  -1.87847
 Alpha  occ. eigenvalues --   -1.10452  -1.10072  -1.05439  -1.04489  -1.01744
 Alpha  occ. eigenvalues --   -1.00075  -0.99922  -0.98851  -0.98332  -0.97631
 Alpha  occ. eigenvalues --   -0.86875  -0.85050  -0.84681  -0.83531  -0.83320
 Alpha  occ. eigenvalues --   -0.83211  -0.82594  -0.82162  -0.81353  -0.80915
 Alpha  occ. eigenvalues --   -0.80880  -0.79601  -0.78936  -0.78659  -0.77720
 Alpha  occ. eigenvalues --   -0.77364  -0.76644  -0.76088  -0.75183  -0.74455
 Alpha  occ. eigenvalues --   -0.73577  -0.73117  -0.72454  -0.71845  -0.71086
 Alpha  occ. eigenvalues --   -0.70284  -0.69775  -0.69207  -0.69036  -0.68304
 Alpha  occ. eigenvalues --   -0.67909  -0.67002  -0.66455  -0.64666  -0.63930
 Alpha  occ. eigenvalues --   -0.63157  -0.62258  -0.61736  -0.60980  -0.60711
 Alpha  occ. eigenvalues --   -0.59921  -0.59517  -0.59284  -0.59166  -0.58157
 Alpha  occ. eigenvalues --   -0.57899  -0.57745  -0.57278  -0.56882  -0.55445
 Alpha  occ. eigenvalues --   -0.54759  -0.54154  -0.53768  -0.53333  -0.53081
 Alpha  occ. eigenvalues --   -0.52121  -0.51714  -0.51209  -0.50560  -0.50406
 Alpha  occ. eigenvalues --   -0.50130  -0.49661  -0.48640  -0.48568  -0.48327
 Alpha  occ. eigenvalues --   -0.48085  -0.47913  -0.47580  -0.47500  -0.47401
 Alpha  occ. eigenvalues --   -0.47241  -0.47130  -0.46499  -0.46463  -0.46317
 Alpha  occ. eigenvalues --   -0.46192  -0.45959  -0.45710  -0.45582  -0.45472
 Alpha  occ. eigenvalues --   -0.45066  -0.44988  -0.44862  -0.44452  -0.44216
 Alpha  occ. eigenvalues --   -0.44141  -0.43777  -0.43530  -0.43337  -0.43220
 Alpha  occ. eigenvalues --   -0.42965  -0.42770  -0.42634  -0.42531  -0.42300
 Alpha  occ. eigenvalues --   -0.42168  -0.41885  -0.41630  -0.41404  -0.41297
 Alpha  occ. eigenvalues --   -0.41228  -0.40970  -0.40705  -0.40628  -0.40492
 Alpha  occ. eigenvalues --   -0.40218  -0.40165  -0.40020  -0.39804  -0.39754
 Alpha  occ. eigenvalues --   -0.39672  -0.39349  -0.39227  -0.39007  -0.38877
 Alpha  occ. eigenvalues --   -0.38378  -0.38121  -0.38049  -0.37983  -0.37939
 Alpha  occ. eigenvalues --   -0.37639  -0.37423  -0.37228  -0.37044  -0.36801
 Alpha  occ. eigenvalues --   -0.36563  -0.36499  -0.36353  -0.36311  -0.36067
 Alpha  occ. eigenvalues --   -0.35747  -0.35435  -0.35316  -0.35116  -0.35000
 Alpha  occ. eigenvalues --   -0.34901  -0.34122  -0.34105  -0.33978  -0.33836
 Alpha  occ. eigenvalues --   -0.33666  -0.33246  -0.32987  -0.32640  -0.32266
 Alpha  occ. eigenvalues --   -0.32105  -0.31956  -0.31603  -0.31546  -0.30832
 Alpha  occ. eigenvalues --   -0.30693  -0.30503  -0.29966  -0.29332  -0.29230
 Alpha  occ. eigenvalues --   -0.28114  -0.27883  -0.27835  -0.27083  -0.26792
 Alpha  occ. eigenvalues --   -0.26258  -0.25479  -0.24957  -0.24866  -0.21298
 Alpha  occ. eigenvalues --   -0.19455
 Alpha virt. eigenvalues --   -0.11787  -0.05965  -0.04054  -0.02692  -0.02128
 Alpha virt. eigenvalues --    0.00069   0.00153   0.00454   0.01899   0.02317
 Alpha virt. eigenvalues --    0.03869   0.04444   0.04733   0.05306   0.05602

 Mulliken charges:
               1
     1  Mg   0.937277
     2  C    0.003318
     3  C   -0.053707
     4  C   -0.088686
     5  C   -0.050755
     6  N   -0.380652
     7  C    0.026556
     8  C   -0.073039
     9  C   -0.116205
    10  C    0.069959
    11  C    0.017590
    12  C   -0.043365
    13  C   -0.013826
    14  C    0.235270
    15  O   -0.265023
    16  O   -0.351152
    17  N   -0.481329
    18  C    0.159419
    19  C   -0.152217
    20  C   -0.081527
    21  C    0.186069
    22  C    0.051190
    23  C    0.093804
    24  O   -0.230676
    25  C   -0.028270
    26  N   -0.386220
    27  C    0.073088
    28  C   -0.098400
    29  C   -0.077381
    30  C    0.119413
    31  C   -0.013033
    32  C   -0.025958
    33  C   -0.064697
    34  N   -0.450300
    35  C    0.074980
    36  C   -0.159711
    37  C   -0.021265
    38  C    0.128000
    39  C    0.048197
    40  C    0.076040
    41  O   -0.194398
    42  C   -0.109526
    43  C    0.297205
    44  O   -0.284061
    45  O   -0.366060
    46  C    0.134075
    47  C    0.253980
    48  C   -0.157210
    49  C   -0.219562
    50  C    0.027885
    51  C   -0.018085
    52  C   -0.034249
    53  C    0.003983
    54  C   -0.230061
    55  C    0.010809
    56  C    0.020416
    57  C   -0.075253
    58  C    0.015578
    59  C   -0.250568
    60  C   -0.009277
    61  C   -0.010003
    62  C   -0.051000
    63  C    0.003151
    64  C   -0.288422
    65  C   -0.013118
    66  C   -0.027373
    67  H    0.008816
    68  H   -0.006528
    69  H    0.003172
    70  H    0.043277
    71  H    0.054777
    72  H    0.033168
    73  H    0.038978
    74  H    0.058025
    75  H    0.066671
    76  H    0.043642
    77  H    0.062166
    78  H    0.061523
    79  H    0.031829
    80  H    0.057163
    81  H    0.059085
    82  H    0.082310
    83  H    0.059673
    84  H    0.050901
    85  H    0.063155
    86  H    0.053957
    87  H    0.054784
    88  H    0.033798
    89  H    0.040652
    90  H    0.033311
    91  H    0.031698
    92  H    0.009405
    93  H    0.052689
    94  H    0.039450
    95  H    0.059726
    96  H    0.046124
    97  H    0.059591
    98  H    0.086149
    99  H    0.051248
   100  H    0.070061
   101  H    0.050919
   102  H    0.071394
   103  H    0.031642
   104  H    0.020462
   105  H    0.074374
   106  H    0.036415
   107  H    0.036503
   108  H    0.035223
   109  H    0.010344
   110  H    0.044471
   111  H    0.047577
   112  H    0.020609
   113  H    0.029942
   114  H    0.039378
   115  H    0.036054
   116  H    0.027300
   117  H    0.028145
   118  H    0.016193
   119  H    0.019650
   120  H    0.022155
   121  H    0.032584
   122  H    0.036509
   123  H    0.026733
   124  H    0.040577
   125  H    0.046293
   126  H    0.033770
   127  H    0.038381
   128  H    0.025249
   129  H    0.028634
   130  H    0.029413
   131  H    0.040048
   132  H    0.020842
   133  H    0.034249
   134  H    0.041985
   135  H    0.039537
   136  H    0.039438
   137  H    0.031471
   138  H    0.030378
   139  H    0.045716
   140  H    0.023357
 Sum of Mulliken charges =  -0.00000

 Dipole moment (field-independent basis, Debye):
    X=              1.9179    Y=              9.0084    Z=              2.2078  Tot=              9.4712
 Quadrupole moment (field-independent basis, Debye-Ang):
   XX=           -402.3459   YY=           -413.0057   ZZ=           -402.4424
   XY=            -54.3277   XZ=            -34.4793   YZ=            -39.6923

 Normal termination of Gaussian 16 at Wed May  4 22:07:25 2022.
