 Gaussian 16, Revision A.03,
 Gaussian 16:  ES64L-G16RevA.03 25-Dec-2016

 --------------------------------
 #p wB97XD/Def2SVP td=(nstates=5)
 --------------------------------

 ----------------------------------------------------
 step_451_chromophore_26 TDDFT with wB97XD functional
 ----------------------------------------------------
 Symbolic Z-matrix:
 Charge =  0 Multiplicity = 1

                         Standard orientation:
 ---------------------------------------------------------------------
 Center     Atomic      Atomic             Coordinates (Angstroms)
 Number     Number       Type             X           Y           Z
 ---------------------------------------------------------------------
      1         12           0       -3.597859    1.179716    0.616819
      2          6           0       -4.675447   -1.969336   -0.186186
      3          6           0       -2.172472   -0.103073    3.509724
      4          6           0       -2.224720    4.176162    1.213713
      5          6           0       -4.541293    2.238169   -2.637914
      6          7           0       -3.293487   -0.876943    1.490903
      7          6           0       -4.003513   -1.956665    1.039203
      8          6           0       -3.576116   -3.166187    1.929322
      9          6           0       -2.991056   -2.494988    3.238344
     10          6           0       -2.796123   -1.053437    2.738014
     11          6           0       -3.941975   -2.531006    4.491412
     12          6           0       -2.579368   -4.067431    1.171786
     13          6           0       -1.594797   -3.444650    0.191000
     14          6           0       -0.369134   -4.341683   -0.248048
     15          8           0       -0.428808   -5.267292   -1.032406
     16          8           0        0.737849   -4.053932    0.475698
     17          7           0       -2.363226    1.962623    2.144628
     18          6           0       -1.969546    1.306792    3.258838
     19          6           0       -1.334181    2.199619    4.194798
     20          6           0       -1.294734    3.460791    3.573220
     21          6           0       -1.920577    3.286689    2.250156
     22          6           0       -0.847602    1.787666    5.544556
     23          6           0       -0.665977    4.775824    4.216726
     24          8           0       -0.175328    4.640539    5.336006
     25          6           0       -0.661960    6.077549    3.505396
     26          7           0       -3.105985    2.805751   -0.660079
     27          6           0       -2.860398    3.983895   -0.061119
     28          6           0       -3.081386    5.161034   -0.931106
     29          6           0       -3.871177    4.537646   -2.104973
     30          6           0       -3.792520    3.123928   -1.842192
     31          6           0       -3.720076    6.423223   -0.198274
     32          6           0       -3.282956    4.984424   -3.457043
     33          6           0       -4.124595    5.694668   -4.440109
     34          7           0       -4.380971    0.309024   -1.142072
     35          6           0       -4.885932    0.883075   -2.352133
     36          6           0       -5.632470   -0.069529   -3.055121
     37          6           0       -5.641612   -1.262427   -2.230102
     38          6           0       -4.810568   -0.915611   -1.134466
     39          6           0       -6.285696    0.155590   -4.404506
     40          6           0       -6.022670   -2.622422   -2.096737
     41          8           0       -6.682567   -3.377399   -2.770903
     42          6           0       -5.430591   -3.153705   -0.772293
     43          6           0       -6.469407   -3.781578    0.078949
     44          8           0       -6.710898   -5.023233    0.079651
     45          8           0       -7.149063   -2.863529    0.818472
     46          6           0       -7.944508   -3.180118    1.984018
     47          6           0        2.047432   -4.650320    0.075622
     48          6           0        3.004522   -3.558716   -0.265252
     49          6           0        3.262932   -3.115117   -1.542305
     50          6           0        2.549265   -3.749805   -2.786302
     51          6           0        4.431166   -2.170125   -1.765567
     52          6           0        4.039514   -0.811346   -2.387607
     53          6           0        4.729275   -0.664063   -3.740333
     54          6           0        5.518978    0.688474   -3.758649
     55          6           0        5.373160    1.249495   -5.170263
     56          6           0        6.923534    0.522976   -3.270669
     57          6           0        7.427018    1.787576   -2.520000
     58          6           0        7.628466    1.622168   -1.021855
     59          6           0        9.203343    1.623649   -0.709580
     60          6           0        9.669667    3.052870   -0.194257
     61          6           0        9.532251    0.396952    0.234576
     62          6           0       11.070837    0.095609    0.240998
     63          6           0       11.608663   -0.184829    1.669481
     64          6           0       11.539812   -1.717939    1.882840
     65          6           0       11.005313   -2.197363    3.314328
     66          6           0       13.011952   -2.267490    1.642073
     67          1           0       -1.971975   -0.423910    4.534221
     68          1           0       -1.936451    5.220867    1.348908
     69          1           0       -5.051141    2.516566   -3.562637
     70          1           0       -4.390193   -3.864991    2.126637
     71          1           0       -2.066742   -3.040268    3.426240
     72          1           0       -4.926006   -2.890467    4.190579
     73          1           0       -4.170868   -1.512365    4.803000
     74          1           0       -3.575696   -3.082521    5.357660
     75          1           0       -3.140458   -4.832852    0.636102
     76          1           0       -1.919947   -4.549890    1.893932
     77          1           0       -1.212630   -2.509453    0.600235
     78          1           0       -2.185656   -3.262520   -0.706946
     79          1           0       -0.490228    0.758656    5.521585
     80          1           0       -1.540584    1.822806    6.384942
     81          1           0        0.045438    2.283670    5.926401
     82          1           0       -1.557296    6.690808    3.611848
     83          1           0       -0.394646    5.962112    2.454992
     84          1           0        0.177854    6.727015    3.750197
     85          1           0       -2.114252    5.510756   -1.293555
     86          1           0       -4.899949    4.896985   -2.082428
     87          1           0       -3.828032    6.417049    0.886742
     88          1           0       -4.735932    6.632988   -0.532675
     89          1           0       -3.150767    7.301394   -0.504115
     90          1           0       -2.974072    4.097151   -4.009570
     91          1           0       -2.338829    5.526665   -3.509097
     92          1           0       -5.125437    5.542772   -4.035303
     93          1           0       -4.207021    5.303387   -5.453895
     94          1           0       -4.035237    6.779969   -4.380386
     95          1           0       -6.562331   -0.795950   -4.858894
     96          1           0       -5.508072    0.602707   -5.023277
     97          1           0       -7.183168    0.771925   -4.462638
     98          1           0       -4.743068   -3.933449   -1.101738
     99          1           0       -7.564646   -4.043376    2.530656
    100          1           0       -8.991189   -3.341316    1.725154
    101          1           0       -7.813489   -2.366612    2.698575
    102          1           0        2.161182   -5.493143   -0.605450
    103          1           0        2.544594   -5.047106    0.962189
    104          1           0        3.682876   -3.144100    0.479570
    105          1           0        1.839487   -4.508083   -2.456822
    106          1           0        3.353900   -4.005356   -3.475181
    107          1           0        2.083734   -2.980804   -3.402290
    108          1           0        5.215120   -2.682894   -2.323842
    109          1           0        4.972486   -2.058110   -0.826612
    110          1           0        4.281957   -0.066791   -1.629583
    111          1           0        2.958541   -0.932530   -2.447793
    112          1           0        3.957509   -0.704034   -4.508404
    113          1           0        5.373245   -1.519487   -3.945256
    114          1           0        5.072896    1.392293   -3.055805
    115          1           0        4.532128    0.889262   -5.762575
    116          1           0        6.286722    1.041650   -5.726759
    117          1           0        5.236081    2.326536   -5.071816
    118          1           0        7.614080    0.333707   -4.093384
    119          1           0        7.102395   -0.341277   -2.631232
    120          1           0        6.673767    2.574670   -2.552704
    121          1           0        8.283715    2.136539   -3.096542
    122          1           0        7.198481    0.696092   -0.639566
    123          1           0        7.254494    2.567603   -0.628305
    124          1           0        9.763990    1.433255   -1.624935
    125          1           0        8.893795    3.817301   -0.168228
    126          1           0       10.446722    3.329572   -0.906706
    127          1           0       10.195747    2.914440    0.750187
    128          1           0        8.967493   -0.486342   -0.062784
    129          1           0        9.166237    0.660051    1.226730
    130          1           0       11.594292    0.968939   -0.147402
    131          1           0       11.277400   -0.832601   -0.292331
    132          1           0       10.929730    0.225186    2.416916
    133          1           0       12.614439    0.206629    1.822530
    134          1           0       10.881888   -2.223737    1.175828
    135          1           0       11.698585   -2.895586    3.782648
    136          1           0       10.007778   -2.610194    3.164157
    137          1           0       10.917368   -1.311567    3.943907
    138          1           0       12.923790   -3.055860    0.893144
    139          1           0       13.535822   -2.500910    2.569138
    140          1           0       13.679067   -1.603861    1.091472
 ---------------------------------------------------------------------

 SCF Done:  E(RwB97XD) =  -3007.82938226     A.U. after   19 cycles

 Excitation energies and oscillator strengths:

 Excited State   1:      Singlet-A      1.7370 eV  713.78 nm  f=0.3641  <S**2>=0.000
     245 -> 248       -0.16050
     246 -> 247        0.68480
     245 <- 248       -0.10336
 This state for optimization and/or second-order correction.
 Total Energy, E(TD-HF/TD-DFT) =  -3007.76554871
 Copying the excited state density for this state as the 1-particle RhoCI density.

 Excited State   2:      Singlet-A      2.1213 eV  584.47 nm  f=0.1123  <S**2>=0.000
     245 -> 247        0.64364
     246 -> 248        0.26353

 Excited State   3:      Singlet-A      3.3707 eV  367.83 nm  f=0.0136  <S**2>=0.000
     240 -> 247        0.24264
     241 -> 247        0.53098
     242 -> 247       -0.27862
     244 -> 247       -0.20243
     246 -> 248       -0.12741

 Excited State   4:      Singlet-A      3.4614 eV  358.19 nm  f=0.0647  <S**2>=0.000
     240 -> 247        0.12169
     241 -> 247        0.11316
     242 -> 247        0.11112
     244 -> 247        0.52279
     244 -> 249       -0.12211
     246 -> 248       -0.34795

 Excited State   5:      Singlet-A      3.5069 eV  353.54 nm  f=0.0536  <S**2>=0.000
     240 -> 247        0.10242
     242 -> 247        0.49056
     242 -> 249       -0.17402
     242 -> 251        0.18065
     244 -> 247       -0.22135
     244 -> 249        0.11852
     244 -> 251       -0.14385
     246 -> 248       -0.24383

 The electronic state is 1-A.
 Alpha  occ. eigenvalues --  -46.96686 -19.29894 -19.29827 -19.25473 -19.23663
 Alpha  occ. eigenvalues --  -19.23322 -19.22245 -14.47785 -14.46773 -14.45089
 Alpha  occ. eigenvalues --  -14.43392 -10.42794 -10.42513 -10.41190 -10.37394
 Alpha  occ. eigenvalues --  -10.36416 -10.36115 -10.35941 -10.35674 -10.35533
 Alpha  occ. eigenvalues --  -10.35406 -10.34950 -10.34660 -10.33477 -10.32964
 Alpha  occ. eigenvalues --  -10.32820 -10.32754 -10.32715 -10.32371 -10.32182
 Alpha  occ. eigenvalues --  -10.32133 -10.31930 -10.31928 -10.31573 -10.31571
 Alpha  occ. eigenvalues --  -10.31534 -10.31460 -10.31267 -10.31184 -10.30999
 Alpha  occ. eigenvalues --  -10.30731 -10.30540 -10.30466 -10.30037 -10.29998
 Alpha  occ. eigenvalues --  -10.29912 -10.29904 -10.29690 -10.29418 -10.29203
 Alpha  occ. eigenvalues --  -10.29088 -10.28973 -10.28930 -10.28929 -10.28830
 Alpha  occ. eigenvalues --  -10.28730 -10.28684 -10.28672 -10.28568 -10.28432
 Alpha  occ. eigenvalues --  -10.28390 -10.28361 -10.28342 -10.28255 -10.28151
 Alpha  occ. eigenvalues --  -10.27907  -3.22521  -1.96061  -1.95660  -1.95481
 Alpha  occ. eigenvalues --   -1.17789  -1.17312  -1.13314  -1.11496  -1.09040
 Alpha  occ. eigenvalues --   -1.07420  -1.07288  -1.06273  -1.05768  -1.04955
 Alpha  occ. eigenvalues --   -0.94215  -0.92592  -0.92336  -0.91168  -0.91114
 Alpha  occ. eigenvalues --   -0.90840  -0.90264  -0.89823  -0.89162  -0.88594
 Alpha  occ. eigenvalues --   -0.88460  -0.87340  -0.86543  -0.86236  -0.85613
 Alpha  occ. eigenvalues --   -0.85037  -0.84305  -0.83661  -0.82775  -0.82085
 Alpha  occ. eigenvalues --   -0.81242  -0.80631  -0.80258  -0.79541  -0.78574
 Alpha  occ. eigenvalues --   -0.77960  -0.77444  -0.76925  -0.76728  -0.75990
 Alpha  occ. eigenvalues --   -0.75335  -0.74622  -0.74048  -0.72330  -0.71443
 Alpha  occ. eigenvalues --   -0.70528  -0.69911  -0.69557  -0.68473  -0.68315
 Alpha  occ. eigenvalues --   -0.67488  -0.66977  -0.66836  -0.66637  -0.65805
 Alpha  occ. eigenvalues --   -0.65202  -0.65167  -0.64946  -0.64554  -0.63112
 Alpha  occ. eigenvalues --   -0.62214  -0.61639  -0.61173  -0.60666  -0.60450
 Alpha  occ. eigenvalues --   -0.59642  -0.59097  -0.58633  -0.57925  -0.57777
 Alpha  occ. eigenvalues --   -0.57544  -0.56999  -0.56111  -0.55828  -0.55630
 Alpha  occ. eigenvalues --   -0.55500  -0.55352  -0.55218  -0.54969  -0.54766
 Alpha  occ. eigenvalues --   -0.54470  -0.54402  -0.53915  -0.53817  -0.53699
 Alpha  occ. eigenvalues --   -0.53575  -0.53280  -0.53125  -0.53021  -0.52808
 Alpha  occ. eigenvalues --   -0.52691  -0.52369  -0.52281  -0.51774  -0.51518
 Alpha  occ. eigenvalues --   -0.51334  -0.51038  -0.50827  -0.50581  -0.50496
 Alpha  occ. eigenvalues --   -0.50199  -0.49995  -0.49883  -0.49813  -0.49627
 Alpha  occ. eigenvalues --   -0.49594  -0.49173  -0.49135  -0.48520  -0.48483
 Alpha  occ. eigenvalues --   -0.48356  -0.48223  -0.47991  -0.47953  -0.47552
 Alpha  occ. eigenvalues --   -0.47435  -0.47410  -0.47082  -0.47073  -0.46987
 Alpha  occ. eigenvalues --   -0.46868  -0.46468  -0.46345  -0.46163  -0.45952
 Alpha  occ. eigenvalues --   -0.45715  -0.45433  -0.45253  -0.45151  -0.45025
 Alpha  occ. eigenvalues --   -0.44944  -0.44457  -0.44232  -0.44121  -0.43785
 Alpha  occ. eigenvalues --   -0.43652  -0.43457  -0.43392  -0.43333  -0.43062
 Alpha  occ. eigenvalues --   -0.42842  -0.42487  -0.42319  -0.42206  -0.42082
 Alpha  occ. eigenvalues --   -0.41932  -0.41203  -0.41078  -0.41011  -0.40874
 Alpha  occ. eigenvalues --   -0.40726  -0.40316  -0.39888  -0.39701  -0.39335
 Alpha  occ. eigenvalues --   -0.39057  -0.38990  -0.38670  -0.38536  -0.37843
 Alpha  occ. eigenvalues --   -0.37591  -0.37479  -0.36690  -0.36151  -0.35984
 Alpha  occ. eigenvalues --   -0.35160  -0.34752  -0.34742  -0.34350  -0.33853
 Alpha  occ. eigenvalues --   -0.33135  -0.31637  -0.31607  -0.31489  -0.26357
 Alpha  occ. eigenvalues --   -0.23771
 Alpha virt. eigenvalues --   -0.07625  -0.00484   0.02098   0.03615   0.04073
 Alpha virt. eigenvalues --    0.06811   0.06921   0.07324   0.08780   0.09015
 Alpha virt. eigenvalues --    0.10663   0.10976   0.11368   0.11998   0.12234

 Mulliken charges:
               1
     1  Mg   0.930792
     2  C    0.010264
     3  C   -0.083139
     4  C   -0.100104
     5  C   -0.064128
     6  N   -0.351300
     7  C   -0.015487
     8  C   -0.047375
     9  C   -0.094867
    10  C    0.069289
    11  C    0.026807
    12  C   -0.034700
    13  C    0.012456
    14  C    0.222320
    15  O   -0.261346
    16  O   -0.350534
    17  N   -0.451831
    18  C    0.157729
    19  C   -0.139191
    20  C   -0.077492
    21  C    0.190563
    22  C    0.060074
    23  C    0.091220
    24  O   -0.224033
    25  C   -0.021244
    26  N   -0.354718
    27  C    0.067110
    28  C   -0.077288
    29  C   -0.040765
    30  C    0.106051
    31  C   -0.003804
    32  C   -0.017672
    33  C   -0.047143
    34  N   -0.412202
    35  C    0.061124
    36  C   -0.157871
    37  C   -0.023216
    38  C    0.108479
    39  C    0.055876
    40  C    0.057950
    41  O   -0.189101
    42  C   -0.070885
    43  C    0.272099
    44  O   -0.278149
    45  O   -0.363657
    46  C    0.148939
    47  C    0.271155
    48  C   -0.165922
    49  C   -0.207141
    50  C    0.043890
    51  C   -0.001129
    52  C   -0.018765
    53  C    0.020840
    54  C   -0.191897
    55  C    0.022240
    56  C    0.028544
    57  C   -0.057422
    58  C    0.034842
    59  C   -0.222163
    60  C    0.001565
    61  C    0.003242
    62  C   -0.029305
    63  C    0.020647
    64  C   -0.261446
    65  C    0.000683
    66  C   -0.016461
    67  H    0.001786
    68  H   -0.021194
    69  H   -0.003005
    70  H    0.031125
    71  H    0.047240
    72  H    0.028471
    73  H    0.031038
    74  H    0.054346
    75  H    0.060501
    76  H    0.033663
    77  H    0.050506
    78  H    0.051625
    79  H    0.028128
    80  H    0.055989
    81  H    0.057451
    82  H    0.080747
    83  H    0.055768
    84  H    0.050876
    85  H    0.053328
    86  H    0.039824
    87  H    0.048372
    88  H    0.029731
    89  H    0.036267
    90  H    0.024563
    91  H    0.023741
    92  H   -0.000034
    93  H    0.048671
    94  H    0.032964
    95  H    0.055517
    96  H    0.038460
    97  H    0.053703
    98  H    0.077535
    99  H    0.046578
   100  H    0.066604
   101  H    0.046184
   102  H    0.067394
   103  H    0.027207
   104  H    0.016280
   105  H    0.067162
   106  H    0.029879
   107  H    0.030563
   108  H    0.024804
   109  H    0.002750
   110  H    0.035885
   111  H    0.037070
   112  H    0.012583
   113  H    0.019681
   114  H    0.022783
   115  H    0.030558
   116  H    0.020559
   117  H    0.022409
   118  H    0.008131
   119  H    0.007360
   120  H    0.012615
   121  H    0.024660
   122  H    0.025816
   123  H    0.016822
   124  H    0.025433
   125  H    0.041327
   126  H    0.028008
   127  H    0.031068
   128  H    0.016559
   129  H    0.017879
   130  H    0.020488
   131  H    0.029219
   132  H    0.007878
   133  H    0.027242
   134  H    0.029612
   135  H    0.033650
   136  H    0.033972
   137  H    0.024497
   138  H    0.024868
   139  H    0.040051
   140  H    0.016307
 Sum of Mulliken charges =  -0.00000

 Dipole moment (field-independent basis, Debye):
    X=              2.4243    Y=              9.6713    Z=              3.0980  Tot=             10.4407
 Quadrupole moment (field-independent basis, Debye-Ang):
   XX=           -405.8241   YY=           -411.5888   ZZ=           -400.9656
   XY=            -56.0533   XZ=            -37.2545   YZ=            -37.9809

 Normal termination of Gaussian 16 at Wed May  4 22:53:50 2022.
