 Gaussian 16, Revision A.03,
 Gaussian 16:  ES64L-G16RevA.03 25-Dec-2016

 --------------------
 #p ZINDO=(nstates=5)
 --------------------

 -----------------------------
 step_451_chromophore_26 ZINDO
 -----------------------------
 Symbolic Z-matrix:
 Charge =  0 Multiplicity = 1

                         Standard orientation:
 ---------------------------------------------------------------------
 Center     Atomic      Atomic             Coordinates (Angstroms)
 Number     Number       Type             X           Y           Z
 ---------------------------------------------------------------------
      1         12           0       -3.597859    1.179716    0.616819
      2          6           0       -4.675447   -1.969336   -0.186186
      3          6           0       -2.172472   -0.103073    3.509724
      4          6           0       -2.224720    4.176162    1.213713
      5          6           0       -4.541293    2.238169   -2.637914
      6          7           0       -3.293487   -0.876943    1.490903
      7          6           0       -4.003513   -1.956665    1.039203
      8          6           0       -3.576116   -3.166187    1.929322
      9          6           0       -2.991056   -2.494988    3.238344
     10          6           0       -2.796123   -1.053437    2.738014
     11          6           0       -3.941975   -2.531006    4.491412
     12          6           0       -2.579368   -4.067431    1.171786
     13          6           0       -1.594797   -3.444650    0.191000
     14          6           0       -0.369134   -4.341683   -0.248048
     15          8           0       -0.428808   -5.267292   -1.032406
     16          8           0        0.737849   -4.053932    0.475698
     17          7           0       -2.363226    1.962623    2.144628
     18          6           0       -1.969546    1.306792    3.258838
     19          6           0       -1.334181    2.199619    4.194798
     20          6           0       -1.294734    3.460791    3.573220
     21          6           0       -1.920577    3.286689    2.250156
     22          6           0       -0.847602    1.787666    5.544556
     23          6           0       -0.665977    4.775824    4.216726
     24          8           0       -0.175328    4.640539    5.336006
     25          6           0       -0.661960    6.077549    3.505396
     26          7           0       -3.105985    2.805751   -0.660079
     27          6           0       -2.860398    3.983895   -0.061119
     28          6           0       -3.081386    5.161034   -0.931106
     29          6           0       -3.871177    4.537646   -2.104973
     30          6           0       -3.792520    3.123928   -1.842192
     31          6           0       -3.720076    6.423223   -0.198274
     32          6           0       -3.282956    4.984424   -3.457043
     33          6           0       -4.124595    5.694668   -4.440109
     34          7           0       -4.380971    0.309024   -1.142072
     35          6           0       -4.885932    0.883075   -2.352133
     36          6           0       -5.632470   -0.069529   -3.055121
     37          6           0       -5.641612   -1.262427   -2.230102
     38          6           0       -4.810568   -0.915611   -1.134466
     39          6           0       -6.285696    0.155590   -4.404506
     40          6           0       -6.022670   -2.622422   -2.096737
     41          8           0       -6.682567   -3.377399   -2.770903
     42          6           0       -5.430591   -3.153705   -0.772293
     43          6           0       -6.469407   -3.781578    0.078949
     44          8           0       -6.710898   -5.023233    0.079651
     45          8           0       -7.149063   -2.863529    0.818472
     46          6           0       -7.944508   -3.180118    1.984018
     47          6           0        2.047432   -4.650320    0.075622
     48          6           0        3.004522   -3.558716   -0.265252
     49          6           0        3.262932   -3.115117   -1.542305
     50          6           0        2.549265   -3.749805   -2.786302
     51          6           0        4.431166   -2.170125   -1.765567
     52          6           0        4.039514   -0.811346   -2.387607
     53          6           0        4.729275   -0.664063   -3.740333
     54          6           0        5.518978    0.688474   -3.758649
     55          6           0        5.373160    1.249495   -5.170263
     56          6           0        6.923534    0.522976   -3.270669
     57          6           0        7.427018    1.787576   -2.520000
     58          6           0        7.628466    1.622168   -1.021855
     59          6           0        9.203343    1.623649   -0.709580
     60          6           0        9.669667    3.052870   -0.194257
     61          6           0        9.532251    0.396952    0.234576
     62          6           0       11.070837    0.095609    0.240998
     63          6           0       11.608663   -0.184829    1.669481
     64          6           0       11.539812   -1.717939    1.882840
     65          6           0       11.005313   -2.197363    3.314328
     66          6           0       13.011952   -2.267490    1.642073
     67          1           0       -1.971975   -0.423910    4.534221
     68          1           0       -1.936451    5.220867    1.348908
     69          1           0       -5.051141    2.516566   -3.562637
     70          1           0       -4.390193   -3.864991    2.126637
     71          1           0       -2.066742   -3.040268    3.426240
     72          1           0       -4.926006   -2.890467    4.190579
     73          1           0       -4.170868   -1.512365    4.803000
     74          1           0       -3.575696   -3.082521    5.357660
     75          1           0       -3.140458   -4.832852    0.636102
     76          1           0       -1.919947   -4.549890    1.893932
     77          1           0       -1.212630   -2.509453    0.600235
     78          1           0       -2.185656   -3.262520   -0.706946
     79          1           0       -0.490228    0.758656    5.521585
     80          1           0       -1.540584    1.822806    6.384942
     81          1           0        0.045438    2.283670    5.926401
     82          1           0       -1.557296    6.690808    3.611848
     83          1           0       -0.394646    5.962112    2.454992
     84          1           0        0.177854    6.727015    3.750197
     85          1           0       -2.114252    5.510756   -1.293555
     86          1           0       -4.899949    4.896985   -2.082428
     87          1           0       -3.828032    6.417049    0.886742
     88          1           0       -4.735932    6.632988   -0.532675
     89          1           0       -3.150767    7.301394   -0.504115
     90          1           0       -2.974072    4.097151   -4.009570
     91          1           0       -2.338829    5.526665   -3.509097
     92          1           0       -5.125437    5.542772   -4.035303
     93          1           0       -4.207021    5.303387   -5.453895
     94          1           0       -4.035237    6.779969   -4.380386
     95          1           0       -6.562331   -0.795950   -4.858894
     96          1           0       -5.508072    0.602707   -5.023277
     97          1           0       -7.183168    0.771925   -4.462638
     98          1           0       -4.743068   -3.933449   -1.101738
     99          1           0       -7.564646   -4.043376    2.530656
    100          1           0       -8.991189   -3.341316    1.725154
    101          1           0       -7.813489   -2.366612    2.698575
    102          1           0        2.161182   -5.493143   -0.605450
    103          1           0        2.544594   -5.047106    0.962189
    104          1           0        3.682876   -3.144100    0.479570
    105          1           0        1.839487   -4.508083   -2.456822
    106          1           0        3.353900   -4.005356   -3.475181
    107          1           0        2.083734   -2.980804   -3.402290
    108          1           0        5.215120   -2.682894   -2.323842
    109          1           0        4.972486   -2.058110   -0.826612
    110          1           0        4.281957   -0.066791   -1.629583
    111          1           0        2.958541   -0.932530   -2.447793
    112          1           0        3.957509   -0.704034   -4.508404
    113          1           0        5.373245   -1.519487   -3.945256
    114          1           0        5.072896    1.392293   -3.055805
    115          1           0        4.532128    0.889262   -5.762575
    116          1           0        6.286722    1.041650   -5.726759
    117          1           0        5.236081    2.326536   -5.071816
    118          1           0        7.614080    0.333707   -4.093384
    119          1           0        7.102395   -0.341277   -2.631232
    120          1           0        6.673767    2.574670   -2.552704
    121          1           0        8.283715    2.136539   -3.096542
    122          1           0        7.198481    0.696092   -0.639566
    123          1           0        7.254494    2.567603   -0.628305
    124          1           0        9.763990    1.433255   -1.624935
    125          1           0        8.893795    3.817301   -0.168228
    126          1           0       10.446722    3.329572   -0.906706
    127          1           0       10.195747    2.914440    0.750187
    128          1           0        8.967493   -0.486342   -0.062784
    129          1           0        9.166237    0.660051    1.226730
    130          1           0       11.594292    0.968939   -0.147402
    131          1           0       11.277400   -0.832601   -0.292331
    132          1           0       10.929730    0.225186    2.416916
    133          1           0       12.614439    0.206629    1.822530
    134          1           0       10.881888   -2.223737    1.175828
    135          1           0       11.698585   -2.895586    3.782648
    136          1           0       10.007778   -2.610194    3.164157
    137          1           0       10.917368   -1.311567    3.943907
    138          1           0       12.923790   -3.055860    0.893144
    139          1           0       13.535822   -2.500910    2.569138
    140          1           0       13.679067   -1.603861    1.091472
 ---------------------------------------------------------------------

 SCF Done:  E(RZINDO/S) =  -474.272204156     A.U. after   19 cycles

 Excitation energies and oscillator strengths:

 Excited State   1:      Singlet-A      1.3499 eV  918.45 nm  f=0.5018  <S**2>=0.000
     175 ->178         0.12755
     176 ->177         0.67213
 This state for optimization and/or second-order correction.
 Total Energy, E(CIS/TDA) =  -474.222595447
 Copying the excited state density for this state as the 1-particle RhoCI density.

 Excited State   2:      Singlet-A      1.8949 eV  654.31 nm  f=0.0840  <S**2>=0.000
     175 ->177         0.56732
     176 ->178        -0.35774
     176 ->179         0.10573

 Excited State   3:      Singlet-A      2.9439 eV  421.16 nm  f=0.6841  <S**2>=0.000
     175 ->177         0.30084
     176 ->178         0.51680
     176 ->180         0.20057

 Excited State   4:      Singlet-A      2.9830 eV  415.64 nm  f=0.0812  <S**2>=0.000
     166 ->177         0.18511
     166 ->178        -0.16319
     166 ->179        -0.25378
     166 ->181        -0.16752
     166 ->185         0.11305
     167 ->177        -0.13381
     167 ->178         0.11972
     167 ->179         0.18435
     167 ->181         0.11596
     168 ->177         0.17260
     168 ->178        -0.15004
     168 ->179        -0.23466
     168 ->181        -0.15169
     175 ->177        -0.10142
     176 ->178        -0.16940

 Excited State   5:      Singlet-A      3.0108 eV  411.79 nm  f=0.0055  <S**2>=0.000
     171 ->177         0.24131
     171 ->179         0.21292
     171 ->181        -0.32491
     171 ->185        -0.15610
     171 ->188         0.22698
     171 ->205        -0.11627
     172 ->177        -0.18886
     172 ->179        -0.15110
     172 ->181         0.22212
     172 ->185         0.10736
     172 ->188        -0.15294

 The electronic state is 1-A.
 Alpha  occ. eigenvalues --   -1.84990  -1.83279  -1.81504  -1.73240  -1.70604
 Alpha  occ. eigenvalues --   -1.70341  -1.66142  -1.60956  -1.59824  -1.58769
 Alpha  occ. eigenvalues --   -1.54712  -1.51047  -1.50353  -1.47308  -1.46039
 Alpha  occ. eigenvalues --   -1.44050  -1.43089  -1.41369  -1.39400  -1.37768
 Alpha  occ. eigenvalues --   -1.36658  -1.33067  -1.32616  -1.30945  -1.29146
 Alpha  occ. eigenvalues --   -1.27941  -1.26260  -1.24755  -1.20147  -1.18498
 Alpha  occ. eigenvalues --   -1.16754  -1.15647  -1.15210  -1.13989  -1.13907
 Alpha  occ. eigenvalues --   -1.13044  -1.11208  -1.10796  -1.06653  -1.05256
 Alpha  occ. eigenvalues --   -1.02642  -1.01775  -0.99877  -0.98444  -0.97155
 Alpha  occ. eigenvalues --   -0.96983  -0.95027  -0.94068  -0.93230  -0.92116
 Alpha  occ. eigenvalues --   -0.90988  -0.90092  -0.89874  -0.89082  -0.87444
 Alpha  occ. eigenvalues --   -0.86249  -0.85441  -0.83734  -0.83368  -0.81367
 Alpha  occ. eigenvalues --   -0.79424  -0.78680  -0.78519  -0.78368  -0.77653
 Alpha  occ. eigenvalues --   -0.77116  -0.76262  -0.75206  -0.74747  -0.74080
 Alpha  occ. eigenvalues --   -0.73176  -0.72740  -0.71861  -0.71398  -0.70806
 Alpha  occ. eigenvalues --   -0.70505  -0.68870  -0.68519  -0.67971  -0.67661
 Alpha  occ. eigenvalues --   -0.67085  -0.66789  -0.66493  -0.66131  -0.65895
 Alpha  occ. eigenvalues --   -0.65592  -0.64788  -0.63987  -0.63617  -0.63301
 Alpha  occ. eigenvalues --   -0.63191  -0.62576  -0.62284  -0.62166  -0.62051
 Alpha  occ. eigenvalues --   -0.61552  -0.61400  -0.61073  -0.60470  -0.60243
 Alpha  occ. eigenvalues --   -0.59938  -0.59573  -0.59277  -0.58495  -0.57943
 Alpha  occ. eigenvalues --   -0.57617  -0.57176  -0.57007  -0.56971  -0.56671
 Alpha  occ. eigenvalues --   -0.56106  -0.55836  -0.55445  -0.55186  -0.55060
 Alpha  occ. eigenvalues --   -0.54764  -0.54131  -0.54045  -0.53431  -0.53292
 Alpha  occ. eigenvalues --   -0.52521  -0.52286  -0.52159  -0.51942  -0.51816
 Alpha  occ. eigenvalues --   -0.51345  -0.51254  -0.50772  -0.50682  -0.49897
 Alpha  occ. eigenvalues --   -0.49680  -0.49503  -0.49276  -0.48945  -0.48857
 Alpha  occ. eigenvalues --   -0.48532  -0.48473  -0.48275  -0.47972  -0.47684
 Alpha  occ. eigenvalues --   -0.47467  -0.47266  -0.47192  -0.46907  -0.46672
 Alpha  occ. eigenvalues --   -0.46456  -0.46323  -0.46239  -0.46149  -0.45847
 Alpha  occ. eigenvalues --   -0.45663  -0.45205  -0.45166  -0.44720  -0.43853
 Alpha  occ. eigenvalues --   -0.43789  -0.43445  -0.42820  -0.42557  -0.41896
 Alpha  occ. eigenvalues --   -0.40640  -0.40315  -0.40286  -0.39454  -0.38460
 Alpha  occ. eigenvalues --   -0.38042  -0.37472  -0.37325  -0.35627  -0.35070
 Alpha  occ. eigenvalues --   -0.33383  -0.32907  -0.31819  -0.31590  -0.27314
 Alpha  occ. eigenvalues --   -0.22925
 Alpha virt. eigenvalues --   -0.09158  -0.02856  -0.01038   0.00074   0.00961
 Alpha virt. eigenvalues --    0.02127   0.02489   0.02714   0.03574   0.04645
 Alpha virt. eigenvalues --    0.04760   0.06211   0.06841   0.07096   0.07498

 Mulliken charges:
               1
     1  Mg   0.445542
     2  C   -0.049396
     3  C   -0.109359
     4  C   -0.087646
     5  C   -0.046446
     6  N   -0.306279
     7  C    0.091450
     8  C    0.003922
     9  C    0.000950
    10  C    0.190247
    11  C   -0.051511
    12  C   -0.014917
    13  C    0.006060
    14  C    0.462477
    15  O   -0.511757
    16  O   -0.261415
    17  N   -0.342027
    18  C    0.168115
    19  C    0.064913
    20  C   -0.033792
    21  C    0.136835
    22  C   -0.036420
    23  C    0.337196
    24  O   -0.501702
    25  C   -0.026488
    26  N   -0.255833
    27  C    0.188371
    28  C    0.003381
    29  C    0.023537
    30  C    0.070697
    31  C   -0.059584
    32  C   -0.031121
    33  C   -0.059998
    34  N   -0.329375
    35  C    0.030973
    36  C    0.021215
    37  C   -0.090883
    38  C    0.131525
    39  C   -0.041956
    40  C    0.338991
    41  O   -0.530492
    42  C    0.053768
    43  C    0.493583
    44  O   -0.535346
    45  O   -0.273625
    46  C    0.083984
    47  C    0.105407
    48  C   -0.105681
    49  C   -0.012920
    50  C   -0.052832
    51  C   -0.027451
    52  C   -0.035067
    53  C   -0.033454
    54  C   -0.003674
    55  C   -0.056447
    56  C   -0.029347
    57  C   -0.041721
    58  C   -0.043372
    59  C   -0.029412
    60  C   -0.061506
    61  C   -0.037741
    62  C   -0.040997
    63  C   -0.034153
    64  C   -0.023226
    65  C   -0.066424
    66  C   -0.067834
    67  H    0.025437
    68  H    0.022127
    69  H    0.031013
    70  H    0.030923
    71  H    0.040223
    72  H    0.023429
    73  H    0.018173
    74  H    0.030273
    75  H    0.033851
    76  H    0.017013
    77  H    0.034795
    78  H    0.040085
    79  H    0.016025
    80  H    0.041926
    81  H    0.039537
    82  H    0.051151
    83  H    0.028057
    84  H    0.035555
    85  H    0.039972
    86  H    0.035393
    87  H    0.028044
    88  H    0.018523
    89  H    0.017470
    90  H    0.011873
    91  H    0.018735
    92  H    0.002850
    93  H    0.031950
    94  H    0.018192
    95  H    0.027687
    96  H    0.020498
    97  H    0.032544
    98  H    0.062332
    99  H    0.039269
   100  H    0.050500
   101  H    0.027503
   102  H    0.068321
   103  H    0.022256
   104  H    0.030808
   105  H    0.049036
   106  H    0.028970
   107  H    0.024669
   108  H    0.022082
   109  H    0.009815
   110  H    0.025656
   111  H    0.025411
   112  H    0.015954
   113  H    0.025081
   114  H    0.021933
   115  H    0.022056
   116  H    0.018682
   117  H    0.010059
   118  H    0.011372
   119  H    0.016978
   120  H    0.009880
   121  H    0.021466
   122  H    0.033423
   123  H    0.022911
   124  H    0.020428
   125  H    0.031666
   126  H    0.013869
   127  H    0.021744
   128  H    0.019525
   129  H    0.018922
   130  H    0.020575
   131  H    0.027801
   132  H    0.015048
   133  H    0.025615
   134  H    0.025049
   135  H    0.025637
   136  H    0.019895
   137  H    0.017535
   138  H    0.015168
   139  H    0.028206
   140  H    0.011056
 Sum of Mulliken charges =  -0.00000

 Dipole moment (field-independent basis, Debye):
    X=              3.8474    Y=             12.7620    Z=              6.1049  Tot=             14.6608
 N-N= 4.504006417162D+03 E-N= 0.000000000000D+00  KE=-9.681585744917D+03
 Leave Link  601 at Wed May  4 23:10:13 2022, MaxMem=  6710886400 cpu:               0.8 elap:               0.1
 (Enter /sw/apps/gaussian-16.0/g16/l9999.exe)
 1\1\GINC-BP1-COMPUTE216\SP\RZINDO CIS\STO-3G\C55H74Mg1N4O6\OF15641\04-
 May-2022\0\\#p ZINDO=(nstates=5)\\step_451_chromophore_26 ZINDO\\0,1\M
 g,0,-8.989,18.079,42.984\C,0,-5.585,17.738,42.846\C,0,-8.62,21.477,42.
 381\C,0,-12.319,18.351,42.744\C,0,-9.257,14.539,42.968\N,0,-7.272,19.4
 51,42.478\C,0,-5.972,19.07,42.675\C,0,-5.091,20.299,42.286\C,0,-6.078,
 21.532,42.395\C,0,-7.428,20.795,42.422\C,0,-5.898,22.422,43.68\C,0,-4.
 471,20.097,40.888\C,0,-5.247,19.335,39.822\C,0,-4.746,19.495,38.331\O,

 Normal termination of Gaussian 16 at Wed May  4 23:10:13 2022.
