 Gaussian 16, Revision A.03,
 Gaussian 16:  ES64L-G16RevA.03 25-Dec-2016

 ------------------------------
 #p blyp/Def2SVP td=(nstates=5)
 ------------------------------

 ---------------------------------------------------
 step_1851_chromophore_25 TDDFT with blyp functional
 ---------------------------------------------------
 Symbolic Z-matrix:
 Charge =  0 Multiplicity = 1

                         Standard orientation:
 ---------------------------------------------------------------------
 Center     Atomic      Atomic             Coordinates (Angstroms)
 Number     Number       Type             X           Y           Z
 ---------------------------------------------------------------------
      1         12           0        6.189895    0.364543    0.246263
      2          6           0        3.873317   -2.162322    0.093030
      3          6           0        3.673166    2.558290   -0.725559
      4          6           0        8.505702    2.658513   -0.268760
      5          6           0        8.636644   -2.087646    0.622715
      6          7           0        4.018322    0.161793   -0.466713
      7          6           0        3.244680   -0.907657   -0.192062
      8          6           0        1.701470   -0.709819   -0.321200
      9          6           0        1.683565    0.878259   -0.534101
     10          6           0        3.241936    1.260029   -0.602845
     11          6           0        0.820033    1.370505   -1.756236
     12          6           0        0.967342   -1.184318    1.020580
     13          6           0       -0.415303   -1.752562    0.774330
     14          6           0       -1.593227   -1.253277    1.500493
     15          8           0       -1.686849   -1.228267    2.722684
     16          8           0       -2.533989   -0.865500    0.572036
     17          7           0        6.066366    2.368526   -0.333624
     18          6           0        4.986824    3.140661   -0.649856
     19          6           0        5.434290    4.480417   -0.781545
     20          6           0        6.871144    4.572781   -0.639378
     21          6           0        7.213017    3.179125   -0.397111
     22          6           0        4.453449    5.617154   -1.035993
     23          6           0        7.719121    5.831162   -0.604038
     24          8           0        8.922747    5.847143   -0.408539
     25          6           0        7.109790    7.184002   -0.566367
     26          7           0        8.302028    0.247252    0.062865
     27          6           0        8.983924    1.427181   -0.043157
     28          6           0       10.451176    1.085203    0.172618
     29          6           0       10.442063   -0.293361    0.811419
     30          6           0        9.041244   -0.773094    0.530928
     31          6           0       11.284431    1.184628   -1.097987
     32          6           0       10.934508   -0.288132    2.332277
     33          6           0        9.983303    0.324728    3.305076
     34          7           0        6.269187   -1.687588    0.418055
     35          6           0        7.339704   -2.565333    0.570547
     36          6           0        6.893927   -3.888056    0.658923
     37          6           0        5.511773   -3.829236    0.462327
     38          6           0        5.190350   -2.471708    0.361985
     39          6           0        7.690644   -5.096852    0.962215
     40          6           0        4.317241   -4.624614    0.198416
     41          8           0        4.147601   -5.843700    0.074102
     42          6           0        3.169540   -3.605717   -0.039988
     43          6           0        2.434444   -3.953673   -1.262961
     44          8           0        2.993430   -4.291351   -2.328305
     45          8           0        1.091136   -3.827496   -1.132059
     46          6           0        0.352264   -4.497004   -2.220231
     47          6           0       -3.812038   -0.574446    0.975780
     48          6           0       -4.764594   -0.722689   -0.257528
     49          6           0       -6.043055   -1.062099   -0.148070
     50          6           0       -6.728572   -1.281566    1.241365
     51          6           0       -6.859193   -1.396755   -1.377054
     52          6           0       -7.416776   -0.105367   -2.069055
     53          6           0       -8.896173   -0.153233   -2.371797
     54          6           0       -9.687301    1.077348   -1.827549
     55          6           0      -10.044470    1.074012   -0.289334
     56          6           0      -10.953369    1.360804   -2.721201
     57          6           0      -11.811171    0.049800   -2.888901
     58          6           0      -13.311287    0.308557   -2.368156
     59          6           0      -13.822984   -0.206930   -0.991868
     60          6           0      -14.938986   -1.159916   -1.147588
     61          6           0      -14.219712    0.971297   -0.036507
     62          6           0      -14.538504    0.460916    1.434136
     63          6           0      -14.583755    1.601352    2.433690
     64          6           0      -13.389632    1.559381    3.450023
     65          6           0      -13.766490    1.940605    4.882011
     66          6           0      -12.229698    2.494765    2.998799
     67          1           0        2.848417    3.247630   -0.918751
     68          1           0        9.243072    3.452366   -0.404343
     69          1           0        9.431814   -2.800540    0.854160
     70          1           0        1.290505   -1.245461   -1.176668
     71          1           0        1.195647    1.220117    0.379217
     72          1           0        1.458003    1.752424   -2.552115
     73          1           0        0.164405    2.054954   -1.216500
     74          1           0        0.329102    0.445326   -2.057140
     75          1           0        0.912790   -0.404311    1.779398
     76          1           0        1.565844   -1.981298    1.459988
     77          1           0       -0.355404   -2.803082    1.059824
     78          1           0       -0.606228   -1.768051   -0.299466
     79          1           0        4.794077    6.268538   -1.840611
     80          1           0        4.450158    6.155119   -0.088135
     81          1           0        3.445507    5.385441   -1.381054
     82          1           0        7.763199    7.979468   -0.207904
     83          1           0        6.265961    7.039759    0.107506
     84          1           0        6.652163    7.356373   -1.540695
     85          1           0       10.832785    1.828988    0.872468
     86          1           0       11.191682   -0.915990    0.323740
     87          1           0       11.640014    2.210896   -1.185438
     88          1           0       10.816883    0.853758   -2.025620
     89          1           0       12.177815    0.578649   -0.952982
     90          1           0       11.899450    0.167120    2.555733
     91          1           0       10.874142   -1.357930    2.531803
     92          1           0       10.564770    0.981058    3.951802
     93          1           0        9.458123   -0.489264    3.803909
     94          1           0        9.324272    0.864756    2.624934
     95          1           0        7.001489   -5.836472    1.369429
     96          1           0        8.642383   -4.831828    1.422539
     97          1           0        7.975093   -5.635616    0.058347
     98          1           0        2.455166   -3.665944    0.781618
     99          1           0        0.482139   -5.551788   -1.980945
    100          1           0        0.697668   -4.239147   -3.221670
    101          1           0       -0.725954   -4.399701   -2.093115
    102          1           0       -3.793496    0.407368    1.447362
    103          1           0       -4.124795   -1.279061    1.746168
    104          1           0       -4.372449   -0.680893   -1.273725
    105          1           0       -6.686818   -0.412500    1.897481
    106          1           0       -6.308136   -2.164284    1.724127
    107          1           0       -7.752796   -1.616993    1.082135
    108          1           0       -7.507006   -2.228570   -1.101220
    109          1           0       -6.173358   -1.902214   -2.056430
    110          1           0       -6.800492    0.069136   -2.951803
    111          1           0       -7.195188    0.715385   -1.386968
    112          1           0       -9.267542   -1.087913   -1.952567
    113          1           0       -9.050123   -0.083176   -3.448373
    114          1           0       -9.063679    1.968506   -1.893978
    115          1           0      -10.034529    2.124781    0.001286
    116          1           0       -9.356855    0.615763    0.420944
    117          1           0      -11.003129    0.554862   -0.287240
    118          1           0      -10.625019    1.753901   -3.683558
    119          1           0      -11.464043    2.162222   -2.186907
    120          1           0      -11.508062   -0.809362   -2.289223
    121          1           0      -11.744292   -0.156755   -3.957616
    122          1           0      -13.979239   -0.059678   -3.146989
    123          1           0      -13.467085    1.382282   -2.480878
    124          1           0      -13.048665   -0.841335   -0.559521
    125          1           0      -15.235165   -1.639021   -0.213366
    126          1           0      -14.645806   -1.975558   -1.807611
    127          1           0      -15.839624   -0.709657   -1.566128
    128          1           0      -15.036094    1.379463   -0.632584
    129          1           0      -13.442510    1.729535    0.059172
    130          1           0      -13.902607   -0.352863    1.784542
    131          1           0      -15.536823    0.024820    1.387138
    132          1           0      -15.528891    1.515191    2.969779
    133          1           0      -14.549745    2.496832    1.813028
    134          1           0      -13.010717    0.537898    3.410500
    135          1           0      -14.829485    1.781368    5.063731
    136          1           0      -13.496543    2.960311    5.157211
    137          1           0      -13.229267    1.227168    5.506639
    138          1           0      -12.416923    3.543133    3.227705
    139          1           0      -12.198282    2.333179    1.920965
    140          1           0      -11.252747    2.204844    3.386724
 ---------------------------------------------------------------------

 SCF Done:  E(RB-LYP) =  -3007.35705808     A.U. after   20 cycles

 Excitation energies and oscillator strengths:

 Excited State   1:      Singlet-A      1.7717 eV  699.82 nm  f=0.0027  <S**2>=0.000
     244 -> 247        0.70342
 This state for optimization and/or second-order correction.
 Total Energy, E(TD-HF/TD-DFT) =  -3007.29195100
 Copying the excited state density for this state as the 1-particle RhoCI density.

 Excited State   2:      Singlet-A      1.8485 eV  670.72 nm  f=0.2903  <S**2>=0.000
     243 -> 247       -0.13677
     245 -> 248        0.19769
     246 -> 247        0.67030
     246 <- 247       -0.14043

 Excited State   3:      Singlet-A      1.9429 eV  638.13 nm  f=0.0482  <S**2>=0.000
     243 -> 247        0.53957
     245 -> 247        0.40872
     246 -> 247        0.13985
     246 -> 248       -0.12674

 Excited State   4:      Singlet-A      2.0032 eV  618.92 nm  f=0.0553  <S**2>=0.000
     240 -> 247        0.11010
     243 -> 247       -0.43395
     245 -> 247        0.51173
     246 -> 248       -0.18152

 Excited State   5:      Singlet-A      2.3655 eV  524.14 nm  f=0.0002  <S**2>=0.000
     241 -> 247        0.70361

 The electronic state is 1-A.
 Alpha  occ. eigenvalues --  -46.27691 -18.83310 -18.82270 -18.77158 -18.76222
 Alpha  occ. eigenvalues --  -18.75738 -18.75224 -14.03605 -14.02675 -14.01166
 Alpha  occ. eigenvalues --  -14.00734 -10.04130 -10.04006  -9.99847  -9.99760
 Alpha  occ. eigenvalues --   -9.98228  -9.97877  -9.97301  -9.96549  -9.96297
 Alpha  occ. eigenvalues --   -9.95948  -9.95589  -9.95572  -9.95228  -9.94754
 Alpha  occ. eigenvalues --   -9.94454  -9.94402  -9.94079  -9.94063  -9.94054
 Alpha  occ. eigenvalues --   -9.93525  -9.93495  -9.93172  -9.93060  -9.93055
 Alpha  occ. eigenvalues --   -9.93038  -9.92751  -9.92733  -9.92648  -9.92584
 Alpha  occ. eigenvalues --   -9.92548  -9.92501  -9.92484  -9.92359  -9.92017
 Alpha  occ. eigenvalues --   -9.92001  -9.91987  -9.91880  -9.91824  -9.91754
 Alpha  occ. eigenvalues --   -9.91745  -9.91727  -9.91607  -9.91578  -9.91572
 Alpha  occ. eigenvalues --   -9.91517  -9.91338  -9.91208  -9.91191  -9.91179
 Alpha  occ. eigenvalues --   -9.91132  -9.90975  -9.90780  -9.90718  -9.90521
 Alpha  occ. eigenvalues --   -9.90490  -2.92300  -1.72682  -1.72230  -1.71991
 Alpha  occ. eigenvalues --   -0.99151  -0.98461  -0.91775  -0.91055  -0.90661
 Alpha  occ. eigenvalues --   -0.88608  -0.87291  -0.86424  -0.86136  -0.84826
 Alpha  occ. eigenvalues --   -0.75255  -0.73644  -0.73041  -0.72822  -0.72570
 Alpha  occ. eigenvalues --   -0.72164  -0.71780  -0.71291  -0.70966  -0.70770
 Alpha  occ. eigenvalues --   -0.70342  -0.69626  -0.68239  -0.68092  -0.67575
 Alpha  occ. eigenvalues --   -0.66566  -0.66147  -0.65751  -0.65372  -0.64720
 Alpha  occ. eigenvalues --   -0.64077  -0.63060  -0.62276  -0.62148  -0.61178
 Alpha  occ. eigenvalues --   -0.60993  -0.60166  -0.59826  -0.59566  -0.59073
 Alpha  occ. eigenvalues --   -0.58550  -0.58152  -0.56976  -0.55383  -0.54425
 Alpha  occ. eigenvalues --   -0.54278  -0.54107  -0.53088  -0.52760  -0.51655
 Alpha  occ. eigenvalues --   -0.51560  -0.51276  -0.50718  -0.50412  -0.50280
 Alpha  occ. eigenvalues --   -0.49564  -0.48742  -0.48698  -0.47605  -0.46680
 Alpha  occ. eigenvalues --   -0.46281  -0.46230  -0.45850  -0.45340  -0.44681
 Alpha  occ. eigenvalues --   -0.44223  -0.44019  -0.43512  -0.43272  -0.42852
 Alpha  occ. eigenvalues --   -0.42472  -0.42250  -0.42241  -0.41916  -0.41635
 Alpha  occ. eigenvalues --   -0.41513  -0.41289  -0.41099  -0.40724  -0.40526
 Alpha  occ. eigenvalues --   -0.40148  -0.39835  -0.39606  -0.39446  -0.39235
 Alpha  occ. eigenvalues --   -0.39064  -0.38820  -0.38725  -0.38627  -0.38465
 Alpha  occ. eigenvalues --   -0.38109  -0.37801  -0.37734  -0.37518  -0.37426
 Alpha  occ. eigenvalues --   -0.37348  -0.37148  -0.36974  -0.36937  -0.36563
 Alpha  occ. eigenvalues --   -0.36524  -0.36427  -0.36254  -0.35778  -0.35618
 Alpha  occ. eigenvalues --   -0.35565  -0.35188  -0.35032  -0.35008  -0.34766
 Alpha  occ. eigenvalues --   -0.34317  -0.34271  -0.34255  -0.34069  -0.34007
 Alpha  occ. eigenvalues --   -0.33682  -0.33666  -0.33452  -0.33306  -0.33193
 Alpha  occ. eigenvalues --   -0.33035  -0.32909  -0.32492  -0.32359  -0.32058
 Alpha  occ. eigenvalues --   -0.31987  -0.31778  -0.31708  -0.31668  -0.31492
 Alpha  occ. eigenvalues --   -0.31330  -0.31259  -0.31002  -0.30919  -0.30844
 Alpha  occ. eigenvalues --   -0.30665  -0.30346  -0.30035  -0.29841  -0.29711
 Alpha  occ. eigenvalues --   -0.29620  -0.29584  -0.29309  -0.29078  -0.28884
 Alpha  occ. eigenvalues --   -0.28808  -0.28614  -0.28473  -0.27644  -0.27460
 Alpha  occ. eigenvalues --   -0.27409  -0.27151  -0.26966  -0.26790  -0.26672
 Alpha  occ. eigenvalues --   -0.26204  -0.26200  -0.25827  -0.25660  -0.25447
 Alpha  occ. eigenvalues --   -0.25298  -0.25206  -0.24392  -0.24387  -0.24040
 Alpha  occ. eigenvalues --   -0.23590  -0.22356  -0.22163  -0.21370  -0.20830
 Alpha  occ. eigenvalues --   -0.20566  -0.20456  -0.18950  -0.18328  -0.17412
 Alpha  occ. eigenvalues --   -0.16312
 Alpha virt. eigenvalues --   -0.11873  -0.06986  -0.06285  -0.04559  -0.03838
 Alpha virt. eigenvalues --   -0.03486  -0.03206  -0.01700  -0.01521   0.00196
 Alpha virt. eigenvalues --    0.01457   0.02003   0.02042   0.02433   0.03199

 Mulliken charges:
               1
     1  Mg   0.683704
     2  C    0.022175
     3  C   -0.051742
     4  C   -0.040752
     5  C   -0.111972
     6  N   -0.164284
     7  C   -0.109961
     8  C    0.015083
     9  C   -0.045378
    10  C    0.029295
    11  C    0.145125
    12  C    0.118470
    13  C    0.154229
    14  C    0.047698
    15  O   -0.190180
    16  O   -0.242196
    17  N   -0.302552
    18  C    0.138615
    19  C   -0.143428
    20  C    0.056177
    21  C    0.064204
    22  C    0.150960
    23  C   -0.091126
    24  O   -0.163291
    25  C    0.170501
    26  N   -0.230902
    27  C    0.068509
    28  C    0.016595
    29  C    0.033949
    30  C    0.033800
    31  C    0.143566
    32  C    0.061857
    33  C    0.077248
    34  N   -0.259731
    35  C    0.159023
    36  C   -0.185036
    37  C    0.078912
    38  C    0.074492
    39  C    0.212608
    40  C   -0.017141
    41  O   -0.137802
    42  C    0.057378
    43  C    0.099004
    44  O   -0.202177
    45  O   -0.267145
    46  C    0.223171
    47  C    0.308558
    48  C   -0.064913
    49  C   -0.203679
    50  C    0.130132
    51  C    0.127143
    52  C    0.111618
    53  C    0.148491
    54  C   -0.117927
    55  C    0.066301
    56  C    0.074081
    57  C    0.069436
    58  C    0.103966
    59  C   -0.032673
    60  C    0.094223
    61  C    0.063221
    62  C    0.051266
    63  C    0.128066
    64  C   -0.097704
    65  C    0.126408
    66  C    0.088403
    67  H   -0.076254
    68  H   -0.055933
    69  H   -0.065809
    70  H   -0.002819
    71  H   -0.018607
    72  H    0.009049
    73  H    0.004711
    74  H   -0.011325
    75  H   -0.016717
    76  H   -0.022027
    77  H    0.002173
    78  H   -0.020535
    79  H   -0.006508
    80  H    0.012386
    81  H   -0.009024
    82  H    0.004604
    83  H   -0.016298
    84  H   -0.001181
    85  H   -0.035471
    86  H   -0.041129
    87  H   -0.003526
    88  H   -0.001351
    89  H   -0.021526
    90  H   -0.010343
    91  H   -0.037246
    92  H   -0.005387
    93  H   -0.003029
    94  H    0.000851
    95  H    0.005106
    96  H   -0.007405
    97  H   -0.006338
    98  H   -0.009877
    99  H    0.014460
   100  H    0.036571
   101  H    0.008245
   102  H   -0.011522
   103  H   -0.018822
   104  H   -0.045063
   105  H    0.014504
   106  H    0.005887
   107  H   -0.019519
   108  H   -0.031728
   109  H   -0.038262
   110  H   -0.028561
   111  H   -0.019966
   112  H   -0.026423
   113  H   -0.041791
   114  H   -0.046533
   115  H   -0.003170
   116  H   -0.018152
   117  H    0.002828
   118  H   -0.027058
   119  H   -0.024455
   120  H   -0.009703
   121  H   -0.026425
   122  H   -0.054442
   123  H   -0.050104
   124  H   -0.044103
   125  H   -0.018572
   126  H   -0.022854
   127  H   -0.025525
   128  H   -0.023610
   129  H   -0.018480
   130  H   -0.027907
   131  H   -0.031211
   132  H   -0.043228
   133  H   -0.031449
   134  H   -0.036115
   135  H   -0.025242
   136  H   -0.012510
   137  H   -0.020657
   138  H   -0.008504
   139  H   -0.021004
   140  H   -0.017010
 Sum of Mulliken charges =  -0.00000

 Dipole moment (field-independent basis, Debye):
    X=             -3.3015    Y=              2.2626    Z=              0.2556  Tot=              4.0105
 Quadrupole moment (field-independent basis, Debye-Ang):
   XX=           -387.2371   YY=           -427.0498   ZZ=           -412.7758
   XY=              0.4940   XZ=             25.5934   YZ=             -4.4492

 Normal termination of Gaussian 16 at Fri Apr 29 04:16:49 2022.
