 Gaussian 16, Revision A.03,
 Gaussian 16:  ES64L-G16RevA.03 25-Dec-2016

 -----------------------------------
 #p cam-b3lyp/Def2SVP td=(nstates=5)
 -----------------------------------

 --------------------------------------------------------
 step_1851_chromophore_25 TDDFT with cam-b3lyp functional
 --------------------------------------------------------
 Symbolic Z-matrix:
 Charge =  0 Multiplicity = 1

                         Standard orientation:
 ---------------------------------------------------------------------
 Center     Atomic      Atomic             Coordinates (Angstroms)
 Number     Number       Type             X           Y           Z
 ---------------------------------------------------------------------
      1         12           0        6.189895    0.364543    0.246263
      2          6           0        3.873317   -2.162322    0.093030
      3          6           0        3.673166    2.558290   -0.725559
      4          6           0        8.505702    2.658513   -0.268760
      5          6           0        8.636644   -2.087646    0.622715
      6          7           0        4.018322    0.161793   -0.466713
      7          6           0        3.244680   -0.907657   -0.192062
      8          6           0        1.701470   -0.709819   -0.321200
      9          6           0        1.683565    0.878259   -0.534101
     10          6           0        3.241936    1.260029   -0.602845
     11          6           0        0.820033    1.370505   -1.756236
     12          6           0        0.967342   -1.184318    1.020580
     13          6           0       -0.415303   -1.752562    0.774330
     14          6           0       -1.593227   -1.253277    1.500493
     15          8           0       -1.686849   -1.228267    2.722684
     16          8           0       -2.533989   -0.865500    0.572036
     17          7           0        6.066366    2.368526   -0.333624
     18          6           0        4.986824    3.140661   -0.649856
     19          6           0        5.434290    4.480417   -0.781545
     20          6           0        6.871144    4.572781   -0.639378
     21          6           0        7.213017    3.179125   -0.397111
     22          6           0        4.453449    5.617154   -1.035993
     23          6           0        7.719121    5.831162   -0.604038
     24          8           0        8.922747    5.847143   -0.408539
     25          6           0        7.109790    7.184002   -0.566367
     26          7           0        8.302028    0.247252    0.062865
     27          6           0        8.983924    1.427181   -0.043157
     28          6           0       10.451176    1.085203    0.172618
     29          6           0       10.442063   -0.293361    0.811419
     30          6           0        9.041244   -0.773094    0.530928
     31          6           0       11.284431    1.184628   -1.097987
     32          6           0       10.934508   -0.288132    2.332277
     33          6           0        9.983303    0.324728    3.305076
     34          7           0        6.269187   -1.687588    0.418055
     35          6           0        7.339704   -2.565333    0.570547
     36          6           0        6.893927   -3.888056    0.658923
     37          6           0        5.511773   -3.829236    0.462327
     38          6           0        5.190350   -2.471708    0.361985
     39          6           0        7.690644   -5.096852    0.962215
     40          6           0        4.317241   -4.624614    0.198416
     41          8           0        4.147601   -5.843700    0.074102
     42          6           0        3.169540   -3.605717   -0.039988
     43          6           0        2.434444   -3.953673   -1.262961
     44          8           0        2.993430   -4.291351   -2.328305
     45          8           0        1.091136   -3.827496   -1.132059
     46          6           0        0.352264   -4.497004   -2.220231
     47          6           0       -3.812038   -0.574446    0.975780
     48          6           0       -4.764594   -0.722689   -0.257528
     49          6           0       -6.043055   -1.062099   -0.148070
     50          6           0       -6.728572   -1.281566    1.241365
     51          6           0       -6.859193   -1.396755   -1.377054
     52          6           0       -7.416776   -0.105367   -2.069055
     53          6           0       -8.896173   -0.153233   -2.371797
     54          6           0       -9.687301    1.077348   -1.827549
     55          6           0      -10.044470    1.074012   -0.289334
     56          6           0      -10.953369    1.360804   -2.721201
     57          6           0      -11.811171    0.049800   -2.888901
     58          6           0      -13.311287    0.308557   -2.368156
     59          6           0      -13.822984   -0.206930   -0.991868
     60          6           0      -14.938986   -1.159916   -1.147588
     61          6           0      -14.219712    0.971297   -0.036507
     62          6           0      -14.538504    0.460916    1.434136
     63          6           0      -14.583755    1.601352    2.433690
     64          6           0      -13.389632    1.559381    3.450023
     65          6           0      -13.766490    1.940605    4.882011
     66          6           0      -12.229698    2.494765    2.998799
     67          1           0        2.848417    3.247630   -0.918751
     68          1           0        9.243072    3.452366   -0.404343
     69          1           0        9.431814   -2.800540    0.854160
     70          1           0        1.290505   -1.245461   -1.176668
     71          1           0        1.195647    1.220117    0.379217
     72          1           0        1.458003    1.752424   -2.552115
     73          1           0        0.164405    2.054954   -1.216500
     74          1           0        0.329102    0.445326   -2.057140
     75          1           0        0.912790   -0.404311    1.779398
     76          1           0        1.565844   -1.981298    1.459988
     77          1           0       -0.355404   -2.803082    1.059824
     78          1           0       -0.606228   -1.768051   -0.299466
     79          1           0        4.794077    6.268538   -1.840611
     80          1           0        4.450158    6.155119   -0.088135
     81          1           0        3.445507    5.385441   -1.381054
     82          1           0        7.763199    7.979468   -0.207904
     83          1           0        6.265961    7.039759    0.107506
     84          1           0        6.652163    7.356373   -1.540695
     85          1           0       10.832785    1.828988    0.872468
     86          1           0       11.191682   -0.915990    0.323740
     87          1           0       11.640014    2.210896   -1.185438
     88          1           0       10.816883    0.853758   -2.025620
     89          1           0       12.177815    0.578649   -0.952982
     90          1           0       11.899450    0.167120    2.555733
     91          1           0       10.874142   -1.357930    2.531803
     92          1           0       10.564770    0.981058    3.951802
     93          1           0        9.458123   -0.489264    3.803909
     94          1           0        9.324272    0.864756    2.624934
     95          1           0        7.001489   -5.836472    1.369429
     96          1           0        8.642383   -4.831828    1.422539
     97          1           0        7.975093   -5.635616    0.058347
     98          1           0        2.455166   -3.665944    0.781618
     99          1           0        0.482139   -5.551788   -1.980945
    100          1           0        0.697668   -4.239147   -3.221670
    101          1           0       -0.725954   -4.399701   -2.093115
    102          1           0       -3.793496    0.407368    1.447362
    103          1           0       -4.124795   -1.279061    1.746168
    104          1           0       -4.372449   -0.680893   -1.273725
    105          1           0       -6.686818   -0.412500    1.897481
    106          1           0       -6.308136   -2.164284    1.724127
    107          1           0       -7.752796   -1.616993    1.082135
    108          1           0       -7.507006   -2.228570   -1.101220
    109          1           0       -6.173358   -1.902214   -2.056430
    110          1           0       -6.800492    0.069136   -2.951803
    111          1           0       -7.195188    0.715385   -1.386968
    112          1           0       -9.267542   -1.087913   -1.952567
    113          1           0       -9.050123   -0.083176   -3.448373
    114          1           0       -9.063679    1.968506   -1.893978
    115          1           0      -10.034529    2.124781    0.001286
    116          1           0       -9.356855    0.615763    0.420944
    117          1           0      -11.003129    0.554862   -0.287240
    118          1           0      -10.625019    1.753901   -3.683558
    119          1           0      -11.464043    2.162222   -2.186907
    120          1           0      -11.508062   -0.809362   -2.289223
    121          1           0      -11.744292   -0.156755   -3.957616
    122          1           0      -13.979239   -0.059678   -3.146989
    123          1           0      -13.467085    1.382282   -2.480878
    124          1           0      -13.048665   -0.841335   -0.559521
    125          1           0      -15.235165   -1.639021   -0.213366
    126          1           0      -14.645806   -1.975558   -1.807611
    127          1           0      -15.839624   -0.709657   -1.566128
    128          1           0      -15.036094    1.379463   -0.632584
    129          1           0      -13.442510    1.729535    0.059172
    130          1           0      -13.902607   -0.352863    1.784542
    131          1           0      -15.536823    0.024820    1.387138
    132          1           0      -15.528891    1.515191    2.969779
    133          1           0      -14.549745    2.496832    1.813028
    134          1           0      -13.010717    0.537898    3.410500
    135          1           0      -14.829485    1.781368    5.063731
    136          1           0      -13.496543    2.960311    5.157211
    137          1           0      -13.229267    1.227168    5.506639
    138          1           0      -12.416923    3.543133    3.227705
    139          1           0      -12.198282    2.333179    1.920965
    140          1           0      -11.252747    2.204844    3.386724
 ---------------------------------------------------------------------

 SCF Done:  E(RCAM-B3LYP) =  -3007.16069546     A.U. after   19 cycles

 Excitation energies and oscillator strengths:

 Excited State   1:      Singlet-A      1.7633 eV  703.12 nm  f=0.3942  <S**2>=0.000
     245 -> 248        0.18686
     246 -> 247        0.68386
     245 <- 248        0.10691
 This state for optimization and/or second-order correction.
 Total Energy, E(TD-HF/TD-DFT) =  -3007.09589415
 Copying the excited state density for this state as the 1-particle RhoCI density.

 Excited State   2:      Singlet-A      2.2010 eV  563.30 nm  f=0.1375  <S**2>=0.000
     245 -> 247        0.65189
     246 -> 248       -0.25966

 Excited State   3:      Singlet-A      3.3315 eV  372.15 nm  f=0.0025  <S**2>=0.000
     241 -> 247       -0.14355
     242 -> 247       -0.33295
     244 -> 247        0.58771

 Excited State   4:      Singlet-A      3.4365 eV  360.79 nm  f=0.0294  <S**2>=0.000
     239 -> 247        0.19786
     239 -> 249       -0.10434
     240 -> 247        0.25477
     240 -> 249       -0.14909
     241 -> 247        0.13824
     242 -> 247        0.39520
     244 -> 247        0.25624
     246 -> 248        0.29415

 Excited State   5:      Singlet-A      3.4671 eV  357.60 nm  f=0.0062  <S**2>=0.000
     239 -> 247        0.32632
     239 -> 249       -0.18069
     240 -> 247        0.36534
     240 -> 249       -0.18702
     242 -> 247       -0.25854
     244 -> 247       -0.22261
     246 -> 248       -0.15308

 The electronic state is 1-A.
 Alpha  occ. eigenvalues --  -46.89275 -19.26465 -19.25193 -19.20262 -19.19453
 Alpha  occ. eigenvalues --  -19.19304 -19.18175 -14.42556 -14.41522 -14.39482
 Alpha  occ. eigenvalues --  -14.39260 -10.39590 -10.39573 -10.35425 -10.34759
 Alpha  occ. eigenvalues --  -10.32390 -10.32151 -10.31872 -10.30895 -10.30815
 Alpha  occ. eigenvalues --  -10.30066 -10.29805 -10.29709 -10.29467 -10.29054
 Alpha  occ. eigenvalues --  -10.29013 -10.28677 -10.28556 -10.28492 -10.28342
 Alpha  occ. eigenvalues --  -10.28225 -10.27617 -10.27218 -10.27111 -10.26975
 Alpha  occ. eigenvalues --  -10.26876 -10.26742 -10.26713 -10.26504 -10.26454
 Alpha  occ. eigenvalues --  -10.26431 -10.26389 -10.26306 -10.26098 -10.25807
 Alpha  occ. eigenvalues --  -10.25750 -10.25719 -10.25700 -10.25594 -10.25568
 Alpha  occ. eigenvalues --  -10.25566 -10.25545 -10.25499 -10.25392 -10.25319
 Alpha  occ. eigenvalues --  -10.25265 -10.25241 -10.24879 -10.24872 -10.24835
 Alpha  occ. eigenvalues --  -10.24792 -10.24713 -10.24388 -10.24372 -10.24111
 Alpha  occ. eigenvalues --  -10.24063  -3.17783  -1.92642  -1.92274  -1.92065
 Alpha  occ. eigenvalues --   -1.17687  -1.17121  -1.09961  -1.09358  -1.09133
 Alpha  occ. eigenvalues --   -1.06709  -1.05224  -1.04153  -1.03843  -1.02109
 Alpha  occ. eigenvalues --   -0.92596  -0.90546  -0.89896  -0.89669  -0.89287
 Alpha  occ. eigenvalues --   -0.88789  -0.88493  -0.88157  -0.87566  -0.87291
 Alpha  occ. eigenvalues --   -0.86773  -0.86031  -0.84537  -0.84272  -0.83771
 Alpha  occ. eigenvalues --   -0.82631  -0.82201  -0.81705  -0.81228  -0.80614
 Alpha  occ. eigenvalues --   -0.79876  -0.78792  -0.77922  -0.77734  -0.76689
 Alpha  occ. eigenvalues --   -0.76424  -0.75453  -0.75167  -0.74866  -0.74287
 Alpha  occ. eigenvalues --   -0.73693  -0.73270  -0.71847  -0.70246  -0.69100
 Alpha  occ. eigenvalues --   -0.68971  -0.68754  -0.67472  -0.67162  -0.65893
 Alpha  occ. eigenvalues --   -0.65872  -0.65373  -0.64650  -0.64392  -0.64281
 Alpha  occ. eigenvalues --   -0.63577  -0.62624  -0.62607  -0.61359  -0.60150
 Alpha  occ. eigenvalues --   -0.60096  -0.59785  -0.59390  -0.58806  -0.58284
 Alpha  occ. eigenvalues --   -0.57680  -0.57501  -0.56819  -0.56461  -0.55925
 Alpha  occ. eigenvalues --   -0.55736  -0.55681  -0.55128  -0.55020  -0.54855
 Alpha  occ. eigenvalues --   -0.54306  -0.53981  -0.53773  -0.53546  -0.53448
 Alpha  occ. eigenvalues --   -0.52760  -0.52436  -0.52366  -0.52097  -0.51923
 Alpha  occ. eigenvalues --   -0.51813  -0.51587  -0.51335  -0.51218  -0.50924
 Alpha  occ. eigenvalues --   -0.50549  -0.50049  -0.50003  -0.49893  -0.49754
 Alpha  occ. eigenvalues --   -0.49606  -0.49499  -0.49437  -0.49161  -0.49025
 Alpha  occ. eigenvalues --   -0.48701  -0.48563  -0.48510  -0.48393  -0.47958
 Alpha  occ. eigenvalues --   -0.47505  -0.47383  -0.47120  -0.47004  -0.46761
 Alpha  occ. eigenvalues --   -0.46399  -0.46252  -0.46030  -0.45976  -0.45924
 Alpha  occ. eigenvalues --   -0.45517  -0.45426  -0.45161  -0.45096  -0.44955
 Alpha  occ. eigenvalues --   -0.44706  -0.44541  -0.44311  -0.44212  -0.43798
 Alpha  occ. eigenvalues --   -0.43627  -0.43551  -0.43185  -0.43130  -0.43021
 Alpha  occ. eigenvalues --   -0.42902  -0.42725  -0.42485  -0.42251  -0.42164
 Alpha  occ. eigenvalues --   -0.42108  -0.41924  -0.41587  -0.41333  -0.41146
 Alpha  occ. eigenvalues --   -0.40974  -0.40747  -0.40451  -0.40263  -0.39963
 Alpha  occ. eigenvalues --   -0.39942  -0.39674  -0.39428  -0.38669  -0.38514
 Alpha  occ. eigenvalues --   -0.38299  -0.38187  -0.37941  -0.37545  -0.37416
 Alpha  occ. eigenvalues --   -0.36992  -0.36847  -0.36778  -0.36600  -0.36449
 Alpha  occ. eigenvalues --   -0.36432  -0.36283  -0.34829  -0.34713  -0.34508
 Alpha  occ. eigenvalues --   -0.34407  -0.34292  -0.33545  -0.31560  -0.31368
 Alpha  occ. eigenvalues --   -0.30442  -0.30351  -0.30335  -0.29610  -0.24209
 Alpha  occ. eigenvalues --   -0.21771
 Alpha virt. eigenvalues --   -0.09073  -0.01837   0.00157   0.01488   0.02480
 Alpha virt. eigenvalues --    0.03669   0.04405   0.05568   0.05950   0.07371
 Alpha virt. eigenvalues --    0.08036   0.08191   0.08590   0.08989   0.09333

 Mulliken charges:
               1
     1  Mg   0.814637
     2  C   -0.001742
     3  C   -0.057961
     4  C   -0.055714
     5  C   -0.115019
     6  N   -0.230251
     7  C   -0.065336
     8  C   -0.031022
     9  C   -0.086354
    10  C    0.037842
    11  C    0.086013
    12  C    0.063771
    13  C    0.080577
    14  C    0.137547
    15  O   -0.230465
    16  O   -0.307248
    17  N   -0.388560
    18  C    0.140229
    19  C   -0.152952
    20  C   -0.014848
    21  C    0.089001
    22  C    0.092356
    23  C   -0.008674
    24  O   -0.205949
    25  C    0.087069
    26  N   -0.300349
    27  C    0.075604
    28  C   -0.038194
    29  C   -0.031565
    30  C    0.053419
    31  C    0.087365
    32  C    0.015541
    33  C    0.016419
    34  N   -0.352222
    35  C    0.161849
    36  C   -0.173769
    37  C   -0.002010
    38  C    0.115511
    39  C    0.154617
    40  C    0.087690
    41  O   -0.174065
    42  C   -0.026872
    43  C    0.189906
    44  O   -0.239918
    45  O   -0.332549
    46  C    0.178474
    47  C    0.273872
    48  C   -0.085961
    49  C   -0.224265
    50  C    0.064886
    51  C    0.063710
    52  C    0.059606
    53  C    0.085668
    54  C   -0.166300
    55  C    0.022698
    56  C    0.024522
    57  C    0.010296
    58  C    0.051515
    59  C   -0.097553
    60  C    0.038271
    61  C    0.020902
    62  C   -0.004330
    63  C    0.068650
    64  C   -0.156342
    65  C    0.064809
    66  C    0.038402
    67  H   -0.041243
    68  H   -0.013965
    69  H   -0.029295
    70  H    0.029595
    71  H    0.013894
    72  H    0.034536
    73  H    0.027771
    74  H    0.010849
    75  H    0.016857
    76  H    0.008274
    77  H    0.034365
    78  H    0.014033
    79  H    0.017709
    80  H    0.036463
    81  H    0.018545
    82  H    0.038640
    83  H    0.009148
    84  H    0.025145
    85  H    0.000943
    86  H   -0.003124
    87  H    0.020742
    88  H    0.023966
    89  H    0.001777
    90  H    0.018107
    91  H   -0.009412
    92  H    0.019253
    93  H    0.020347
    94  H    0.018508
    95  H    0.034019
    96  H    0.017841
    97  H    0.024906
    98  H    0.032295
    99  H    0.038301
   100  H    0.063070
   101  H    0.032648
   102  H    0.016417
   103  H    0.010082
   104  H   -0.009400
   105  H    0.037939
   106  H    0.030930
   107  H    0.005409
   108  H   -0.001699
   109  H   -0.005870
   110  H    0.000778
   111  H    0.008794
   112  H    0.000088
   113  H   -0.010521
   114  H   -0.013839
   115  H    0.018588
   116  H    0.003054
   117  H    0.016251
   118  H    0.002428
   119  H    0.002182
   120  H    0.014827
   121  H    0.003994
   122  H   -0.021827
   123  H   -0.019678
   124  H   -0.014517
   125  H    0.006658
   126  H    0.003265
   127  H   -0.001329
   128  H    0.003040
   129  H    0.002859
   130  H   -0.000558
   131  H   -0.002211
   132  H   -0.011776
   133  H   -0.001755
   134  H   -0.004735
   135  H   -0.000586
   136  H    0.010888
   137  H    0.004093
   138  H    0.014086
   139  H   -0.004329
   140  H    0.007592
 Sum of Mulliken charges =  -0.00000

 Dipole moment (field-independent basis, Debye):
    X=             -3.5250    Y=              1.8451    Z=              0.3605  Tot=              3.9949
 Quadrupole moment (field-independent basis, Debye-Ang):
   XX=           -386.8571   YY=           -423.9341   ZZ=           -413.2708
   XY=             -1.9412   XZ=             27.5323   YZ=             -5.0604

 Normal termination of Gaussian 16 at Fri Apr 29 03:25:00 2022.
