 Gaussian 16, Revision A.03,
 Gaussian 16:  ES64L-G16RevA.03 25-Dec-2016

 ---------------------------------
 #p PBE1PBE/Def2SVP td=(nstates=5)
 ---------------------------------

 ------------------------------------------------------
 step_1851_chromophore_25 TDDFT with PBE1PBE functional
 ------------------------------------------------------
 Symbolic Z-matrix:
 Charge =  0 Multiplicity = 1

                         Standard orientation:
 ---------------------------------------------------------------------
 Center     Atomic      Atomic             Coordinates (Angstroms)
 Number     Number       Type             X           Y           Z
 ---------------------------------------------------------------------
      1         12           0        6.189895    0.364543    0.246263
      2          6           0        3.873317   -2.162322    0.093030
      3          6           0        3.673166    2.558290   -0.725559
      4          6           0        8.505702    2.658513   -0.268760
      5          6           0        8.636644   -2.087646    0.622715
      6          7           0        4.018322    0.161793   -0.466713
      7          6           0        3.244680   -0.907657   -0.192062
      8          6           0        1.701470   -0.709819   -0.321200
      9          6           0        1.683565    0.878259   -0.534101
     10          6           0        3.241936    1.260029   -0.602845
     11          6           0        0.820033    1.370505   -1.756236
     12          6           0        0.967342   -1.184318    1.020580
     13          6           0       -0.415303   -1.752562    0.774330
     14          6           0       -1.593227   -1.253277    1.500493
     15          8           0       -1.686849   -1.228267    2.722684
     16          8           0       -2.533989   -0.865500    0.572036
     17          7           0        6.066366    2.368526   -0.333624
     18          6           0        4.986824    3.140661   -0.649856
     19          6           0        5.434290    4.480417   -0.781545
     20          6           0        6.871144    4.572781   -0.639378
     21          6           0        7.213017    3.179125   -0.397111
     22          6           0        4.453449    5.617154   -1.035993
     23          6           0        7.719121    5.831162   -0.604038
     24          8           0        8.922747    5.847143   -0.408539
     25          6           0        7.109790    7.184002   -0.566367
     26          7           0        8.302028    0.247252    0.062865
     27          6           0        8.983924    1.427181   -0.043157
     28          6           0       10.451176    1.085203    0.172618
     29          6           0       10.442063   -0.293361    0.811419
     30          6           0        9.041244   -0.773094    0.530928
     31          6           0       11.284431    1.184628   -1.097987
     32          6           0       10.934508   -0.288132    2.332277
     33          6           0        9.983303    0.324728    3.305076
     34          7           0        6.269187   -1.687588    0.418055
     35          6           0        7.339704   -2.565333    0.570547
     36          6           0        6.893927   -3.888056    0.658923
     37          6           0        5.511773   -3.829236    0.462327
     38          6           0        5.190350   -2.471708    0.361985
     39          6           0        7.690644   -5.096852    0.962215
     40          6           0        4.317241   -4.624614    0.198416
     41          8           0        4.147601   -5.843700    0.074102
     42          6           0        3.169540   -3.605717   -0.039988
     43          6           0        2.434444   -3.953673   -1.262961
     44          8           0        2.993430   -4.291351   -2.328305
     45          8           0        1.091136   -3.827496   -1.132059
     46          6           0        0.352264   -4.497004   -2.220231
     47          6           0       -3.812038   -0.574446    0.975780
     48          6           0       -4.764594   -0.722689   -0.257528
     49          6           0       -6.043055   -1.062099   -0.148070
     50          6           0       -6.728572   -1.281566    1.241365
     51          6           0       -6.859193   -1.396755   -1.377054
     52          6           0       -7.416776   -0.105367   -2.069055
     53          6           0       -8.896173   -0.153233   -2.371797
     54          6           0       -9.687301    1.077348   -1.827549
     55          6           0      -10.044470    1.074012   -0.289334
     56          6           0      -10.953369    1.360804   -2.721201
     57          6           0      -11.811171    0.049800   -2.888901
     58          6           0      -13.311287    0.308557   -2.368156
     59          6           0      -13.822984   -0.206930   -0.991868
     60          6           0      -14.938986   -1.159916   -1.147588
     61          6           0      -14.219712    0.971297   -0.036507
     62          6           0      -14.538504    0.460916    1.434136
     63          6           0      -14.583755    1.601352    2.433690
     64          6           0      -13.389632    1.559381    3.450023
     65          6           0      -13.766490    1.940605    4.882011
     66          6           0      -12.229698    2.494765    2.998799
     67          1           0        2.848417    3.247630   -0.918751
     68          1           0        9.243072    3.452366   -0.404343
     69          1           0        9.431814   -2.800540    0.854160
     70          1           0        1.290505   -1.245461   -1.176668
     71          1           0        1.195647    1.220117    0.379217
     72          1           0        1.458003    1.752424   -2.552115
     73          1           0        0.164405    2.054954   -1.216500
     74          1           0        0.329102    0.445326   -2.057140
     75          1           0        0.912790   -0.404311    1.779398
     76          1           0        1.565844   -1.981298    1.459988
     77          1           0       -0.355404   -2.803082    1.059824
     78          1           0       -0.606228   -1.768051   -0.299466
     79          1           0        4.794077    6.268538   -1.840611
     80          1           0        4.450158    6.155119   -0.088135
     81          1           0        3.445507    5.385441   -1.381054
     82          1           0        7.763199    7.979468   -0.207904
     83          1           0        6.265961    7.039759    0.107506
     84          1           0        6.652163    7.356373   -1.540695
     85          1           0       10.832785    1.828988    0.872468
     86          1           0       11.191682   -0.915990    0.323740
     87          1           0       11.640014    2.210896   -1.185438
     88          1           0       10.816883    0.853758   -2.025620
     89          1           0       12.177815    0.578649   -0.952982
     90          1           0       11.899450    0.167120    2.555733
     91          1           0       10.874142   -1.357930    2.531803
     92          1           0       10.564770    0.981058    3.951802
     93          1           0        9.458123   -0.489264    3.803909
     94          1           0        9.324272    0.864756    2.624934
     95          1           0        7.001489   -5.836472    1.369429
     96          1           0        8.642383   -4.831828    1.422539
     97          1           0        7.975093   -5.635616    0.058347
     98          1           0        2.455166   -3.665944    0.781618
     99          1           0        0.482139   -5.551788   -1.980945
    100          1           0        0.697668   -4.239147   -3.221670
    101          1           0       -0.725954   -4.399701   -2.093115
    102          1           0       -3.793496    0.407368    1.447362
    103          1           0       -4.124795   -1.279061    1.746168
    104          1           0       -4.372449   -0.680893   -1.273725
    105          1           0       -6.686818   -0.412500    1.897481
    106          1           0       -6.308136   -2.164284    1.724127
    107          1           0       -7.752796   -1.616993    1.082135
    108          1           0       -7.507006   -2.228570   -1.101220
    109          1           0       -6.173358   -1.902214   -2.056430
    110          1           0       -6.800492    0.069136   -2.951803
    111          1           0       -7.195188    0.715385   -1.386968
    112          1           0       -9.267542   -1.087913   -1.952567
    113          1           0       -9.050123   -0.083176   -3.448373
    114          1           0       -9.063679    1.968506   -1.893978
    115          1           0      -10.034529    2.124781    0.001286
    116          1           0       -9.356855    0.615763    0.420944
    117          1           0      -11.003129    0.554862   -0.287240
    118          1           0      -10.625019    1.753901   -3.683558
    119          1           0      -11.464043    2.162222   -2.186907
    120          1           0      -11.508062   -0.809362   -2.289223
    121          1           0      -11.744292   -0.156755   -3.957616
    122          1           0      -13.979239   -0.059678   -3.146989
    123          1           0      -13.467085    1.382282   -2.480878
    124          1           0      -13.048665   -0.841335   -0.559521
    125          1           0      -15.235165   -1.639021   -0.213366
    126          1           0      -14.645806   -1.975558   -1.807611
    127          1           0      -15.839624   -0.709657   -1.566128
    128          1           0      -15.036094    1.379463   -0.632584
    129          1           0      -13.442510    1.729535    0.059172
    130          1           0      -13.902607   -0.352863    1.784542
    131          1           0      -15.536823    0.024820    1.387138
    132          1           0      -15.528891    1.515191    2.969779
    133          1           0      -14.549745    2.496832    1.813028
    134          1           0      -13.010717    0.537898    3.410500
    135          1           0      -14.829485    1.781368    5.063731
    136          1           0      -13.496543    2.960311    5.157211
    137          1           0      -13.229267    1.227168    5.506639
    138          1           0      -12.416923    3.543133    3.227705
    139          1           0      -12.198282    2.333179    1.920965
    140          1           0      -11.252747    2.204844    3.386724
 ---------------------------------------------------------------------

 SCF Done:  E(RPBE1PBE) =  -3005.34828786     A.U. after   16 cycles

 Excitation energies and oscillator strengths:

 Excited State   1:      Singlet-A      1.9054 eV  650.71 nm  f=0.3798  <S**2>=0.000
     245 -> 248        0.18153
     246 -> 247        0.69051
     246 <- 247       -0.10249
 This state for optimization and/or second-order correction.
 Total Energy, E(TD-HF/TD-DFT) =  -3005.27826664
 Copying the excited state density for this state as the 1-particle RhoCI density.

 Excited State   2:      Singlet-A      2.2035 eV  562.67 nm  f=0.1240  <S**2>=0.000
     245 -> 247        0.66054
     246 -> 248       -0.23738

 Excited State   3:      Singlet-A      2.9757 eV  416.65 nm  f=0.0003  <S**2>=0.000
     240 -> 247        0.15779
     244 -> 247        0.66405
     244 -> 249        0.10449

 Excited State   4:      Singlet-A      2.9895 eV  414.74 nm  f=0.0002  <S**2>=0.000
     240 -> 247        0.51419
     240 -> 249       -0.13949
     243 -> 247        0.41208
     244 -> 247       -0.15972

 Excited State   5:      Singlet-A      3.0108 eV  411.80 nm  f=0.0024  <S**2>=0.000
     240 -> 247       -0.38176
     241 -> 247       -0.16818
     243 -> 247        0.54843

 The electronic state is 1-A.
 Alpha  occ. eigenvalues --  -46.92671 -19.26991 -19.25875 -19.20510 -19.19616
 Alpha  occ. eigenvalues --  -19.19346 -19.18562 -14.42003 -14.41034 -14.39275
 Alpha  occ. eigenvalues --  -14.38843 -10.36555 -10.36502 -10.32404 -10.32053
 Alpha  occ. eigenvalues --  -10.29736 -10.29542 -10.29233 -10.28665 -10.28449
 Alpha  occ. eigenvalues --  -10.27978 -10.27565 -10.27429 -10.27246 -10.26828
 Alpha  occ. eigenvalues --  -10.26494 -10.26343 -10.26325 -10.26203 -10.26198
 Alpha  occ. eigenvalues --  -10.25712 -10.25215 -10.25201 -10.24793 -10.24784
 Alpha  occ. eigenvalues --  -10.24555 -10.24325 -10.24258 -10.24234 -10.23967
 Alpha  occ. eigenvalues --  -10.23956 -10.23707 -10.23707 -10.23699 -10.23525
 Alpha  occ. eigenvalues --  -10.23343 -10.23292 -10.23265 -10.23223 -10.23192
 Alpha  occ. eigenvalues --  -10.23188 -10.23135 -10.22994 -10.22935 -10.22902
 Alpha  occ. eigenvalues --  -10.22835 -10.22794 -10.22426 -10.22339 -10.22315
 Alpha  occ. eigenvalues --  -10.22250 -10.22199 -10.21932 -10.21773 -10.21483
 Alpha  occ. eigenvalues --  -10.21440  -3.14759  -1.87559  -1.87169  -1.86965
 Alpha  occ. eigenvalues --   -1.12523  -1.11799  -1.04865  -1.03966  -1.03905
 Alpha  occ. eigenvalues --   -1.01410  -0.99756  -0.98746  -0.98454  -0.96954
 Alpha  occ. eigenvalues --   -0.86811  -0.84682  -0.84017  -0.83791  -0.83595
 Alpha  occ. eigenvalues --   -0.83119  -0.82593  -0.82361  -0.81679  -0.81664
 Alpha  occ. eigenvalues --   -0.81193  -0.80298  -0.78792  -0.78544  -0.77977
 Alpha  occ. eigenvalues --   -0.76871  -0.76372  -0.76029  -0.75510  -0.74919
 Alpha  occ. eigenvalues --   -0.74026  -0.73124  -0.72173  -0.72033  -0.70964
 Alpha  occ. eigenvalues --   -0.70569  -0.69799  -0.69241  -0.68999  -0.68505
 Alpha  occ. eigenvalues --   -0.67999  -0.67656  -0.66338  -0.64550  -0.63497
 Alpha  occ. eigenvalues --   -0.63320  -0.62951  -0.62011  -0.61366  -0.60332
 Alpha  occ. eigenvalues --   -0.60074  -0.59881  -0.59190  -0.58829  -0.58725
 Alpha  occ. eigenvalues --   -0.57687  -0.57107  -0.56795  -0.55597  -0.54787
 Alpha  occ. eigenvalues --   -0.54515  -0.54371  -0.53834  -0.53356  -0.52738
 Alpha  occ. eigenvalues --   -0.52054  -0.52022  -0.51287  -0.51021  -0.50285
 Alpha  occ. eigenvalues --   -0.50210  -0.50111  -0.49700  -0.49532  -0.49336
 Alpha  occ. eigenvalues --   -0.48658  -0.48623  -0.48311  -0.48040  -0.47942
 Alpha  occ. eigenvalues --   -0.47229  -0.47092  -0.46855  -0.46685  -0.46427
 Alpha  occ. eigenvalues --   -0.46311  -0.46084  -0.45848  -0.45768  -0.45448
 Alpha  occ. eigenvalues --   -0.45119  -0.44647  -0.44628  -0.44498  -0.44381
 Alpha  occ. eigenvalues --   -0.44193  -0.44096  -0.44021  -0.43733  -0.43642
 Alpha  occ. eigenvalues --   -0.43296  -0.43135  -0.43111  -0.43038  -0.42631
 Alpha  occ. eigenvalues --   -0.42074  -0.42000  -0.41828  -0.41672  -0.41417
 Alpha  occ. eigenvalues --   -0.41166  -0.40953  -0.40704  -0.40621  -0.40558
 Alpha  occ. eigenvalues --   -0.40245  -0.40082  -0.39847  -0.39694  -0.39659
 Alpha  occ. eigenvalues --   -0.39355  -0.39198  -0.39020  -0.38893  -0.38631
 Alpha  occ. eigenvalues --   -0.38414  -0.38321  -0.38071  -0.37859  -0.37776
 Alpha  occ. eigenvalues --   -0.37689  -0.37563  -0.37295  -0.37003  -0.36935
 Alpha  occ. eigenvalues --   -0.36833  -0.36740  -0.36428  -0.36158  -0.36086
 Alpha  occ. eigenvalues --   -0.35859  -0.35454  -0.35210  -0.35198  -0.34904
 Alpha  occ. eigenvalues --   -0.34684  -0.34578  -0.34229  -0.33628  -0.33400
 Alpha  occ. eigenvalues --   -0.33176  -0.33073  -0.32896  -0.32395  -0.32257
 Alpha  occ. eigenvalues --   -0.31916  -0.31750  -0.31683  -0.31572  -0.31519
 Alpha  occ. eigenvalues --   -0.31318  -0.31137  -0.29822  -0.29782  -0.29558
 Alpha  occ. eigenvalues --   -0.29421  -0.29223  -0.28590  -0.27123  -0.26105
 Alpha  occ. eigenvalues --   -0.25882  -0.25571  -0.25415  -0.25300  -0.21137
 Alpha  occ. eigenvalues --   -0.19336
 Alpha virt. eigenvalues --   -0.11518  -0.05365  -0.04024  -0.01991  -0.01277
 Alpha virt. eigenvalues --   -0.00891  -0.00108   0.01123   0.01505   0.03219
 Alpha virt. eigenvalues --    0.04553   0.04795   0.04917   0.05306   0.05993

 Mulliken charges:
               1
     1  Mg   0.957583
     2  C   -0.007735
     3  C   -0.056660
     4  C   -0.042609
     5  C   -0.096437
     6  N   -0.330361
     7  C    0.000645
     8  C   -0.099646
     9  C   -0.151374
    10  C    0.071291
    11  C    0.023096
    12  C    0.014017
    13  C    0.000527
    14  C    0.211785
    15  O   -0.265958
    16  O   -0.342155
    17  N   -0.502337
    18  C    0.176439
    19  C   -0.189404
    20  C   -0.059129
    21  C    0.121087
    22  C    0.035276
    23  C    0.045617
    24  O   -0.242309
    25  C    0.006838
    26  N   -0.404935
    27  C    0.100232
    28  C   -0.112358
    29  C   -0.115557
    30  C    0.095167
    31  C    0.031363
    32  C   -0.044291
    33  C   -0.061096
    34  N   -0.479656
    35  C    0.171229
    36  C   -0.193225
    37  C   -0.055285
    38  C    0.166642
    39  C    0.101418
    40  C    0.187181
    41  O   -0.221758
    42  C   -0.136513
    43  C    0.280232
    44  O   -0.273383
    45  O   -0.365507
    46  C    0.121584
    47  C    0.238740
    48  C   -0.096721
    49  C   -0.266831
    50  C   -0.000421
    51  C    0.000725
    52  C    0.001930
    53  C    0.025398
    54  C   -0.249744
    55  C   -0.041392
    56  C   -0.032750
    57  C   -0.057300
    58  C    0.007502
    59  C   -0.193468
    60  C   -0.018274
    61  C   -0.036392
    62  C   -0.063979
    63  C    0.010067
    64  C   -0.246925
    65  C    0.004014
    66  C   -0.029656
    67  H   -0.007196
    68  H    0.018284
    69  H    0.002084
    70  H    0.065312
    71  H    0.051369
    72  H    0.061419
    73  H    0.054443
    74  H    0.040362
    75  H    0.047008
    76  H    0.044054
    77  H    0.067778
    78  H    0.046389
    79  H    0.047008
    80  H    0.065870
    81  H    0.046042
    82  H    0.066492
    83  H    0.038390
    84  H    0.053604
    85  H    0.038406
    86  H    0.034239
    87  H    0.048277
    88  H    0.051485
    89  H    0.031157
    90  H    0.048863
    91  H    0.026460
    92  H    0.046857
    93  H    0.048613
    94  H    0.053689
    95  H    0.060903
    96  H    0.043346
    97  H    0.052799
    98  H    0.071372
    99  H    0.060948
   100  H    0.083708
   101  H    0.053782
   102  H    0.043298
   103  H    0.036233
   104  H    0.020253
   105  H    0.064291
   106  H    0.058271
   107  H    0.032276
   108  H    0.029025
   109  H    0.027747
   110  H    0.032742
   111  H    0.042106
   112  H    0.031571
   113  H    0.024237
   114  H    0.025073
   115  H    0.044812
   116  H    0.032889
   117  H    0.051296
   118  H    0.035123
   119  H    0.034567
   120  H    0.047279
   121  H    0.036525
   122  H    0.011077
   123  H    0.012353
   124  H    0.022219
   125  H    0.034535
   126  H    0.032653
   127  H    0.026326
   128  H    0.035645
   129  H    0.036275
   130  H    0.029718
   131  H    0.031274
   132  H    0.021177
   133  H    0.031991
   134  H    0.032809
   135  H    0.026826
   136  H    0.037411
   137  H    0.032505
   138  H    0.041127
   139  H    0.030756
   140  H    0.036002
 Sum of Mulliken charges =  -0.00000

 Dipole moment (field-independent basis, Debye):
    X=             -3.4418    Y=              2.2982    Z=              0.3216  Tot=              4.1510
 Quadrupole moment (field-independent basis, Debye-Ang):
   XX=           -380.1529   YY=           -420.8840   ZZ=           -410.7175
   XY=              0.3288   XZ=             27.8750   YZ=             -5.2529

 Normal termination of Gaussian 16 at Fri Apr 29 03:41:19 2022.
