 Gaussian 16, Revision A.03,
 Gaussian 16:  ES64L-G16RevA.03 25-Dec-2016

 --------------------------------
 #p wB97XD/Def2SVP td=(nstates=5)
 --------------------------------

 -----------------------------------------------------
 step_1851_chromophore_25 TDDFT with wB97XD functional
 -----------------------------------------------------
 Symbolic Z-matrix:
 Charge =  0 Multiplicity = 1

                         Standard orientation:
 ---------------------------------------------------------------------
 Center     Atomic      Atomic             Coordinates (Angstroms)
 Number     Number       Type             X           Y           Z
 ---------------------------------------------------------------------
      1         12           0        6.189895    0.364543    0.246263
      2          6           0        3.873317   -2.162322    0.093030
      3          6           0        3.673166    2.558290   -0.725559
      4          6           0        8.505702    2.658513   -0.268760
      5          6           0        8.636644   -2.087646    0.622715
      6          7           0        4.018322    0.161793   -0.466713
      7          6           0        3.244680   -0.907657   -0.192062
      8          6           0        1.701470   -0.709819   -0.321200
      9          6           0        1.683565    0.878259   -0.534101
     10          6           0        3.241936    1.260029   -0.602845
     11          6           0        0.820033    1.370505   -1.756236
     12          6           0        0.967342   -1.184318    1.020580
     13          6           0       -0.415303   -1.752562    0.774330
     14          6           0       -1.593227   -1.253277    1.500493
     15          8           0       -1.686849   -1.228267    2.722684
     16          8           0       -2.533989   -0.865500    0.572036
     17          7           0        6.066366    2.368526   -0.333624
     18          6           0        4.986824    3.140661   -0.649856
     19          6           0        5.434290    4.480417   -0.781545
     20          6           0        6.871144    4.572781   -0.639378
     21          6           0        7.213017    3.179125   -0.397111
     22          6           0        4.453449    5.617154   -1.035993
     23          6           0        7.719121    5.831162   -0.604038
     24          8           0        8.922747    5.847143   -0.408539
     25          6           0        7.109790    7.184002   -0.566367
     26          7           0        8.302028    0.247252    0.062865
     27          6           0        8.983924    1.427181   -0.043157
     28          6           0       10.451176    1.085203    0.172618
     29          6           0       10.442063   -0.293361    0.811419
     30          6           0        9.041244   -0.773094    0.530928
     31          6           0       11.284431    1.184628   -1.097987
     32          6           0       10.934508   -0.288132    2.332277
     33          6           0        9.983303    0.324728    3.305076
     34          7           0        6.269187   -1.687588    0.418055
     35          6           0        7.339704   -2.565333    0.570547
     36          6           0        6.893927   -3.888056    0.658923
     37          6           0        5.511773   -3.829236    0.462327
     38          6           0        5.190350   -2.471708    0.361985
     39          6           0        7.690644   -5.096852    0.962215
     40          6           0        4.317241   -4.624614    0.198416
     41          8           0        4.147601   -5.843700    0.074102
     42          6           0        3.169540   -3.605717   -0.039988
     43          6           0        2.434444   -3.953673   -1.262961
     44          8           0        2.993430   -4.291351   -2.328305
     45          8           0        1.091136   -3.827496   -1.132059
     46          6           0        0.352264   -4.497004   -2.220231
     47          6           0       -3.812038   -0.574446    0.975780
     48          6           0       -4.764594   -0.722689   -0.257528
     49          6           0       -6.043055   -1.062099   -0.148070
     50          6           0       -6.728572   -1.281566    1.241365
     51          6           0       -6.859193   -1.396755   -1.377054
     52          6           0       -7.416776   -0.105367   -2.069055
     53          6           0       -8.896173   -0.153233   -2.371797
     54          6           0       -9.687301    1.077348   -1.827549
     55          6           0      -10.044470    1.074012   -0.289334
     56          6           0      -10.953369    1.360804   -2.721201
     57          6           0      -11.811171    0.049800   -2.888901
     58          6           0      -13.311287    0.308557   -2.368156
     59          6           0      -13.822984   -0.206930   -0.991868
     60          6           0      -14.938986   -1.159916   -1.147588
     61          6           0      -14.219712    0.971297   -0.036507
     62          6           0      -14.538504    0.460916    1.434136
     63          6           0      -14.583755    1.601352    2.433690
     64          6           0      -13.389632    1.559381    3.450023
     65          6           0      -13.766490    1.940605    4.882011
     66          6           0      -12.229698    2.494765    2.998799
     67          1           0        2.848417    3.247630   -0.918751
     68          1           0        9.243072    3.452366   -0.404343
     69          1           0        9.431814   -2.800540    0.854160
     70          1           0        1.290505   -1.245461   -1.176668
     71          1           0        1.195647    1.220117    0.379217
     72          1           0        1.458003    1.752424   -2.552115
     73          1           0        0.164405    2.054954   -1.216500
     74          1           0        0.329102    0.445326   -2.057140
     75          1           0        0.912790   -0.404311    1.779398
     76          1           0        1.565844   -1.981298    1.459988
     77          1           0       -0.355404   -2.803082    1.059824
     78          1           0       -0.606228   -1.768051   -0.299466
     79          1           0        4.794077    6.268538   -1.840611
     80          1           0        4.450158    6.155119   -0.088135
     81          1           0        3.445507    5.385441   -1.381054
     82          1           0        7.763199    7.979468   -0.207904
     83          1           0        6.265961    7.039759    0.107506
     84          1           0        6.652163    7.356373   -1.540695
     85          1           0       10.832785    1.828988    0.872468
     86          1           0       11.191682   -0.915990    0.323740
     87          1           0       11.640014    2.210896   -1.185438
     88          1           0       10.816883    0.853758   -2.025620
     89          1           0       12.177815    0.578649   -0.952982
     90          1           0       11.899450    0.167120    2.555733
     91          1           0       10.874142   -1.357930    2.531803
     92          1           0       10.564770    0.981058    3.951802
     93          1           0        9.458123   -0.489264    3.803909
     94          1           0        9.324272    0.864756    2.624934
     95          1           0        7.001489   -5.836472    1.369429
     96          1           0        8.642383   -4.831828    1.422539
     97          1           0        7.975093   -5.635616    0.058347
     98          1           0        2.455166   -3.665944    0.781618
     99          1           0        0.482139   -5.551788   -1.980945
    100          1           0        0.697668   -4.239147   -3.221670
    101          1           0       -0.725954   -4.399701   -2.093115
    102          1           0       -3.793496    0.407368    1.447362
    103          1           0       -4.124795   -1.279061    1.746168
    104          1           0       -4.372449   -0.680893   -1.273725
    105          1           0       -6.686818   -0.412500    1.897481
    106          1           0       -6.308136   -2.164284    1.724127
    107          1           0       -7.752796   -1.616993    1.082135
    108          1           0       -7.507006   -2.228570   -1.101220
    109          1           0       -6.173358   -1.902214   -2.056430
    110          1           0       -6.800492    0.069136   -2.951803
    111          1           0       -7.195188    0.715385   -1.386968
    112          1           0       -9.267542   -1.087913   -1.952567
    113          1           0       -9.050123   -0.083176   -3.448373
    114          1           0       -9.063679    1.968506   -1.893978
    115          1           0      -10.034529    2.124781    0.001286
    116          1           0       -9.356855    0.615763    0.420944
    117          1           0      -11.003129    0.554862   -0.287240
    118          1           0      -10.625019    1.753901   -3.683558
    119          1           0      -11.464043    2.162222   -2.186907
    120          1           0      -11.508062   -0.809362   -2.289223
    121          1           0      -11.744292   -0.156755   -3.957616
    122          1           0      -13.979239   -0.059678   -3.146989
    123          1           0      -13.467085    1.382282   -2.480878
    124          1           0      -13.048665   -0.841335   -0.559521
    125          1           0      -15.235165   -1.639021   -0.213366
    126          1           0      -14.645806   -1.975558   -1.807611
    127          1           0      -15.839624   -0.709657   -1.566128
    128          1           0      -15.036094    1.379463   -0.632584
    129          1           0      -13.442510    1.729535    0.059172
    130          1           0      -13.902607   -0.352863    1.784542
    131          1           0      -15.536823    0.024820    1.387138
    132          1           0      -15.528891    1.515191    2.969779
    133          1           0      -14.549745    2.496832    1.813028
    134          1           0      -13.010717    0.537898    3.410500
    135          1           0      -14.829485    1.781368    5.063731
    136          1           0      -13.496543    2.960311    5.157211
    137          1           0      -13.229267    1.227168    5.506639
    138          1           0      -12.416923    3.543133    3.227705
    139          1           0      -12.198282    2.333179    1.920965
    140          1           0      -11.252747    2.204844    3.386724
 ---------------------------------------------------------------------

 SCF Done:  E(RwB97XD) =  -3007.86167205     A.U. after   19 cycles

 Excitation energies and oscillator strengths:

 Excited State   1:      Singlet-A      1.7118 eV  724.28 nm  f=0.3928  <S**2>=0.000
     245 -> 248        0.19175
     246 -> 247        0.68173
     245 <- 248        0.11544
 This state for optimization and/or second-order correction.
 Total Energy, E(TD-HF/TD-DFT) =  -3007.79876383
 Copying the excited state density for this state as the 1-particle RhoCI density.

 Excited State   2:      Singlet-A      2.1451 eV  577.98 nm  f=0.1332  <S**2>=0.000
     245 -> 247        0.64957
     246 -> 248       -0.26235

 Excited State   3:      Singlet-A      3.3503 eV  370.07 nm  f=0.0048  <S**2>=0.000
     241 -> 247       -0.46972
     244 -> 247        0.49747

 Excited State   4:      Singlet-A      3.4556 eV  358.79 nm  f=0.0410  <S**2>=0.000
     239 -> 247        0.10574
     240 -> 247        0.34958
     240 -> 249       -0.21643
     241 -> 247        0.30119
     244 -> 247        0.31510
     246 -> 248        0.29864

 Excited State   5:      Singlet-A      3.4919 eV  355.06 nm  f=0.0169  <S**2>=0.000
     239 -> 247        0.18004
     239 -> 249       -0.11125
     240 -> 247        0.40847
     240 -> 249       -0.23470
     240 -> 250        0.10357
     241 -> 247       -0.24337
     244 -> 247       -0.30141
     246 -> 248       -0.20379

 The electronic state is 1-A.
 Alpha  occ. eigenvalues --  -46.95635 -19.31691 -19.30461 -19.25251 -19.24436
 Alpha  occ. eigenvalues --  -19.24431 -19.23146 -14.47143 -14.46113 -14.44059
 Alpha  occ. eigenvalues --  -14.43902 -10.43454 -10.43416 -10.39514 -10.38664
 Alpha  occ. eigenvalues --  -10.36227 -10.36151 -10.35758 -10.34930 -10.34804
 Alpha  occ. eigenvalues --  -10.34039 -10.33881 -10.33674 -10.33419 -10.33128
 Alpha  occ. eigenvalues --  -10.33101 -10.32770 -10.32723 -10.32541 -10.32526
 Alpha  occ. eigenvalues --  -10.32292 -10.31647 -10.31256 -10.31133 -10.31023
 Alpha  occ. eigenvalues --  -10.30883 -10.30776 -10.30610 -10.30451 -10.30392
 Alpha  occ. eigenvalues --  -10.30365 -10.30307 -10.30163 -10.30030 -10.29813
 Alpha  occ. eigenvalues --  -10.29800 -10.29703 -10.29671 -10.29544 -10.29526
 Alpha  occ. eigenvalues --  -10.29523 -10.29483 -10.29390 -10.29330 -10.29284
 Alpha  occ. eigenvalues --  -10.29183 -10.29099 -10.28807 -10.28731 -10.28679
 Alpha  occ. eigenvalues --  -10.28675 -10.28665 -10.28289 -10.28216 -10.27949
 Alpha  occ. eigenvalues --  -10.27872  -3.21590  -1.95135  -1.94749  -1.94540
 Alpha  occ. eigenvalues --   -1.19925  -1.19318  -1.12124  -1.11646  -1.11359
 Alpha  occ. eigenvalues --   -1.08925  -1.07290  -1.06156  -1.05881  -1.04104
 Alpha  occ. eigenvalues --   -0.94611  -0.92370  -0.91711  -0.91474  -0.91190
 Alpha  occ. eigenvalues --   -0.90676  -0.90275  -0.90152  -0.89348  -0.89226
 Alpha  occ. eigenvalues --   -0.88654  -0.87934  -0.86480  -0.86134  -0.85632
 Alpha  occ. eigenvalues --   -0.84555  -0.84047  -0.83617  -0.83130  -0.82554
 Alpha  occ. eigenvalues --   -0.81714  -0.80758  -0.79845  -0.79663  -0.78625
 Alpha  occ. eigenvalues --   -0.78270  -0.77377  -0.76955  -0.76690  -0.76155
 Alpha  occ. eigenvalues --   -0.75611  -0.75253  -0.73831  -0.72188  -0.71130
 Alpha  occ. eigenvalues --   -0.70884  -0.70618  -0.69434  -0.69031  -0.67860
 Alpha  occ. eigenvalues --   -0.67730  -0.67340  -0.66628  -0.66362  -0.66252
 Alpha  occ. eigenvalues --   -0.65380  -0.64618  -0.64441  -0.63222  -0.62165
 Alpha  occ. eigenvalues --   -0.62040  -0.61786  -0.61344  -0.60804  -0.60256
 Alpha  occ. eigenvalues --   -0.59584  -0.59465  -0.58744  -0.58438  -0.57788
 Alpha  occ. eigenvalues --   -0.57728  -0.57597  -0.57071  -0.56920  -0.56826
 Alpha  occ. eigenvalues --   -0.56150  -0.55926  -0.55658  -0.55458  -0.55384
 Alpha  occ. eigenvalues --   -0.54635  -0.54380  -0.54244  -0.54050  -0.53858
 Alpha  occ. eigenvalues --   -0.53763  -0.53479  -0.53333  -0.53138  -0.52808
 Alpha  occ. eigenvalues --   -0.52446  -0.51983  -0.51927  -0.51811  -0.51661
 Alpha  occ. eigenvalues --   -0.51510  -0.51403  -0.51330  -0.51086  -0.50925
 Alpha  occ. eigenvalues --   -0.50636  -0.50446  -0.50414  -0.50319  -0.49895
 Alpha  occ. eigenvalues --   -0.49375  -0.49332  -0.49037  -0.48936  -0.48662
 Alpha  occ. eigenvalues --   -0.48323  -0.48180  -0.47993  -0.47873  -0.47794
 Alpha  occ. eigenvalues --   -0.47446  -0.47306  -0.47067  -0.46946  -0.46868
 Alpha  occ. eigenvalues --   -0.46612  -0.46416  -0.46236  -0.46196  -0.45759
 Alpha  occ. eigenvalues --   -0.45553  -0.45486  -0.45082  -0.45000  -0.44950
 Alpha  occ. eigenvalues --   -0.44759  -0.44615  -0.44421  -0.44153  -0.44072
 Alpha  occ. eigenvalues --   -0.43974  -0.43832  -0.43536  -0.43273  -0.43112
 Alpha  occ. eigenvalues --   -0.42971  -0.42603  -0.42306  -0.42224  -0.41860
 Alpha  occ. eigenvalues --   -0.41796  -0.41555  -0.41278  -0.40597  -0.40391
 Alpha  occ. eigenvalues --   -0.40125  -0.40121  -0.39906  -0.39394  -0.39268
 Alpha  occ. eigenvalues --   -0.39015  -0.38825  -0.38692  -0.38655  -0.38357
 Alpha  occ. eigenvalues --   -0.38306  -0.38129  -0.36704  -0.36680  -0.36408
 Alpha  occ. eigenvalues --   -0.36364  -0.36301  -0.35685  -0.33726  -0.33445
 Alpha  occ. eigenvalues --   -0.32579  -0.32368  -0.32309  -0.31741  -0.26136
 Alpha  occ. eigenvalues --   -0.23579
 Alpha virt. eigenvalues --   -0.07419   0.00076   0.02231   0.04457   0.04705
 Alpha virt. eigenvalues --    0.05782   0.06679   0.07890   0.08261   0.09885
 Alpha virt. eigenvalues --    0.10965   0.11548   0.11587   0.12022   0.12619

 Mulliken charges:
               1
     1  Mg   0.949574
     2  C   -0.016361
     3  C   -0.067278
     4  C   -0.059425
     5  C   -0.120064
     6  N   -0.296443
     7  C   -0.023548
     8  C   -0.073999
     9  C   -0.128994
    10  C    0.055918
    11  C    0.036253
    12  C    0.026186
    13  C    0.018735
    14  C    0.199709
    15  O   -0.261655
    16  O   -0.339659
    17  N   -0.471177
    18  C    0.160243
    19  C   -0.176895
    20  C   -0.056333
    21  C    0.111443
    22  C    0.047485
    23  C    0.040098
    24  O   -0.238378
    25  C    0.024659
    26  N   -0.370291
    27  C    0.087888
    28  C   -0.089560
    29  C   -0.079782
    30  C    0.077211
    31  C    0.038976
    32  C   -0.032432
    33  C   -0.038281
    34  N   -0.443601
    35  C    0.172239
    36  C   -0.185568
    37  C   -0.049704
    38  C    0.153962
    39  C    0.109741
    40  C    0.168029
    41  O   -0.209866
    42  C   -0.096540
    43  C    0.257309
    44  O   -0.268911
    45  O   -0.362873
    46  C    0.136120
    47  C    0.251476
    48  C   -0.110341
    49  C   -0.248911
    50  C    0.012283
    51  C    0.015613
    52  C    0.017720
    53  C    0.040990
    54  C   -0.218243
    55  C   -0.018877
    56  C   -0.015103
    57  C   -0.038552
    58  C    0.017126
    59  C   -0.159100
    60  C   -0.008507
    61  C   -0.012720
    62  C   -0.049128
    63  C    0.027197
    64  C   -0.218826
    65  C    0.015843
    66  C   -0.007526
    67  H   -0.015847
    68  H    0.012498
    69  H   -0.002939
    70  H    0.050478
    71  H    0.039433
    72  H    0.056376
    73  H    0.049565
    74  H    0.032713
    75  H    0.041819
    76  H    0.032027
    77  H    0.061642
    78  H    0.038035
    79  H    0.038924
    80  H    0.058222
    81  H    0.041746
    82  H    0.065335
    83  H    0.028498
    84  H    0.046384
    85  H    0.028416
    86  H    0.024419
    87  H    0.043316
    88  H    0.046589
    89  H    0.023454
    90  H    0.043301
    91  H    0.015707
    92  H    0.043024
    93  H    0.042976
    94  H    0.036601
    95  H    0.058192
    96  H    0.039290
    97  H    0.049550
    98  H    0.061136
    99  H    0.056303
   100  H    0.080959
   101  H    0.051119
   102  H    0.039524
   103  H    0.028829
   104  H    0.018291
   105  H    0.059855
   106  H    0.052763
   107  H    0.026427
   108  H    0.021703
   109  H    0.020232
   110  H    0.027235
   111  H    0.028949
   112  H    0.020308
   113  H    0.015109
   114  H    0.013381
   115  H    0.039044
   116  H    0.025493
   117  H    0.030169
   118  H    0.028181
   119  H    0.023257
   120  H    0.033790
   121  H    0.030383
   122  H    0.003584
   123  H    0.002431
   124  H    0.009207
   125  H    0.028298
   126  H    0.026527
   127  H    0.019768
   128  H    0.025500
   129  H    0.019610
   130  H    0.020117
   131  H    0.022085
   132  H    0.013727
   133  H    0.021495
   134  H    0.020995
   135  H    0.020575
   136  H    0.031567
   137  H    0.026674
   138  H    0.034718
   139  H    0.013706
   140  H    0.030662
 Sum of Mulliken charges =  -0.00000

 Dipole moment (field-independent basis, Debye):
    X=             -3.5791    Y=              1.7634    Z=              0.4303  Tot=              4.0131
 Quadrupole moment (field-independent basis, Debye-Ang):
   XX=           -381.6417   YY=           -419.9139   ZZ=           -410.3423
   XY=             -2.7436   XZ=             28.4860   YZ=             -5.1652

 Normal termination of Gaussian 16 at Fri Apr 29 04:04:30 2022.
