 Gaussian 16, Revision A.03,
 Gaussian 16:  ES64L-G16RevA.03 25-Dec-2016

 --------------------
 #p ZINDO=(nstates=5)
 --------------------

 ------------------------------
 step_1851_chromophore_25 ZINDO
 ------------------------------
 Symbolic Z-matrix:
 Charge =  0 Multiplicity = 1

                         Standard orientation:
 ---------------------------------------------------------------------
 Center     Atomic      Atomic             Coordinates (Angstroms)
 Number     Number       Type             X           Y           Z
 ---------------------------------------------------------------------
      1         12           0        6.189895    0.364543    0.246263
      2          6           0        3.873317   -2.162322    0.093030
      3          6           0        3.673166    2.558290   -0.725559
      4          6           0        8.505702    2.658513   -0.268760
      5          6           0        8.636644   -2.087646    0.622715
      6          7           0        4.018322    0.161793   -0.466713
      7          6           0        3.244680   -0.907657   -0.192062
      8          6           0        1.701470   -0.709819   -0.321200
      9          6           0        1.683565    0.878259   -0.534101
     10          6           0        3.241936    1.260029   -0.602845
     11          6           0        0.820033    1.370505   -1.756236
     12          6           0        0.967342   -1.184318    1.020580
     13          6           0       -0.415303   -1.752562    0.774330
     14          6           0       -1.593227   -1.253277    1.500493
     15          8           0       -1.686849   -1.228267    2.722684
     16          8           0       -2.533989   -0.865500    0.572036
     17          7           0        6.066366    2.368526   -0.333624
     18          6           0        4.986824    3.140661   -0.649856
     19          6           0        5.434290    4.480417   -0.781545
     20          6           0        6.871144    4.572781   -0.639378
     21          6           0        7.213017    3.179125   -0.397111
     22          6           0        4.453449    5.617154   -1.035993
     23          6           0        7.719121    5.831162   -0.604038
     24          8           0        8.922747    5.847143   -0.408539
     25          6           0        7.109790    7.184002   -0.566367
     26          7           0        8.302028    0.247252    0.062865
     27          6           0        8.983924    1.427181   -0.043157
     28          6           0       10.451176    1.085203    0.172618
     29          6           0       10.442063   -0.293361    0.811419
     30          6           0        9.041244   -0.773094    0.530928
     31          6           0       11.284431    1.184628   -1.097987
     32          6           0       10.934508   -0.288132    2.332277
     33          6           0        9.983303    0.324728    3.305076
     34          7           0        6.269187   -1.687588    0.418055
     35          6           0        7.339704   -2.565333    0.570547
     36          6           0        6.893927   -3.888056    0.658923
     37          6           0        5.511773   -3.829236    0.462327
     38          6           0        5.190350   -2.471708    0.361985
     39          6           0        7.690644   -5.096852    0.962215
     40          6           0        4.317241   -4.624614    0.198416
     41          8           0        4.147601   -5.843700    0.074102
     42          6           0        3.169540   -3.605717   -0.039988
     43          6           0        2.434444   -3.953673   -1.262961
     44          8           0        2.993430   -4.291351   -2.328305
     45          8           0        1.091136   -3.827496   -1.132059
     46          6           0        0.352264   -4.497004   -2.220231
     47          6           0       -3.812038   -0.574446    0.975780
     48          6           0       -4.764594   -0.722689   -0.257528
     49          6           0       -6.043055   -1.062099   -0.148070
     50          6           0       -6.728572   -1.281566    1.241365
     51          6           0       -6.859193   -1.396755   -1.377054
     52          6           0       -7.416776   -0.105367   -2.069055
     53          6           0       -8.896173   -0.153233   -2.371797
     54          6           0       -9.687301    1.077348   -1.827549
     55          6           0      -10.044470    1.074012   -0.289334
     56          6           0      -10.953369    1.360804   -2.721201
     57          6           0      -11.811171    0.049800   -2.888901
     58          6           0      -13.311287    0.308557   -2.368156
     59          6           0      -13.822984   -0.206930   -0.991868
     60          6           0      -14.938986   -1.159916   -1.147588
     61          6           0      -14.219712    0.971297   -0.036507
     62          6           0      -14.538504    0.460916    1.434136
     63          6           0      -14.583755    1.601352    2.433690
     64          6           0      -13.389632    1.559381    3.450023
     65          6           0      -13.766490    1.940605    4.882011
     66          6           0      -12.229698    2.494765    2.998799
     67          1           0        2.848417    3.247630   -0.918751
     68          1           0        9.243072    3.452366   -0.404343
     69          1           0        9.431814   -2.800540    0.854160
     70          1           0        1.290505   -1.245461   -1.176668
     71          1           0        1.195647    1.220117    0.379217
     72          1           0        1.458003    1.752424   -2.552115
     73          1           0        0.164405    2.054954   -1.216500
     74          1           0        0.329102    0.445326   -2.057140
     75          1           0        0.912790   -0.404311    1.779398
     76          1           0        1.565844   -1.981298    1.459988
     77          1           0       -0.355404   -2.803082    1.059824
     78          1           0       -0.606228   -1.768051   -0.299466
     79          1           0        4.794077    6.268538   -1.840611
     80          1           0        4.450158    6.155119   -0.088135
     81          1           0        3.445507    5.385441   -1.381054
     82          1           0        7.763199    7.979468   -0.207904
     83          1           0        6.265961    7.039759    0.107506
     84          1           0        6.652163    7.356373   -1.540695
     85          1           0       10.832785    1.828988    0.872468
     86          1           0       11.191682   -0.915990    0.323740
     87          1           0       11.640014    2.210896   -1.185438
     88          1           0       10.816883    0.853758   -2.025620
     89          1           0       12.177815    0.578649   -0.952982
     90          1           0       11.899450    0.167120    2.555733
     91          1           0       10.874142   -1.357930    2.531803
     92          1           0       10.564770    0.981058    3.951802
     93          1           0        9.458123   -0.489264    3.803909
     94          1           0        9.324272    0.864756    2.624934
     95          1           0        7.001489   -5.836472    1.369429
     96          1           0        8.642383   -4.831828    1.422539
     97          1           0        7.975093   -5.635616    0.058347
     98          1           0        2.455166   -3.665944    0.781618
     99          1           0        0.482139   -5.551788   -1.980945
    100          1           0        0.697668   -4.239147   -3.221670
    101          1           0       -0.725954   -4.399701   -2.093115
    102          1           0       -3.793496    0.407368    1.447362
    103          1           0       -4.124795   -1.279061    1.746168
    104          1           0       -4.372449   -0.680893   -1.273725
    105          1           0       -6.686818   -0.412500    1.897481
    106          1           0       -6.308136   -2.164284    1.724127
    107          1           0       -7.752796   -1.616993    1.082135
    108          1           0       -7.507006   -2.228570   -1.101220
    109          1           0       -6.173358   -1.902214   -2.056430
    110          1           0       -6.800492    0.069136   -2.951803
    111          1           0       -7.195188    0.715385   -1.386968
    112          1           0       -9.267542   -1.087913   -1.952567
    113          1           0       -9.050123   -0.083176   -3.448373
    114          1           0       -9.063679    1.968506   -1.893978
    115          1           0      -10.034529    2.124781    0.001286
    116          1           0       -9.356855    0.615763    0.420944
    117          1           0      -11.003129    0.554862   -0.287240
    118          1           0      -10.625019    1.753901   -3.683558
    119          1           0      -11.464043    2.162222   -2.186907
    120          1           0      -11.508062   -0.809362   -2.289223
    121          1           0      -11.744292   -0.156755   -3.957616
    122          1           0      -13.979239   -0.059678   -3.146989
    123          1           0      -13.467085    1.382282   -2.480878
    124          1           0      -13.048665   -0.841335   -0.559521
    125          1           0      -15.235165   -1.639021   -0.213366
    126          1           0      -14.645806   -1.975558   -1.807611
    127          1           0      -15.839624   -0.709657   -1.566128
    128          1           0      -15.036094    1.379463   -0.632584
    129          1           0      -13.442510    1.729535    0.059172
    130          1           0      -13.902607   -0.352863    1.784542
    131          1           0      -15.536823    0.024820    1.387138
    132          1           0      -15.528891    1.515191    2.969779
    133          1           0      -14.549745    2.496832    1.813028
    134          1           0      -13.010717    0.537898    3.410500
    135          1           0      -14.829485    1.781368    5.063731
    136          1           0      -13.496543    2.960311    5.157211
    137          1           0      -13.229267    1.227168    5.506639
    138          1           0      -12.416923    3.543133    3.227705
    139          1           0      -12.198282    2.333179    1.920965
    140          1           0      -11.252747    2.204844    3.386724
 ---------------------------------------------------------------------

 SCF Done:  E(RZINDO/S) =  -474.533532945     A.U. after   20 cycles

 Excitation energies and oscillator strengths:

 Excited State   1:      Singlet-A      1.3068 eV  948.75 nm  f=0.5807  <S**2>=0.000
     175 ->178         0.18829
     176 ->177         0.66478
 This state for optimization and/or second-order correction.
 Total Energy, E(CIS/TDA) =  -474.485508539
 Copying the excited state density for this state as the 1-particle RhoCI density.

 Excited State   2:      Singlet-A      1.8977 eV  653.33 nm  f=0.0871  <S**2>=0.000
     175 ->177         0.57844
     176 ->178        -0.37059

 Excited State   3:      Singlet-A      2.9220 eV  424.32 nm  f=0.0259  <S**2>=0.000
     168 ->177         0.39151
     168 ->178        -0.15351
     168 ->179        -0.38982
     168 ->183         0.23561
     168 ->185         0.18249
     176 ->178         0.10392

 Excited State   4:      Singlet-A      2.9454 eV  420.94 nm  f=0.0016  <S**2>=0.000
     170 ->177         0.23743
     170 ->179         0.29581
     170 ->181        -0.13646
     170 ->183         0.42082
     170 ->185        -0.21206
     170 ->187         0.23103

 Excited State   5:      Singlet-A      3.0036 eV  412.79 nm  f=0.9098  <S**2>=0.000
     171 ->177        -0.20348
     175 ->177         0.31343
     176 ->178         0.54288

 The electronic state is 1-A.
 Alpha  occ. eigenvalues --   -1.87396  -1.83207  -1.78968  -1.75872  -1.73791
 Alpha  occ. eigenvalues --   -1.70715  -1.65221  -1.61014  -1.59515  -1.59403
 Alpha  occ. eigenvalues --   -1.55578  -1.53275  -1.50000  -1.47792  -1.46973
 Alpha  occ. eigenvalues --   -1.45617  -1.43502  -1.41307  -1.38726  -1.37539
 Alpha  occ. eigenvalues --   -1.36310  -1.36000  -1.33258  -1.32660  -1.30716
 Alpha  occ. eigenvalues --   -1.26796  -1.25847  -1.21890  -1.20079  -1.18512
 Alpha  occ. eigenvalues --   -1.17505  -1.16822  -1.15275  -1.14725  -1.13066
 Alpha  occ. eigenvalues --   -1.12232  -1.11124  -1.10300  -1.05595  -1.04176
 Alpha  occ. eigenvalues --   -1.02706  -1.01502  -0.99725  -0.97770  -0.96955
 Alpha  occ. eigenvalues --   -0.95832  -0.94599  -0.94085  -0.93061  -0.91978
 Alpha  occ. eigenvalues --   -0.91028  -0.90386  -0.88362  -0.87431  -0.85718
 Alpha  occ. eigenvalues --   -0.85472  -0.84050  -0.83448  -0.81320  -0.80779
 Alpha  occ. eigenvalues --   -0.80245  -0.78970  -0.77974  -0.77277  -0.76741
 Alpha  occ. eigenvalues --   -0.76603  -0.76410  -0.75044  -0.74926  -0.74285
 Alpha  occ. eigenvalues --   -0.73086  -0.72628  -0.72078  -0.71676  -0.71644
 Alpha  occ. eigenvalues --   -0.71086  -0.69757  -0.69530  -0.68915  -0.68175
 Alpha  occ. eigenvalues --   -0.67546  -0.67223  -0.66786  -0.66242  -0.65987
 Alpha  occ. eigenvalues --   -0.65415  -0.64850  -0.64574  -0.64164  -0.63802
 Alpha  occ. eigenvalues --   -0.62914  -0.62603  -0.62406  -0.61856  -0.61682
 Alpha  occ. eigenvalues --   -0.61479  -0.61319  -0.60783  -0.60642  -0.59917
 Alpha  occ. eigenvalues --   -0.59548  -0.59366  -0.59033  -0.58628  -0.58212
 Alpha  occ. eigenvalues --   -0.57759  -0.57295  -0.57101  -0.57058  -0.56287
 Alpha  occ. eigenvalues --   -0.55843  -0.55756  -0.55440  -0.54564  -0.54441
 Alpha  occ. eigenvalues --   -0.54140  -0.53628  -0.53414  -0.53118  -0.52457
 Alpha  occ. eigenvalues --   -0.52414  -0.52259  -0.51940  -0.51631  -0.51217
 Alpha  occ. eigenvalues --   -0.50944  -0.50817  -0.50742  -0.50231  -0.50125
 Alpha  occ. eigenvalues --   -0.50027  -0.49750  -0.49659  -0.49577  -0.49318
 Alpha  occ. eigenvalues --   -0.48503  -0.48430  -0.48200  -0.47856  -0.47682
 Alpha  occ. eigenvalues --   -0.47521  -0.47332  -0.46976  -0.46928  -0.46606
 Alpha  occ. eigenvalues --   -0.46320  -0.46196  -0.45457  -0.45281  -0.45100
 Alpha  occ. eigenvalues --   -0.44899  -0.44789  -0.44613  -0.44202  -0.44167
 Alpha  occ. eigenvalues --   -0.43905  -0.43551  -0.43018  -0.42847  -0.42115
 Alpha  occ. eigenvalues --   -0.41946  -0.41719  -0.41673  -0.39584  -0.39223
 Alpha  occ. eigenvalues --   -0.38469  -0.37432  -0.35970  -0.35359  -0.34004
 Alpha  occ. eigenvalues --   -0.33829  -0.32823  -0.32785  -0.31657  -0.26667
 Alpha  occ. eigenvalues --   -0.22272
 Alpha virt. eigenvalues --   -0.08752  -0.02114  -0.00439   0.01357   0.01438
 Alpha virt. eigenvalues --    0.01576   0.01788   0.03210   0.04397   0.04843
 Alpha virt. eigenvalues --    0.06452   0.06935   0.07510   0.07944   0.08324

 Mulliken charges:
               1
     1  Mg   0.433965
     2  C   -0.073963
     3  C   -0.058373
     4  C   -0.044617
     5  C   -0.067650
     6  N   -0.263700
     7  C    0.158048
     8  C   -0.007867
     9  C   -0.018094
    10  C    0.096800
    11  C   -0.061231
    12  C   -0.020132
    13  C    0.005673
    14  C    0.478275
    15  O   -0.522629
    16  O   -0.267870
    17  N   -0.331114
    18  C    0.082630
    19  C   -0.009809
    20  C   -0.064502
    21  C    0.119425
    22  C   -0.052545
    23  C    0.331842
    24  O   -0.536293
    25  C   -0.026906
    26  N   -0.275204
    27  C    0.115246
    28  C    0.008080
    29  C    0.003588
    30  C    0.170075
    31  C   -0.046951
    32  C   -0.037581
    33  C   -0.063055
    34  N   -0.348967
    35  C    0.130389
    36  C    0.062848
    37  C   -0.044084
    38  C    0.149924
    39  C   -0.044846
    40  C    0.337614
    41  O   -0.511842
    42  C    0.043024
    43  C    0.494740
    44  O   -0.524912
    45  O   -0.269785
    46  C    0.072511
    47  C    0.108293
    48  C   -0.102472
    49  C   -0.003101
    50  C   -0.049731
    51  C   -0.026262
    52  C   -0.024753
    53  C   -0.029004
    54  C   -0.023444
    55  C   -0.066617
    56  C   -0.036483
    57  C   -0.039476
    58  C   -0.048616
    59  C   -0.001853
    60  C   -0.045830
    61  C   -0.039287
    62  C   -0.039345
    63  C   -0.035775
    64  C   -0.013693
    65  C   -0.056517
    66  C   -0.059825
    67  H    0.017084
    68  H    0.037463
    69  H    0.023517
    70  H    0.050437
    71  H    0.031313
    72  H    0.039012
    73  H    0.032735
    74  H    0.024045
    75  H    0.036014
    76  H    0.023795
    77  H    0.043375
    78  H    0.029875
    79  H    0.019095
    80  H    0.031093
    81  H    0.022742
    82  H    0.046677
    83  H    0.029559
    84  H    0.037185
    85  H    0.023519
    86  H    0.020573
    87  H    0.021872
    88  H    0.029689
    89  H    0.009975
    90  H    0.034029
    91  H    0.009942
    92  H    0.025977
    93  H    0.023947
    94  H    0.028983
    95  H    0.045949
    96  H    0.035403
    97  H    0.035091
    98  H    0.045766
    99  H    0.040236
   100  H    0.062099
   101  H    0.029162
   102  H    0.044562
   103  H    0.043825
   104  H    0.036081
   105  H    0.034896
   106  H    0.029155
   107  H    0.015361
   108  H    0.027766
   109  H    0.012341
   110  H    0.021590
   111  H    0.022004
   112  H    0.027122
   113  H    0.019185
   114  H    0.008402
   115  H    0.019814
   116  H    0.020784
   117  H    0.027092
   118  H    0.020161
   119  H    0.019545
   120  H    0.029256
   121  H    0.024863
   122  H    0.008425
   123  H    0.012656
   124  H    0.015105
   125  H    0.012141
   126  H    0.009330
   127  H    0.015400
   128  H    0.029310
   129  H    0.019809
   130  H    0.027460
   131  H    0.010594
   132  H    0.018476
   133  H    0.023525
   134  H    0.022419
   135  H    0.015368
   136  H    0.025011
   137  H    0.014162
   138  H    0.024828
   139  H    0.010828
   140  H    0.017735
 Sum of Mulliken charges =  -0.00000

 Dipole moment (field-independent basis, Debye):
    X=             -4.7298    Y=              0.6758    Z=              2.0869  Tot=              5.2137
 N-N= 4.248195139211D+03 E-N= 0.000000000000D+00  KE=-9.170549404740D+03
 Leave Link  601 at Fri Apr 29 04:16:56 2022, MaxMem=  6710886400 cpu:               0.8 elap:               0.1
 (Enter /sw/apps/gaussian-16.0/g16/l9999.exe)
 1\1\GINC-BP1-COMPUTE148\SP\RZINDO CIS\STO-3G\C55H74Mg1N4O6\OF15641\29-
 Apr-2022\0\\#p ZINDO=(nstates=5)\\step_1851_chromophore_25 ZINDO\\0,1\
 Mg,0,-2.765,34.446,26.333\C,0,-3.982,32.679,29.011\C,0,-1.578,36.807,2
 8.593\C,0,-2.194,36.469,23.789\C,0,-4.545,32.276,24.268\N,0,-2.967,34.
 807,28.59\C,0,-3.272,33.834,29.472\C,0,-2.918,34.106,30.968\C,0,-2.073
 ,35.453,30.77\C,0,-2.213,35.75,29.198\C,0,-2.494,36.641,31.715\C,0,-2.
 059,32.893,31.564\C,0,-2.309,32.654,33.039\C,0,-1.203,32.592,34.007\O,

 Normal termination of Gaussian 16 at Fri Apr 29 04:16:56 2022.
