 Gaussian 16, Revision A.03,
 Gaussian 16:  ES64L-G16RevA.03 25-Dec-2016

 ------------------------------
 #p blyp/Def2SVP td=(nstates=5)
 ------------------------------

 --------------------------------------------------
 step_101_chromophore_23 TDDFT with blyp functional
 --------------------------------------------------
 Symbolic Z-matrix:
 Charge =  0 Multiplicity = 1

                         Standard orientation:
 ---------------------------------------------------------------------
 Center     Atomic      Atomic             Coordinates (Angstroms)
 Number     Number       Type             X           Y           Z
 ---------------------------------------------------------------------
      1         12           0        4.362167    1.157701   -0.422471
      2          6           0        4.021482   -2.227466   -0.267740
      3          6           0        1.534238    1.167620   -2.469381
      4          6           0        4.251854    4.398914   -0.101278
      5          6           0        7.000067    0.929213    1.889931
      6          7           0        2.884014   -0.387384   -1.144334
      7          6           0        3.011071   -1.656480   -0.987833
      8          6           0        1.944860   -2.415463   -1.658230
      9          6           0        1.149959   -1.326986   -2.479300
     10          6           0        1.907035   -0.127421   -2.033822
     11          6           0        1.016335   -1.519047   -3.996085
     12          6           0        0.930531   -3.201147   -0.660578
     13          6           0        0.305985   -4.445192   -1.361074
     14          6           0       -1.114620   -4.267781   -1.885509
     15          8           0       -1.540099   -3.676285   -2.911287
     16          8           0       -1.986968   -4.817085   -1.016853
     17          7           0        3.074024    2.548382   -1.159434
     18          6           0        2.009914    2.384126   -2.041158
     19          6           0        1.380097    3.666827   -2.343566
     20          6           0        2.156339    4.632910   -1.643504
     21          6           0        3.301044    3.909902   -0.989528
     22          6           0        0.108103    3.733236   -3.196519
     23          6           0        1.757914    6.118179   -1.612689
     24          8           0        0.706998    6.500556   -2.126070
     25          6           0        2.620445    7.126241   -0.947184
     26          7           0        5.294573    2.487480    0.950306
     27          6           0        5.200973    3.856286    0.772555
     28          6           0        6.244318    4.609096    1.610557
     29          6           0        7.133916    3.458915    2.240082
     30          6           0        6.437279    2.188850    1.715853
     31          6           0        6.994992    5.650873    0.784283
     32          6           0        7.220276    3.651469    3.826271
     33          6           0        8.556818    3.568861    4.505123
     34          7           0        5.489788   -0.325410    0.524576
     35          6           0        6.451909   -0.312074    1.426183
     36          6           0        6.907560   -1.630556    1.761683
     37          6           0        5.916728   -2.428658    1.080666
     38          6           0        5.026880   -1.599846    0.434666
     39          6           0        8.098756   -2.045019    2.674744
     40          6           0        5.661786   -3.796819    0.679397
     41          8           0        6.268168   -4.805156    0.952470
     42          6           0        4.306064   -3.677341   -0.096464
     43          6           0        4.498990   -4.352031   -1.396559
     44          8           0        5.361985   -3.984025   -2.235054
     45          8           0        3.845901   -5.575599   -1.493383
     46          6           0        4.281606   -6.435603   -2.628340
     47          6           0       -3.424083   -4.644027   -1.212646
     48          6           0       -4.032218   -4.832971    0.163467
     49          6           0       -4.369488   -3.964878    1.143266
     50          6           0       -4.122877   -2.516854    1.157017
     51          6           0       -5.103138   -4.566251    2.279721
     52          6           0       -6.597807   -4.663002    2.262602
     53          6           0       -7.292835   -3.479688    2.879240
     54          6           0       -8.476126   -2.811120    2.017725
     55          6           0       -9.646470   -3.740520    2.080550
     56          6           0       -8.869043   -1.401954    2.440407
     57          6           0       -7.817061   -0.394049    1.996850
     58          6           0       -8.275045    1.049719    2.128618
     59          6           0       -7.581006    2.013183    1.152954
     60          6           0       -6.097658    2.359726    1.654267
     61          6           0       -8.416672    3.312941    0.970343
     62          6           0       -9.141144    3.381068   -0.357120
     63          6           0      -10.742187    3.438766   -0.221706
     64          6           0      -11.299632    4.545468   -1.067439
     65          6           0      -12.737644    4.998759   -0.758797
     66          6           0      -11.185370    4.031256   -2.539429
     67          1           0        0.632977    1.181347   -3.084832
     68          1           0        4.342707    5.486912   -0.081381
     69          1           0        7.887968    0.962976    2.524879
     70          1           0        2.464959   -3.001036   -2.416050
     71          1           0        0.170226   -1.209373   -2.016895
     72          1           0        1.822745   -1.001379   -4.515161
     73          1           0        0.115792   -1.074475   -4.419836
     74          1           0        0.913530   -2.585314   -4.196415
     75          1           0        0.198919   -2.532431   -0.207211
     76          1           0        1.442547   -3.628130    0.201853
     77          1           0        0.244917   -5.197663   -0.575500
     78          1           0        1.036644   -4.680456   -2.134651
     79          1           0       -0.842776    3.714925   -2.665244
     80          1           0        0.087023    2.944111   -3.947771
     81          1           0        0.103019    4.660812   -3.769782
     82          1           0        2.096493    8.081891   -0.920373
     83          1           0        3.592756    7.236430   -1.426448
     84          1           0        2.825752    6.812274    0.076807
     85          1           0        5.583242    5.182432    2.260281
     86          1           0        8.085581    3.478239    1.708212
     87          1           0        6.646507    6.606581    1.175923
     88          1           0        6.595604    5.750828   -0.225525
     89          1           0        8.069590    5.472177    0.741524
     90          1           0        6.629981    2.830202    4.230182
     91          1           0        6.650119    4.529599    4.130480
     92          1           0        9.345333    3.773600    3.780834
     93          1           0        8.767429    2.655751    5.062235
     94          1           0        8.620243    4.451545    5.140637
     95          1           0        8.022179   -1.966228    3.759428
     96          1           0        9.032402   -1.603808    2.326473
     97          1           0        8.278237   -3.109366    2.529990
     98          1           0        3.510209   -4.073600    0.534033
     99          1           0        5.371224   -6.437176   -2.662229
    100          1           0        3.861222   -6.177651   -3.600243
    101          1           0        3.924688   -7.441490   -2.408262
    102          1           0       -3.686741   -5.363853   -1.987229
    103          1           0       -3.630520   -3.643568   -1.593696
    104          1           0       -4.297462   -5.862891    0.403354
    105          1           0       -3.631237   -2.303539    0.207711
    106          1           0       -3.502695   -2.415028    2.047843
    107          1           0       -5.047084   -1.960594    1.315521
    108          1           0       -4.978852   -3.930735    3.156279
    109          1           0       -4.628956   -5.493776    2.602947
    110          1           0       -6.814623   -5.578417    2.813533
    111          1           0       -7.013740   -4.819990    1.267327
    112          1           0       -6.624657   -2.671822    3.177165
    113          1           0       -7.672962   -3.787735    3.853362
    114          1           0       -8.235978   -2.840172    0.955064
    115          1           0       -9.423035   -4.631699    2.668429
    116          1           0       -9.898524   -4.099201    1.082927
    117          1           0      -10.581814   -3.363639    2.495267
    118          1           0       -8.873354   -1.279286    3.523954
    119          1           0       -9.861626   -1.157061    2.060777
    120          1           0       -7.354306   -0.734998    1.070554
    121          1           0       -7.016406   -0.417485    2.736628
    122          1           0       -8.155727    1.399322    3.153716
    123          1           0       -9.334724    1.128330    1.884626
    124          1           0       -7.398270    1.385205    0.280148
    125          1           0       -5.321429    1.954548    1.004525
    126          1           0       -5.764920    2.153591    2.670749
    127          1           0       -6.015065    3.445058    1.702390
    128          1           0       -7.750457    4.169638    0.873303
    129          1           0       -9.008393    3.471581    1.872784
    130          1           0       -8.739551    2.580258   -0.977713
    131          1           0       -8.788065    4.316290   -0.791620
    132          1           0      -11.056886    3.571516    0.813063
    133          1           0      -11.183556    2.490222   -0.528127
    134          1           0      -10.645829    5.418118   -1.091565
    135          1           0      -13.235213    4.356939   -0.030981
    136          1           0      -13.408239    5.048285   -1.616562
    137          1           0      -12.612646    5.973529   -0.286679
    138          1           0      -10.333462    4.353126   -3.138444
    139          1           0      -11.978380    4.564153   -3.063810
    140          1           0      -11.439300    2.976629   -2.637481
 ---------------------------------------------------------------------

 SCF Done:  E(RB-LYP) =  -3007.35932439     A.U. after   21 cycles

 Excitation energies and oscillator strengths:

 Excited State   1:      Singlet-A      1.8465 eV  671.45 nm  f=0.3070  <S**2>=0.000
     245 -> 248       -0.19268
     246 -> 247        0.68651
     246 <- 247       -0.14482
 This state for optimization and/or second-order correction.
 Total Energy, E(TD-HF/TD-DFT) =  -3007.29146654
 Copying the excited state density for this state as the 1-particle RhoCI density.

 Excited State   2:      Singlet-A      2.0056 eV  618.20 nm  f=0.0041  <S**2>=0.000
     244 -> 247        0.68863
     245 -> 247       -0.14144

 Excited State   3:      Singlet-A      2.0508 eV  604.57 nm  f=0.0653  <S**2>=0.000
     243 -> 247        0.22052
     244 -> 247        0.14703
     245 -> 247        0.59802
     246 -> 248        0.22113

 Excited State   4:      Singlet-A      2.0623 eV  601.19 nm  f=0.0054  <S**2>=0.000
     243 -> 247        0.67000
     245 -> 247       -0.19948

 Excited State   5:      Singlet-A      2.4340 eV  509.39 nm  f=0.0017  <S**2>=0.000
     241 -> 247        0.70486

 The electronic state is 1-A.
 Alpha  occ. eigenvalues --  -46.26908 -18.82355 -18.81839 -18.76397 -18.76330
 Alpha  occ. eigenvalues --  -18.75793 -18.75457 -14.03017 -14.02768 -14.01156
 Alpha  occ. eigenvalues --  -14.00268 -10.04149 -10.03954  -9.99827  -9.99300
 Alpha  occ. eigenvalues --   -9.98112  -9.97620  -9.96778  -9.96732  -9.96189
 Alpha  occ. eigenvalues --   -9.96020  -9.95313  -9.95236  -9.94860  -9.94590
 Alpha  occ. eigenvalues --   -9.94561  -9.94301  -9.93984  -9.93895  -9.93881
 Alpha  occ. eigenvalues --   -9.93735  -9.93572  -9.93339  -9.93287  -9.93246
 Alpha  occ. eigenvalues --   -9.93099  -9.92969  -9.92656  -9.92633  -9.92616
 Alpha  occ. eigenvalues --   -9.92560  -9.92345  -9.92318  -9.92313  -9.92059
 Alpha  occ. eigenvalues --   -9.92048  -9.92018  -9.91974  -9.91958  -9.91811
 Alpha  occ. eigenvalues --   -9.91776  -9.91643  -9.91640  -9.91586  -9.91574
 Alpha  occ. eigenvalues --   -9.91190  -9.91081  -9.91045  -9.90871  -9.90840
 Alpha  occ. eigenvalues --   -9.90745  -9.90687  -9.90498  -9.90406  -9.90313
 Alpha  occ. eigenvalues --   -9.90137  -2.91600  -1.72008  -1.71522  -1.71286
 Alpha  occ. eigenvalues --   -0.97953  -0.96321  -0.91953  -0.91110  -0.88932
 Alpha  occ. eigenvalues --   -0.88052  -0.88034  -0.86934  -0.84742  -0.83893
 Alpha  occ. eigenvalues --   -0.76839  -0.75014  -0.73401  -0.72896  -0.72389
 Alpha  occ. eigenvalues --   -0.72287  -0.71969  -0.71329  -0.71121  -0.69828
 Alpha  occ. eigenvalues --   -0.69297  -0.68799  -0.68637  -0.68101  -0.67464
 Alpha  occ. eigenvalues --   -0.66923  -0.66279  -0.65874  -0.65042  -0.64926
 Alpha  occ. eigenvalues --   -0.64139  -0.62472  -0.62327  -0.61566  -0.61341
 Alpha  occ. eigenvalues --   -0.60914  -0.59969  -0.59913  -0.59582  -0.58943
 Alpha  occ. eigenvalues --   -0.58568  -0.57870  -0.57145  -0.55934  -0.54529
 Alpha  occ. eigenvalues --   -0.54242  -0.54163  -0.53074  -0.52757  -0.51986
 Alpha  occ. eigenvalues --   -0.51687  -0.50895  -0.50715  -0.50435  -0.50189
 Alpha  occ. eigenvalues --   -0.49711  -0.49148  -0.49118  -0.48316  -0.46387
 Alpha  occ. eigenvalues --   -0.46169  -0.46021  -0.45506  -0.45222  -0.45066
 Alpha  occ. eigenvalues --   -0.44175  -0.44082  -0.43865  -0.43119  -0.42504
 Alpha  occ. eigenvalues --   -0.42262  -0.42215  -0.41811  -0.41500  -0.41309
 Alpha  occ. eigenvalues --   -0.40813  -0.40690  -0.40287  -0.40148  -0.39900
 Alpha  occ. eigenvalues --   -0.39856  -0.39795  -0.39661  -0.39284  -0.38969
 Alpha  occ. eigenvalues --   -0.38928  -0.38775  -0.38664  -0.38490  -0.38389
 Alpha  occ. eigenvalues --   -0.37756  -0.37486  -0.37325  -0.37274  -0.37134
 Alpha  occ. eigenvalues --   -0.36951  -0.36696  -0.36533  -0.36396  -0.36247
 Alpha  occ. eigenvalues --   -0.36170  -0.36091  -0.35942  -0.35796  -0.35587
 Alpha  occ. eigenvalues --   -0.35557  -0.35387  -0.35203  -0.34853  -0.34775
 Alpha  occ. eigenvalues --   -0.34620  -0.34499  -0.34236  -0.34022  -0.33916
 Alpha  occ. eigenvalues --   -0.33821  -0.33568  -0.33388  -0.33127  -0.33091
 Alpha  occ. eigenvalues --   -0.33039  -0.32941  -0.32702  -0.32509  -0.32369
 Alpha  occ. eigenvalues --   -0.32179  -0.32053  -0.31805  -0.31727  -0.31557
 Alpha  occ. eigenvalues --   -0.31263  -0.31112  -0.30855  -0.30692  -0.30526
 Alpha  occ. eigenvalues --   -0.30333  -0.30244  -0.30033  -0.30003  -0.29693
 Alpha  occ. eigenvalues --   -0.29380  -0.29246  -0.29104  -0.28887  -0.28753
 Alpha  occ. eigenvalues --   -0.28562  -0.28259  -0.28049  -0.27969  -0.27923
 Alpha  occ. eigenvalues --   -0.27673  -0.27464  -0.27447  -0.26884  -0.26609
 Alpha  occ. eigenvalues --   -0.26451  -0.26386  -0.25920  -0.25616  -0.25486
 Alpha  occ. eigenvalues --   -0.24930  -0.24839  -0.24229  -0.24026  -0.23964
 Alpha  occ. eigenvalues --   -0.23405  -0.22128  -0.21948  -0.21469  -0.20678
 Alpha  occ. eigenvalues --   -0.20315  -0.20006  -0.18833  -0.18670  -0.17279
 Alpha  occ. eigenvalues --   -0.15797
 Alpha virt. eigenvalues --   -0.11376  -0.06853  -0.05885  -0.04333  -0.03508
 Alpha virt. eigenvalues --   -0.03421  -0.02820  -0.02425  -0.01366   0.00340
 Alpha virt. eigenvalues --    0.01596   0.01756   0.02322   0.02665   0.03191

 Mulliken charges:
               1
     1  Mg   0.694955
     2  C   -0.022754
     3  C   -0.084739
     4  C   -0.040744
     5  C   -0.075730
     6  N   -0.123852
     7  C   -0.129082
     8  C    0.031486
     9  C    0.028501
    10  C   -0.053785
    11  C    0.160557
    12  C    0.097851
    13  C    0.179198
    14  C    0.071842
    15  O   -0.239242
    16  O   -0.256089
    17  N   -0.334305
    18  C    0.174052
    19  C   -0.112896
    20  C    0.000598
    21  C    0.179159
    22  C    0.172649
    23  C   -0.078635
    24  O   -0.167546
    25  C    0.140003
    26  N   -0.264606
    27  C   -0.038251
    28  C    0.013861
    29  C    0.066046
    30  C    0.008308
    31  C    0.133783
    32  C    0.092397
    33  C    0.084480
    34  N   -0.237245
    35  C    0.118738
    36  C   -0.148833
    37  C    0.044201
    38  C    0.100722
    39  C    0.149236
    40  C   -0.050174
    41  O   -0.111985
    42  C    0.118871
    43  C    0.126941
    44  O   -0.228852
    45  O   -0.284219
    46  C    0.217156
    47  C    0.322974
    48  C   -0.075437
    49  C   -0.174587
    50  C    0.184790
    51  C    0.122284
    52  C    0.144335
    53  C    0.063084
    54  C   -0.067287
    55  C    0.122098
    56  C    0.119751
    57  C    0.026779
    58  C    0.114275
    59  C   -0.081691
    60  C    0.075650
    61  C    0.131880
    62  C    0.079011
    63  C    0.129092
    64  C   -0.115712
    65  C    0.125811
    66  C    0.089315
    67  H   -0.065764
    68  H   -0.094805
    69  H   -0.066539
    70  H   -0.014451
    71  H   -0.017850
    72  H   -0.012665
    73  H   -0.009644
    74  H    0.002365
    75  H   -0.014676
    76  H   -0.020046
    77  H   -0.009357
    78  H   -0.003499
    79  H    0.010287
    80  H   -0.010933
    81  H   -0.000133
    82  H   -0.009634
    83  H    0.015211
    84  H    0.009656
    85  H   -0.012031
    86  H   -0.020675
    87  H   -0.019379
    88  H   -0.013087
    89  H    0.001575
    90  H   -0.023579
    91  H   -0.020926
    92  H   -0.019504
    93  H    0.010336
    94  H   -0.016407
    95  H    0.006973
    96  H   -0.007430
    97  H   -0.006207
    98  H   -0.003000
    99  H    0.029483
   100  H    0.015642
   101  H    0.009313
   102  H   -0.009059
   103  H   -0.006221
   104  H   -0.046740
   105  H   -0.009416
   106  H    0.002537
   107  H    0.008460
   108  H   -0.061407
   109  H   -0.026322
   110  H   -0.033009
   111  H   -0.037645
   112  H   -0.042141
   113  H   -0.035738
   114  H   -0.037079
   115  H   -0.027824
   116  H   -0.027233
   117  H   -0.024379
   118  H   -0.039301
   119  H   -0.030194
   120  H   -0.016131
   121  H   -0.024140
   122  H   -0.031526
   123  H   -0.040786
   124  H   -0.034839
   125  H   -0.011293
   126  H   -0.026748
   127  H   -0.031438
   128  H   -0.043432
   129  H   -0.026882
   130  H   -0.026716
   131  H   -0.031855
   132  H   -0.039930
   133  H   -0.032183
   134  H   -0.033530
   135  H   -0.025083
   136  H   -0.012888
   137  H   -0.012306
   138  H   -0.012525
   139  H   -0.043734
   140  H   -0.016388
 Sum of Mulliken charges =  -0.00000

 Dipole moment (field-independent basis, Debye):
    X=             -1.2419    Y=              1.6027    Z=              3.0172  Tot=              3.6351
 Quadrupole moment (field-independent basis, Debye-Ang):
   XX=           -392.7739   YY=           -409.1102   ZZ=           -402.5850
   XY=             45.7698   XZ=              1.6122   YZ=             15.6783

 Normal termination of Gaussian 16 at Wed Apr 27 01:36:39 2022.
