 Gaussian 16, Revision A.03,
 Gaussian 16:  ES64L-G16RevA.03 25-Dec-2016

 -----------------------------------
 #p cam-b3lyp/Def2SVP td=(nstates=5)
 -----------------------------------

 -------------------------------------------------------
 step_101_chromophore_23 TDDFT with cam-b3lyp functional
 -------------------------------------------------------
 Symbolic Z-matrix:
 Charge =  0 Multiplicity = 1

                         Standard orientation:
 ---------------------------------------------------------------------
 Center     Atomic      Atomic             Coordinates (Angstroms)
 Number     Number       Type             X           Y           Z
 ---------------------------------------------------------------------
      1         12           0        4.362167    1.157701   -0.422471
      2          6           0        4.021482   -2.227466   -0.267740
      3          6           0        1.534238    1.167620   -2.469381
      4          6           0        4.251854    4.398914   -0.101278
      5          6           0        7.000067    0.929213    1.889931
      6          7           0        2.884014   -0.387384   -1.144334
      7          6           0        3.011071   -1.656480   -0.987833
      8          6           0        1.944860   -2.415463   -1.658230
      9          6           0        1.149959   -1.326986   -2.479300
     10          6           0        1.907035   -0.127421   -2.033822
     11          6           0        1.016335   -1.519047   -3.996085
     12          6           0        0.930531   -3.201147   -0.660578
     13          6           0        0.305985   -4.445192   -1.361074
     14          6           0       -1.114620   -4.267781   -1.885509
     15          8           0       -1.540099   -3.676285   -2.911287
     16          8           0       -1.986968   -4.817085   -1.016853
     17          7           0        3.074024    2.548382   -1.159434
     18          6           0        2.009914    2.384126   -2.041158
     19          6           0        1.380097    3.666827   -2.343566
     20          6           0        2.156339    4.632910   -1.643504
     21          6           0        3.301044    3.909902   -0.989528
     22          6           0        0.108103    3.733236   -3.196519
     23          6           0        1.757914    6.118179   -1.612689
     24          8           0        0.706998    6.500556   -2.126070
     25          6           0        2.620445    7.126241   -0.947184
     26          7           0        5.294573    2.487480    0.950306
     27          6           0        5.200973    3.856286    0.772555
     28          6           0        6.244318    4.609096    1.610557
     29          6           0        7.133916    3.458915    2.240082
     30          6           0        6.437279    2.188850    1.715853
     31          6           0        6.994992    5.650873    0.784283
     32          6           0        7.220276    3.651469    3.826271
     33          6           0        8.556818    3.568861    4.505123
     34          7           0        5.489788   -0.325410    0.524576
     35          6           0        6.451909   -0.312074    1.426183
     36          6           0        6.907560   -1.630556    1.761683
     37          6           0        5.916728   -2.428658    1.080666
     38          6           0        5.026880   -1.599846    0.434666
     39          6           0        8.098756   -2.045019    2.674744
     40          6           0        5.661786   -3.796819    0.679397
     41          8           0        6.268168   -4.805156    0.952470
     42          6           0        4.306064   -3.677341   -0.096464
     43          6           0        4.498990   -4.352031   -1.396559
     44          8           0        5.361985   -3.984025   -2.235054
     45          8           0        3.845901   -5.575599   -1.493383
     46          6           0        4.281606   -6.435603   -2.628340
     47          6           0       -3.424083   -4.644027   -1.212646
     48          6           0       -4.032218   -4.832971    0.163467
     49          6           0       -4.369488   -3.964878    1.143266
     50          6           0       -4.122877   -2.516854    1.157017
     51          6           0       -5.103138   -4.566251    2.279721
     52          6           0       -6.597807   -4.663002    2.262602
     53          6           0       -7.292835   -3.479688    2.879240
     54          6           0       -8.476126   -2.811120    2.017725
     55          6           0       -9.646470   -3.740520    2.080550
     56          6           0       -8.869043   -1.401954    2.440407
     57          6           0       -7.817061   -0.394049    1.996850
     58          6           0       -8.275045    1.049719    2.128618
     59          6           0       -7.581006    2.013183    1.152954
     60          6           0       -6.097658    2.359726    1.654267
     61          6           0       -8.416672    3.312941    0.970343
     62          6           0       -9.141144    3.381068   -0.357120
     63          6           0      -10.742187    3.438766   -0.221706
     64          6           0      -11.299632    4.545468   -1.067439
     65          6           0      -12.737644    4.998759   -0.758797
     66          6           0      -11.185370    4.031256   -2.539429
     67          1           0        0.632977    1.181347   -3.084832
     68          1           0        4.342707    5.486912   -0.081381
     69          1           0        7.887968    0.962976    2.524879
     70          1           0        2.464959   -3.001036   -2.416050
     71          1           0        0.170226   -1.209373   -2.016895
     72          1           0        1.822745   -1.001379   -4.515161
     73          1           0        0.115792   -1.074475   -4.419836
     74          1           0        0.913530   -2.585314   -4.196415
     75          1           0        0.198919   -2.532431   -0.207211
     76          1           0        1.442547   -3.628130    0.201853
     77          1           0        0.244917   -5.197663   -0.575500
     78          1           0        1.036644   -4.680456   -2.134651
     79          1           0       -0.842776    3.714925   -2.665244
     80          1           0        0.087023    2.944111   -3.947771
     81          1           0        0.103019    4.660812   -3.769782
     82          1           0        2.096493    8.081891   -0.920373
     83          1           0        3.592756    7.236430   -1.426448
     84          1           0        2.825752    6.812274    0.076807
     85          1           0        5.583242    5.182432    2.260281
     86          1           0        8.085581    3.478239    1.708212
     87          1           0        6.646507    6.606581    1.175923
     88          1           0        6.595604    5.750828   -0.225525
     89          1           0        8.069590    5.472177    0.741524
     90          1           0        6.629981    2.830202    4.230182
     91          1           0        6.650119    4.529599    4.130480
     92          1           0        9.345333    3.773600    3.780834
     93          1           0        8.767429    2.655751    5.062235
     94          1           0        8.620243    4.451545    5.140637
     95          1           0        8.022179   -1.966228    3.759428
     96          1           0        9.032402   -1.603808    2.326473
     97          1           0        8.278237   -3.109366    2.529990
     98          1           0        3.510209   -4.073600    0.534033
     99          1           0        5.371224   -6.437176   -2.662229
    100          1           0        3.861222   -6.177651   -3.600243
    101          1           0        3.924688   -7.441490   -2.408262
    102          1           0       -3.686741   -5.363853   -1.987229
    103          1           0       -3.630520   -3.643568   -1.593696
    104          1           0       -4.297462   -5.862891    0.403354
    105          1           0       -3.631237   -2.303539    0.207711
    106          1           0       -3.502695   -2.415028    2.047843
    107          1           0       -5.047084   -1.960594    1.315521
    108          1           0       -4.978852   -3.930735    3.156279
    109          1           0       -4.628956   -5.493776    2.602947
    110          1           0       -6.814623   -5.578417    2.813533
    111          1           0       -7.013740   -4.819990    1.267327
    112          1           0       -6.624657   -2.671822    3.177165
    113          1           0       -7.672962   -3.787735    3.853362
    114          1           0       -8.235978   -2.840172    0.955064
    115          1           0       -9.423035   -4.631699    2.668429
    116          1           0       -9.898524   -4.099201    1.082927
    117          1           0      -10.581814   -3.363639    2.495267
    118          1           0       -8.873354   -1.279286    3.523954
    119          1           0       -9.861626   -1.157061    2.060777
    120          1           0       -7.354306   -0.734998    1.070554
    121          1           0       -7.016406   -0.417485    2.736628
    122          1           0       -8.155727    1.399322    3.153716
    123          1           0       -9.334724    1.128330    1.884626
    124          1           0       -7.398270    1.385205    0.280148
    125          1           0       -5.321429    1.954548    1.004525
    126          1           0       -5.764920    2.153591    2.670749
    127          1           0       -6.015065    3.445058    1.702390
    128          1           0       -7.750457    4.169638    0.873303
    129          1           0       -9.008393    3.471581    1.872784
    130          1           0       -8.739551    2.580258   -0.977713
    131          1           0       -8.788065    4.316290   -0.791620
    132          1           0      -11.056886    3.571516    0.813063
    133          1           0      -11.183556    2.490222   -0.528127
    134          1           0      -10.645829    5.418118   -1.091565
    135          1           0      -13.235213    4.356939   -0.030981
    136          1           0      -13.408239    5.048285   -1.616562
    137          1           0      -12.612646    5.973529   -0.286679
    138          1           0      -10.333462    4.353126   -3.138444
    139          1           0      -11.978380    4.564153   -3.063810
    140          1           0      -11.439300    2.976629   -2.637481
 ---------------------------------------------------------------------

 SCF Done:  E(RCAM-B3LYP) =  -3007.16135906     A.U. after   18 cycles

 Excitation energies and oscillator strengths:

 Excited State   1:      Singlet-A      1.7893 eV  692.91 nm  f=0.3836  <S**2>=0.000
     245 -> 248       -0.17746
     246 -> 247        0.68548
     245 <- 248       -0.10184
 This state for optimization and/or second-order correction.
 Total Energy, E(TD-HF/TD-DFT) =  -3007.09560232
 Copying the excited state density for this state as the 1-particle RhoCI density.

 Excited State   2:      Singlet-A      2.3125 eV  536.14 nm  f=0.1004  <S**2>=0.000
     245 -> 247        0.63455
     246 -> 248        0.29338

 Excited State   3:      Singlet-A      3.4014 eV  364.51 nm  f=0.0045  <S**2>=0.000
     241 -> 247       -0.10831
     244 -> 247        0.65733
     246 -> 248       -0.14976

 Excited State   4:      Singlet-A      3.5279 eV  351.44 nm  f=0.2013  <S**2>=0.000
     241 -> 247       -0.27818
     242 -> 247        0.32713
     243 -> 247       -0.32623
     245 -> 247       -0.13987
     246 -> 248        0.41042

 Excited State   5:      Singlet-A      3.6140 eV  343.07 nm  f=0.3574  <S**2>=0.000
     240 -> 247        0.14643
     241 -> 247       -0.11986
     241 -> 249        0.13976
     241 -> 251        0.12135
     242 -> 247       -0.28890
     243 -> 247        0.31807
     244 -> 247        0.10084
     245 -> 247       -0.21611
     246 -> 248        0.38324

 The electronic state is 1-A.
 Alpha  occ. eigenvalues --  -46.88447 -19.25336 -19.24696 -19.19509 -19.19262
 Alpha  occ. eigenvalues --  -19.18979 -19.18629 -14.42051 -14.41500 -14.39858
 Alpha  occ. eigenvalues --  -14.38376 -10.39541 -10.39500 -10.35325 -10.34321
 Alpha  occ. eigenvalues --  -10.32218 -10.31845 -10.31706 -10.31639 -10.30770
 Alpha  occ. eigenvalues --  -10.30309 -10.30037 -10.29323 -10.29221 -10.28568
 Alpha  occ. eigenvalues --  -10.28507 -10.28470 -10.28350 -10.28126 -10.27951
 Alpha  occ. eigenvalues --  -10.27935 -10.27858 -10.27337 -10.27296 -10.27186
 Alpha  occ. eigenvalues --  -10.27088 -10.26834 -10.26778 -10.26634 -10.26611
 Alpha  occ. eigenvalues --  -10.26437 -10.26251 -10.26246 -10.26200 -10.26069
 Alpha  occ. eigenvalues --  -10.25761 -10.25756 -10.25671 -10.25610 -10.25528
 Alpha  occ. eigenvalues --  -10.25525 -10.25354 -10.25326 -10.25260 -10.25210
 Alpha  occ. eigenvalues --  -10.24822 -10.24782 -10.24736 -10.24511 -10.24487
 Alpha  occ. eigenvalues --  -10.24356 -10.24344 -10.24151 -10.24023 -10.23870
 Alpha  occ. eigenvalues --  -10.23758  -3.17043  -1.91927  -1.91530  -1.91326
 Alpha  occ. eigenvalues --   -1.16375  -1.14808  -1.10073  -1.09804  -1.06850
 Alpha  occ. eigenvalues --   -1.05927  -1.05861  -1.04191  -1.02599  -1.01515
 Alpha  occ. eigenvalues --   -0.93897  -0.91933  -0.90217  -0.89699  -0.89218
 Alpha  occ. eigenvalues --   -0.89099  -0.88587  -0.87949  -0.87726  -0.86330
 Alpha  occ. eigenvalues --   -0.86054  -0.85266  -0.84800  -0.84213  -0.83630
 Alpha  occ. eigenvalues --   -0.83049  -0.82481  -0.81906  -0.80956  -0.80722
 Alpha  occ. eigenvalues --   -0.79982  -0.78003  -0.77810  -0.77447  -0.76742
 Alpha  occ. eigenvalues --   -0.76302  -0.75285  -0.75274  -0.74893  -0.74220
 Alpha  occ. eigenvalues --   -0.73618  -0.72809  -0.72132  -0.70761  -0.69038
 Alpha  occ. eigenvalues --   -0.68869  -0.68727  -0.67652  -0.67107  -0.66209
 Alpha  occ. eigenvalues --   -0.65921  -0.65138  -0.64931  -0.64333  -0.64221
 Alpha  occ. eigenvalues --   -0.63463  -0.63091  -0.63075  -0.61953  -0.60082
 Alpha  occ. eigenvalues --   -0.59761  -0.59640  -0.59037  -0.58694  -0.58487
 Alpha  occ. eigenvalues --   -0.57639  -0.57338  -0.57074  -0.56404  -0.55693
 Alpha  occ. eigenvalues --   -0.55232  -0.55194  -0.54700  -0.54428  -0.54174
 Alpha  occ. eigenvalues --   -0.53607  -0.53484  -0.53334  -0.52952  -0.52673
 Alpha  occ. eigenvalues --   -0.52619  -0.52282  -0.52188  -0.51923  -0.51730
 Alpha  occ. eigenvalues --   -0.51473  -0.51310  -0.51294  -0.50904  -0.50871
 Alpha  occ. eigenvalues --   -0.50043  -0.49957  -0.49741  -0.49602  -0.49380
 Alpha  occ. eigenvalues --   -0.49360  -0.49155  -0.49105  -0.48663  -0.48524
 Alpha  occ. eigenvalues --   -0.48464  -0.48282  -0.48152  -0.47976  -0.47886
 Alpha  occ. eigenvalues --   -0.47536  -0.47465  -0.47175  -0.46964  -0.46747
 Alpha  occ. eigenvalues --   -0.46601  -0.46417  -0.46295  -0.45873  -0.45735
 Alpha  occ. eigenvalues --   -0.45607  -0.45387  -0.45253  -0.44961  -0.44888
 Alpha  occ. eigenvalues --   -0.44725  -0.44509  -0.44401  -0.44164  -0.44015
 Alpha  occ. eigenvalues --   -0.43693  -0.43547  -0.43499  -0.43171  -0.43078
 Alpha  occ. eigenvalues --   -0.42682  -0.42386  -0.42291  -0.42224  -0.42116
 Alpha  occ. eigenvalues --   -0.42009  -0.41838  -0.41825  -0.41360  -0.41229
 Alpha  occ. eigenvalues --   -0.40730  -0.40618  -0.40274  -0.40068  -0.39740
 Alpha  occ. eigenvalues --   -0.39671  -0.39337  -0.39093  -0.38924  -0.38902
 Alpha  occ. eigenvalues --   -0.38535  -0.38466  -0.38247  -0.37698  -0.37633
 Alpha  occ. eigenvalues --   -0.37273  -0.37165  -0.36647  -0.36545  -0.36397
 Alpha  occ. eigenvalues --   -0.36308  -0.36117  -0.34695  -0.34510  -0.34439
 Alpha  occ. eigenvalues --   -0.34062  -0.33816  -0.33147  -0.31426  -0.31288
 Alpha  occ. eigenvalues --   -0.30580  -0.30297  -0.30254  -0.28837  -0.24153
 Alpha  occ. eigenvalues --   -0.21148
 Alpha virt. eigenvalues --   -0.08332  -0.01650   0.00585   0.02430   0.02771
 Alpha virt. eigenvalues --    0.04080   0.04255   0.04722   0.05637   0.06894
 Alpha virt. eigenvalues --    0.07981   0.08527   0.08962   0.09139   0.09479

 Mulliken charges:
               1
     1  Mg   0.827446
     2  C   -0.047775
     3  C   -0.094241
     4  C   -0.083088
     5  C   -0.078539
     6  N   -0.194034
     7  C   -0.081727
     8  C   -0.027715
     9  C   -0.026527
    10  C   -0.027281
    11  C    0.098439
    12  C    0.050663
    13  C    0.103327
    14  C    0.155910
    15  O   -0.283525
    16  O   -0.319845
    17  N   -0.423226
    18  C    0.180314
    19  C   -0.113784
    20  C   -0.068315
    21  C    0.219749
    22  C    0.119180
    23  C    0.002918
    24  O   -0.206765
    25  C    0.053138
    26  N   -0.338117
    27  C    0.003514
    28  C   -0.038137
    29  C    0.003479
    30  C    0.028669
    31  C    0.070611
    32  C    0.038320
    33  C    0.019097
    34  N   -0.323568
    35  C    0.114847
    36  C   -0.148579
    37  C   -0.028400
    38  C    0.127505
    39  C    0.102299
    40  C    0.047724
    41  O   -0.153345
    42  C    0.034687
    43  C    0.212025
    44  O   -0.264016
    45  O   -0.347219
    46  C    0.178457
    47  C    0.291417
    48  C   -0.105316
    49  C   -0.187782
    50  C    0.128615
    51  C    0.054600
    52  C    0.088880
    53  C    0.008518
    54  C   -0.123190
    55  C    0.059651
    56  C    0.065505
    57  C   -0.025238
    58  C    0.069813
    59  C   -0.138242
    60  C    0.019536
    61  C    0.073695
    62  C    0.025397
    63  C    0.072160
    64  C   -0.175346
    65  C    0.063937
    66  C    0.029849
    67  H   -0.027881
    68  H   -0.062663
    69  H   -0.032642
    70  H    0.018674
    71  H    0.017524
    72  H    0.013910
    73  H    0.015816
    74  H    0.027976
    75  H    0.016003
    76  H    0.009550
    77  H    0.029032
    78  H    0.026934
    79  H    0.040469
    80  H    0.015796
    81  H    0.031247
    82  H    0.028014
    83  H    0.042776
    84  H    0.037153
    85  H    0.022010
    86  H    0.013364
    87  H    0.005750
    88  H    0.013386
    89  H    0.027769
    90  H    0.007819
    91  H    0.007211
    92  H    0.003647
    93  H    0.033258
    94  H    0.007910
    95  H    0.029648
    96  H    0.015392
    97  H    0.020100
    98  H    0.040670
    99  H    0.054504
   100  H    0.036184
   101  H    0.033324
   102  H    0.021934
   103  H    0.024199
   104  H   -0.013080
   105  H    0.012377
   106  H    0.026590
   107  H    0.026476
   108  H   -0.028952
   109  H    0.006960
   110  H   -0.001747
   111  H   -0.008883
   112  H   -0.015996
   113  H   -0.005227
   114  H   -0.005161
   115  H   -0.002957
   116  H   -0.001887
   117  H    0.002192
   118  H   -0.010464
   119  H   -0.000629
   120  H    0.007568
   121  H    0.000602
   122  H   -0.004333
   123  H   -0.014364
   124  H   -0.002876
   125  H    0.011511
   126  H   -0.002335
   127  H   -0.006946
   128  H   -0.011787
   129  H    0.001672
   130  H    0.001716
   131  H   -0.003976
   132  H   -0.011368
   133  H   -0.004263
   134  H   -0.001632
   135  H   -0.000010
   136  H    0.011739
   137  H    0.011677
   138  H    0.011987
   139  H   -0.018146
   140  H    0.007174
 Sum of Mulliken charges =  -0.00000

 Dipole moment (field-independent basis, Debye):
    X=             -1.8048    Y=              2.4745    Z=              2.5208  Tot=              3.9667
 Quadrupole moment (field-independent basis, Debye-Ang):
   XX=           -396.9869   YY=           -403.0936   ZZ=           -401.4346
   XY=             49.8227   XZ=              0.4122   YZ=             15.7363

 Normal termination of Gaussian 16 at Wed Apr 27 00:35:16 2022.
