 Gaussian 16, Revision A.03,
 Gaussian 16:  ES64L-G16RevA.03 25-Dec-2016

 ---------------------------------
 #p PBE1PBE/Def2SVP td=(nstates=5)
 ---------------------------------

 -----------------------------------------------------
 step_101_chromophore_23 TDDFT with PBE1PBE functional
 -----------------------------------------------------
 Symbolic Z-matrix:
 Charge =  0 Multiplicity = 1

                         Standard orientation:
 ---------------------------------------------------------------------
 Center     Atomic      Atomic             Coordinates (Angstroms)
 Number     Number       Type             X           Y           Z
 ---------------------------------------------------------------------
      1         12           0        4.362167    1.157701   -0.422471
      2          6           0        4.021482   -2.227466   -0.267740
      3          6           0        1.534238    1.167620   -2.469381
      4          6           0        4.251854    4.398914   -0.101278
      5          6           0        7.000067    0.929213    1.889931
      6          7           0        2.884014   -0.387384   -1.144334
      7          6           0        3.011071   -1.656480   -0.987833
      8          6           0        1.944860   -2.415463   -1.658230
      9          6           0        1.149959   -1.326986   -2.479300
     10          6           0        1.907035   -0.127421   -2.033822
     11          6           0        1.016335   -1.519047   -3.996085
     12          6           0        0.930531   -3.201147   -0.660578
     13          6           0        0.305985   -4.445192   -1.361074
     14          6           0       -1.114620   -4.267781   -1.885509
     15          8           0       -1.540099   -3.676285   -2.911287
     16          8           0       -1.986968   -4.817085   -1.016853
     17          7           0        3.074024    2.548382   -1.159434
     18          6           0        2.009914    2.384126   -2.041158
     19          6           0        1.380097    3.666827   -2.343566
     20          6           0        2.156339    4.632910   -1.643504
     21          6           0        3.301044    3.909902   -0.989528
     22          6           0        0.108103    3.733236   -3.196519
     23          6           0        1.757914    6.118179   -1.612689
     24          8           0        0.706998    6.500556   -2.126070
     25          6           0        2.620445    7.126241   -0.947184
     26          7           0        5.294573    2.487480    0.950306
     27          6           0        5.200973    3.856286    0.772555
     28          6           0        6.244318    4.609096    1.610557
     29          6           0        7.133916    3.458915    2.240082
     30          6           0        6.437279    2.188850    1.715853
     31          6           0        6.994992    5.650873    0.784283
     32          6           0        7.220276    3.651469    3.826271
     33          6           0        8.556818    3.568861    4.505123
     34          7           0        5.489788   -0.325410    0.524576
     35          6           0        6.451909   -0.312074    1.426183
     36          6           0        6.907560   -1.630556    1.761683
     37          6           0        5.916728   -2.428658    1.080666
     38          6           0        5.026880   -1.599846    0.434666
     39          6           0        8.098756   -2.045019    2.674744
     40          6           0        5.661786   -3.796819    0.679397
     41          8           0        6.268168   -4.805156    0.952470
     42          6           0        4.306064   -3.677341   -0.096464
     43          6           0        4.498990   -4.352031   -1.396559
     44          8           0        5.361985   -3.984025   -2.235054
     45          8           0        3.845901   -5.575599   -1.493383
     46          6           0        4.281606   -6.435603   -2.628340
     47          6           0       -3.424083   -4.644027   -1.212646
     48          6           0       -4.032218   -4.832971    0.163467
     49          6           0       -4.369488   -3.964878    1.143266
     50          6           0       -4.122877   -2.516854    1.157017
     51          6           0       -5.103138   -4.566251    2.279721
     52          6           0       -6.597807   -4.663002    2.262602
     53          6           0       -7.292835   -3.479688    2.879240
     54          6           0       -8.476126   -2.811120    2.017725
     55          6           0       -9.646470   -3.740520    2.080550
     56          6           0       -8.869043   -1.401954    2.440407
     57          6           0       -7.817061   -0.394049    1.996850
     58          6           0       -8.275045    1.049719    2.128618
     59          6           0       -7.581006    2.013183    1.152954
     60          6           0       -6.097658    2.359726    1.654267
     61          6           0       -8.416672    3.312941    0.970343
     62          6           0       -9.141144    3.381068   -0.357120
     63          6           0      -10.742187    3.438766   -0.221706
     64          6           0      -11.299632    4.545468   -1.067439
     65          6           0      -12.737644    4.998759   -0.758797
     66          6           0      -11.185370    4.031256   -2.539429
     67          1           0        0.632977    1.181347   -3.084832
     68          1           0        4.342707    5.486912   -0.081381
     69          1           0        7.887968    0.962976    2.524879
     70          1           0        2.464959   -3.001036   -2.416050
     71          1           0        0.170226   -1.209373   -2.016895
     72          1           0        1.822745   -1.001379   -4.515161
     73          1           0        0.115792   -1.074475   -4.419836
     74          1           0        0.913530   -2.585314   -4.196415
     75          1           0        0.198919   -2.532431   -0.207211
     76          1           0        1.442547   -3.628130    0.201853
     77          1           0        0.244917   -5.197663   -0.575500
     78          1           0        1.036644   -4.680456   -2.134651
     79          1           0       -0.842776    3.714925   -2.665244
     80          1           0        0.087023    2.944111   -3.947771
     81          1           0        0.103019    4.660812   -3.769782
     82          1           0        2.096493    8.081891   -0.920373
     83          1           0        3.592756    7.236430   -1.426448
     84          1           0        2.825752    6.812274    0.076807
     85          1           0        5.583242    5.182432    2.260281
     86          1           0        8.085581    3.478239    1.708212
     87          1           0        6.646507    6.606581    1.175923
     88          1           0        6.595604    5.750828   -0.225525
     89          1           0        8.069590    5.472177    0.741524
     90          1           0        6.629981    2.830202    4.230182
     91          1           0        6.650119    4.529599    4.130480
     92          1           0        9.345333    3.773600    3.780834
     93          1           0        8.767429    2.655751    5.062235
     94          1           0        8.620243    4.451545    5.140637
     95          1           0        8.022179   -1.966228    3.759428
     96          1           0        9.032402   -1.603808    2.326473
     97          1           0        8.278237   -3.109366    2.529990
     98          1           0        3.510209   -4.073600    0.534033
     99          1           0        5.371224   -6.437176   -2.662229
    100          1           0        3.861222   -6.177651   -3.600243
    101          1           0        3.924688   -7.441490   -2.408262
    102          1           0       -3.686741   -5.363853   -1.987229
    103          1           0       -3.630520   -3.643568   -1.593696
    104          1           0       -4.297462   -5.862891    0.403354
    105          1           0       -3.631237   -2.303539    0.207711
    106          1           0       -3.502695   -2.415028    2.047843
    107          1           0       -5.047084   -1.960594    1.315521
    108          1           0       -4.978852   -3.930735    3.156279
    109          1           0       -4.628956   -5.493776    2.602947
    110          1           0       -6.814623   -5.578417    2.813533
    111          1           0       -7.013740   -4.819990    1.267327
    112          1           0       -6.624657   -2.671822    3.177165
    113          1           0       -7.672962   -3.787735    3.853362
    114          1           0       -8.235978   -2.840172    0.955064
    115          1           0       -9.423035   -4.631699    2.668429
    116          1           0       -9.898524   -4.099201    1.082927
    117          1           0      -10.581814   -3.363639    2.495267
    118          1           0       -8.873354   -1.279286    3.523954
    119          1           0       -9.861626   -1.157061    2.060777
    120          1           0       -7.354306   -0.734998    1.070554
    121          1           0       -7.016406   -0.417485    2.736628
    122          1           0       -8.155727    1.399322    3.153716
    123          1           0       -9.334724    1.128330    1.884626
    124          1           0       -7.398270    1.385205    0.280148
    125          1           0       -5.321429    1.954548    1.004525
    126          1           0       -5.764920    2.153591    2.670749
    127          1           0       -6.015065    3.445058    1.702390
    128          1           0       -7.750457    4.169638    0.873303
    129          1           0       -9.008393    3.471581    1.872784
    130          1           0       -8.739551    2.580258   -0.977713
    131          1           0       -8.788065    4.316290   -0.791620
    132          1           0      -11.056886    3.571516    0.813063
    133          1           0      -11.183556    2.490222   -0.528127
    134          1           0      -10.645829    5.418118   -1.091565
    135          1           0      -13.235213    4.356939   -0.030981
    136          1           0      -13.408239    5.048285   -1.616562
    137          1           0      -12.612646    5.973529   -0.286679
    138          1           0      -10.333462    4.353126   -3.138444
    139          1           0      -11.978380    4.564153   -3.063810
    140          1           0      -11.439300    2.976629   -2.637481
 ---------------------------------------------------------------------

 SCF Done:  E(RPBE1PBE) =  -3005.34975271     A.U. after   16 cycles

 Excitation energies and oscillator strengths:

 Excited State   1:      Singlet-A      1.9049 eV  650.87 nm  f=0.3711  <S**2>=0.000
     245 -> 248       -0.17494
     246 -> 247        0.69137
     246 <- 247       -0.10237
 This state for optimization and/or second-order correction.
 Total Energy, E(TD-HF/TD-DFT) =  -3005.27974870
 Copying the excited state density for this state as the 1-particle RhoCI density.

 Excited State   2:      Singlet-A      2.2883 eV  541.81 nm  f=0.1005  <S**2>=0.000
     245 -> 247        0.64714
     246 -> 248        0.26606

 Excited State   3:      Singlet-A      2.9907 eV  414.56 nm  f=0.0052  <S**2>=0.000
     243 -> 247       -0.12630
     244 -> 247        0.66134

 Excited State   4:      Singlet-A      3.1255 eV  396.69 nm  f=0.0026  <S**2>=0.000
     242 -> 247        0.30994
     243 -> 247        0.57980
     244 -> 247        0.16616

 Excited State   5:      Singlet-A      3.1629 eV  391.99 nm  f=0.0000  <S**2>=0.000
     240 -> 247        0.38727
     240 -> 249       -0.13363
     241 -> 247        0.54073
     241 -> 249       -0.11270

 The electronic state is 1-A.
 Alpha  occ. eigenvalues --  -46.91837 -19.26001 -19.25368 -19.19795 -19.19544
 Alpha  occ. eigenvalues --  -19.19066 -19.18994 -14.41378 -14.41139 -14.39398
 Alpha  occ. eigenvalues --  -14.38173 -10.36613 -10.36512 -10.32261 -10.31654
 Alpha  occ. eigenvalues --  -10.29569 -10.29172 -10.29142 -10.28884 -10.28262
 Alpha  occ. eigenvalues --  -10.28254 -10.27393 -10.27184 -10.26544 -10.26503
 Alpha  occ. eigenvalues --  -10.26388 -10.26261 -10.26119 -10.25795 -10.25655
 Alpha  occ. eigenvalues --  -10.25578 -10.25361 -10.25297 -10.25280 -10.25050
 Alpha  occ. eigenvalues --  -10.24794 -10.24592 -10.24293 -10.24290 -10.24181
 Alpha  occ. eigenvalues --  -10.23903 -10.23874 -10.23585 -10.23461 -10.23455
 Alpha  occ. eigenvalues --  -10.23451 -10.23372 -10.23362 -10.23085 -10.23007
 Alpha  occ. eigenvalues --  -10.22989 -10.22961 -10.22881 -10.22839 -10.22755
 Alpha  occ. eigenvalues --  -10.22344 -10.22311 -10.22264 -10.22058 -10.22026
 Alpha  occ. eigenvalues --  -10.22005 -10.21898 -10.21716 -10.21544 -10.21240
 Alpha  occ. eigenvalues --  -10.21153  -3.14012  -1.86835  -1.86417  -1.86216
 Alpha  occ. eigenvalues --   -1.11181  -1.09578  -1.05028  -1.04333  -1.01467
 Alpha  occ. eigenvalues --   -1.00751  -1.00680  -0.99170  -0.97034  -0.96058
 Alpha  occ. eigenvalues --   -0.88407  -0.86066  -0.84311  -0.83901  -0.83410
 Alpha  occ. eigenvalues --   -0.83196  -0.82871  -0.82261  -0.81833  -0.80518
 Alpha  occ. eigenvalues --   -0.80170  -0.79533  -0.79175  -0.78539  -0.77961
 Alpha  occ. eigenvalues --   -0.77209  -0.76664  -0.76076  -0.75277  -0.75086
 Alpha  occ. eigenvalues --   -0.74095  -0.72322  -0.72161  -0.71554  -0.70922
 Alpha  occ. eigenvalues --   -0.70658  -0.69630  -0.69360  -0.69003  -0.68333
 Alpha  occ. eigenvalues --   -0.67941  -0.67303  -0.66559  -0.65034  -0.63403
 Alpha  occ. eigenvalues --   -0.63275  -0.63053  -0.61993  -0.61316  -0.60685
 Alpha  occ. eigenvalues --   -0.60344  -0.59442  -0.59328  -0.58910  -0.58304
 Alpha  occ. eigenvalues --   -0.57967  -0.57246  -0.57225  -0.56594  -0.54615
 Alpha  occ. eigenvalues --   -0.54203  -0.54069  -0.53606  -0.53210  -0.53086
 Alpha  occ. eigenvalues --   -0.52219  -0.51677  -0.51488  -0.50916  -0.50274
 Alpha  occ. eigenvalues --   -0.49823  -0.49632  -0.49211  -0.48922  -0.48660
 Alpha  occ. eigenvalues --   -0.48059  -0.47936  -0.47854  -0.47501  -0.47296
 Alpha  occ. eigenvalues --   -0.47189  -0.46785  -0.46752  -0.46280  -0.46094
 Alpha  occ. eigenvalues --   -0.46058  -0.45938  -0.45805  -0.45501  -0.45389
 Alpha  occ. eigenvalues --   -0.44641  -0.44598  -0.44383  -0.44000  -0.43921
 Alpha  occ. eigenvalues --   -0.43880  -0.43768  -0.43718  -0.43335  -0.43287
 Alpha  occ. eigenvalues --   -0.43134  -0.42866  -0.42693  -0.42549  -0.42484
 Alpha  occ. eigenvalues --   -0.42130  -0.42052  -0.41852  -0.41564  -0.41428
 Alpha  occ. eigenvalues --   -0.41347  -0.41105  -0.40869  -0.40521  -0.40465
 Alpha  occ. eigenvalues --   -0.40259  -0.40099  -0.39972  -0.39681  -0.39631
 Alpha  occ. eigenvalues --   -0.39376  -0.39227  -0.39105  -0.38921  -0.38751
 Alpha  occ. eigenvalues --   -0.38572  -0.38389  -0.38287  -0.38048  -0.37865
 Alpha  occ. eigenvalues --   -0.37530  -0.37273  -0.37126  -0.37020  -0.36895
 Alpha  occ. eigenvalues --   -0.36801  -0.36657  -0.36522  -0.36275  -0.35938
 Alpha  occ. eigenvalues --   -0.35520  -0.35372  -0.35027  -0.34876  -0.34590
 Alpha  occ. eigenvalues --   -0.34481  -0.34113  -0.33883  -0.33793  -0.33636
 Alpha  occ. eigenvalues --   -0.33452  -0.33279  -0.33008  -0.32656  -0.32488
 Alpha  occ. eigenvalues --   -0.32318  -0.32013  -0.31628  -0.31414  -0.31365
 Alpha  occ. eigenvalues --   -0.31179  -0.31003  -0.29688  -0.29606  -0.29415
 Alpha  occ. eigenvalues --   -0.28981  -0.28628  -0.28551  -0.26991  -0.25891
 Alpha  occ. eigenvalues --   -0.25792  -0.25594  -0.25534  -0.24709  -0.21013
 Alpha  occ. eigenvalues --   -0.18740
 Alpha virt. eigenvalues --   -0.10906  -0.05169  -0.03603  -0.01722  -0.00570
 Alpha virt. eigenvalues --   -0.00377  -0.00144   0.00291   0.01472   0.03195
 Alpha virt. eigenvalues --    0.04416   0.04804   0.05283   0.05423   0.06162

 Mulliken charges:
               1
     1  Mg   0.974585
     2  C   -0.073475
     3  C   -0.081550
     4  C   -0.095086
     5  C   -0.063552
     6  N   -0.311041
     7  C    0.004925
     8  C   -0.102909
     9  C   -0.099180
    10  C    0.016837
    11  C    0.036716
    12  C    0.001766
    13  C    0.023651
    14  C    0.224483
    15  O   -0.317087
    16  O   -0.350643
    17  N   -0.533798
    18  C    0.195281
    19  C   -0.134902
    20  C   -0.115989
    21  C    0.245277
    22  C    0.062954
    23  C    0.054316
    24  O   -0.243265
    25  C   -0.022959
    26  N   -0.433108
    27  C    0.042970
    28  C   -0.111199
    29  C   -0.080277
    30  C    0.066233
    31  C    0.014903
    32  C   -0.017821
    33  C   -0.055063
    34  N   -0.446870
    35  C    0.127261
    36  C   -0.148300
    37  C   -0.081893
    38  C    0.190054
    39  C    0.047985
    40  C    0.145517
    41  O   -0.199421
    42  C   -0.078552
    43  C    0.298766
    44  O   -0.295661
    45  O   -0.379241
    46  C    0.122793
    47  C    0.252670
    48  C   -0.118528
    49  C   -0.223272
    50  C    0.053622
    51  C   -0.017708
    52  C    0.032147
    53  C   -0.047844
    54  C   -0.214063
    55  C    0.005861
    56  C    0.010844
    57  C   -0.089895
    58  C    0.018883
    59  C   -0.224958
    60  C   -0.034503
    61  C    0.017319
    62  C   -0.033102
    63  C    0.014307
    64  C   -0.271034
    65  C    0.004409
    66  C   -0.027628
    67  H    0.001787
    68  H   -0.026166
    69  H    0.001365
    70  H    0.059747
    71  H    0.055340
    72  H    0.042208
    73  H    0.042798
    74  H    0.055334
    75  H    0.046842
    76  H    0.043213
    77  H    0.061399
    78  H    0.060223
    79  H    0.066133
    80  H    0.040628
    81  H    0.057986
    82  H    0.055444
    83  H    0.068807
    84  H    0.062705
    85  H    0.058313
    86  H    0.050102
    87  H    0.033073
    88  H    0.041217
    89  H    0.053710
    90  H    0.041202
    91  H    0.039038
    92  H    0.032098
    93  H    0.058919
    94  H    0.036734
    95  H    0.057828
    96  H    0.043941
    97  H    0.049492
    98  H    0.079033
    99  H    0.075529
   100  H    0.057798
   101  H    0.055316
   102  H    0.048527
   103  H    0.049544
   104  H    0.016974
   105  H    0.041543
   106  H    0.055157
   107  H    0.060204
   108  H    0.006603
   109  H    0.038524
   110  H    0.030702
   111  H    0.023887
   112  H    0.015794
   113  H    0.028098
   114  H    0.032427
   115  H    0.024632
   116  H    0.025576
   117  H    0.029095
   118  H    0.023146
   119  H    0.031428
   120  H    0.038275
   121  H    0.034426
   122  H    0.027839
   123  H    0.021142
   124  H    0.034504
   125  H    0.038392
   126  H    0.023702
   127  H    0.020118
   128  H    0.021429
   129  H    0.032315
   130  H    0.033442
   131  H    0.027838
   132  H    0.020855
   133  H    0.028504
   134  H    0.036072
   135  H    0.027378
   136  H    0.037521
   137  H    0.039330
   138  H    0.039035
   139  H    0.010487
   140  H    0.034446
 Sum of Mulliken charges =  -0.00000

 Dipole moment (field-independent basis, Debye):
    X=             -1.4180    Y=              2.0955    Z=              2.9060  Tot=              3.8532
 Quadrupole moment (field-independent basis, Debye-Ang):
   XX=           -388.9055   YY=           -400.9232   ZZ=           -398.1884
   XY=             49.1845   XZ=              2.6121   YZ=             16.4356

 Normal termination of Gaussian 16 at Wed Apr 27 00:52:43 2022.
