 Gaussian 16, Revision A.03,
 Gaussian 16:  ES64L-G16RevA.03 25-Dec-2016

 --------------------------------
 #p wB97XD/Def2SVP td=(nstates=5)
 --------------------------------

 ----------------------------------------------------
 step_101_chromophore_23 TDDFT with wB97XD functional
 ----------------------------------------------------
 Symbolic Z-matrix:
 Charge =  0 Multiplicity = 1

                         Standard orientation:
 ---------------------------------------------------------------------
 Center     Atomic      Atomic             Coordinates (Angstroms)
 Number     Number       Type             X           Y           Z
 ---------------------------------------------------------------------
      1         12           0        4.362167    1.157701   -0.422471
      2          6           0        4.021482   -2.227466   -0.267740
      3          6           0        1.534238    1.167620   -2.469381
      4          6           0        4.251854    4.398914   -0.101278
      5          6           0        7.000067    0.929213    1.889931
      6          7           0        2.884014   -0.387384   -1.144334
      7          6           0        3.011071   -1.656480   -0.987833
      8          6           0        1.944860   -2.415463   -1.658230
      9          6           0        1.149959   -1.326986   -2.479300
     10          6           0        1.907035   -0.127421   -2.033822
     11          6           0        1.016335   -1.519047   -3.996085
     12          6           0        0.930531   -3.201147   -0.660578
     13          6           0        0.305985   -4.445192   -1.361074
     14          6           0       -1.114620   -4.267781   -1.885509
     15          8           0       -1.540099   -3.676285   -2.911287
     16          8           0       -1.986968   -4.817085   -1.016853
     17          7           0        3.074024    2.548382   -1.159434
     18          6           0        2.009914    2.384126   -2.041158
     19          6           0        1.380097    3.666827   -2.343566
     20          6           0        2.156339    4.632910   -1.643504
     21          6           0        3.301044    3.909902   -0.989528
     22          6           0        0.108103    3.733236   -3.196519
     23          6           0        1.757914    6.118179   -1.612689
     24          8           0        0.706998    6.500556   -2.126070
     25          6           0        2.620445    7.126241   -0.947184
     26          7           0        5.294573    2.487480    0.950306
     27          6           0        5.200973    3.856286    0.772555
     28          6           0        6.244318    4.609096    1.610557
     29          6           0        7.133916    3.458915    2.240082
     30          6           0        6.437279    2.188850    1.715853
     31          6           0        6.994992    5.650873    0.784283
     32          6           0        7.220276    3.651469    3.826271
     33          6           0        8.556818    3.568861    4.505123
     34          7           0        5.489788   -0.325410    0.524576
     35          6           0        6.451909   -0.312074    1.426183
     36          6           0        6.907560   -1.630556    1.761683
     37          6           0        5.916728   -2.428658    1.080666
     38          6           0        5.026880   -1.599846    0.434666
     39          6           0        8.098756   -2.045019    2.674744
     40          6           0        5.661786   -3.796819    0.679397
     41          8           0        6.268168   -4.805156    0.952470
     42          6           0        4.306064   -3.677341   -0.096464
     43          6           0        4.498990   -4.352031   -1.396559
     44          8           0        5.361985   -3.984025   -2.235054
     45          8           0        3.845901   -5.575599   -1.493383
     46          6           0        4.281606   -6.435603   -2.628340
     47          6           0       -3.424083   -4.644027   -1.212646
     48          6           0       -4.032218   -4.832971    0.163467
     49          6           0       -4.369488   -3.964878    1.143266
     50          6           0       -4.122877   -2.516854    1.157017
     51          6           0       -5.103138   -4.566251    2.279721
     52          6           0       -6.597807   -4.663002    2.262602
     53          6           0       -7.292835   -3.479688    2.879240
     54          6           0       -8.476126   -2.811120    2.017725
     55          6           0       -9.646470   -3.740520    2.080550
     56          6           0       -8.869043   -1.401954    2.440407
     57          6           0       -7.817061   -0.394049    1.996850
     58          6           0       -8.275045    1.049719    2.128618
     59          6           0       -7.581006    2.013183    1.152954
     60          6           0       -6.097658    2.359726    1.654267
     61          6           0       -8.416672    3.312941    0.970343
     62          6           0       -9.141144    3.381068   -0.357120
     63          6           0      -10.742187    3.438766   -0.221706
     64          6           0      -11.299632    4.545468   -1.067439
     65          6           0      -12.737644    4.998759   -0.758797
     66          6           0      -11.185370    4.031256   -2.539429
     67          1           0        0.632977    1.181347   -3.084832
     68          1           0        4.342707    5.486912   -0.081381
     69          1           0        7.887968    0.962976    2.524879
     70          1           0        2.464959   -3.001036   -2.416050
     71          1           0        0.170226   -1.209373   -2.016895
     72          1           0        1.822745   -1.001379   -4.515161
     73          1           0        0.115792   -1.074475   -4.419836
     74          1           0        0.913530   -2.585314   -4.196415
     75          1           0        0.198919   -2.532431   -0.207211
     76          1           0        1.442547   -3.628130    0.201853
     77          1           0        0.244917   -5.197663   -0.575500
     78          1           0        1.036644   -4.680456   -2.134651
     79          1           0       -0.842776    3.714925   -2.665244
     80          1           0        0.087023    2.944111   -3.947771
     81          1           0        0.103019    4.660812   -3.769782
     82          1           0        2.096493    8.081891   -0.920373
     83          1           0        3.592756    7.236430   -1.426448
     84          1           0        2.825752    6.812274    0.076807
     85          1           0        5.583242    5.182432    2.260281
     86          1           0        8.085581    3.478239    1.708212
     87          1           0        6.646507    6.606581    1.175923
     88          1           0        6.595604    5.750828   -0.225525
     89          1           0        8.069590    5.472177    0.741524
     90          1           0        6.629981    2.830202    4.230182
     91          1           0        6.650119    4.529599    4.130480
     92          1           0        9.345333    3.773600    3.780834
     93          1           0        8.767429    2.655751    5.062235
     94          1           0        8.620243    4.451545    5.140637
     95          1           0        8.022179   -1.966228    3.759428
     96          1           0        9.032402   -1.603808    2.326473
     97          1           0        8.278237   -3.109366    2.529990
     98          1           0        3.510209   -4.073600    0.534033
     99          1           0        5.371224   -6.437176   -2.662229
    100          1           0        3.861222   -6.177651   -3.600243
    101          1           0        3.924688   -7.441490   -2.408262
    102          1           0       -3.686741   -5.363853   -1.987229
    103          1           0       -3.630520   -3.643568   -1.593696
    104          1           0       -4.297462   -5.862891    0.403354
    105          1           0       -3.631237   -2.303539    0.207711
    106          1           0       -3.502695   -2.415028    2.047843
    107          1           0       -5.047084   -1.960594    1.315521
    108          1           0       -4.978852   -3.930735    3.156279
    109          1           0       -4.628956   -5.493776    2.602947
    110          1           0       -6.814623   -5.578417    2.813533
    111          1           0       -7.013740   -4.819990    1.267327
    112          1           0       -6.624657   -2.671822    3.177165
    113          1           0       -7.672962   -3.787735    3.853362
    114          1           0       -8.235978   -2.840172    0.955064
    115          1           0       -9.423035   -4.631699    2.668429
    116          1           0       -9.898524   -4.099201    1.082927
    117          1           0      -10.581814   -3.363639    2.495267
    118          1           0       -8.873354   -1.279286    3.523954
    119          1           0       -9.861626   -1.157061    2.060777
    120          1           0       -7.354306   -0.734998    1.070554
    121          1           0       -7.016406   -0.417485    2.736628
    122          1           0       -8.155727    1.399322    3.153716
    123          1           0       -9.334724    1.128330    1.884626
    124          1           0       -7.398270    1.385205    0.280148
    125          1           0       -5.321429    1.954548    1.004525
    126          1           0       -5.764920    2.153591    2.670749
    127          1           0       -6.015065    3.445058    1.702390
    128          1           0       -7.750457    4.169638    0.873303
    129          1           0       -9.008393    3.471581    1.872784
    130          1           0       -8.739551    2.580258   -0.977713
    131          1           0       -8.788065    4.316290   -0.791620
    132          1           0      -11.056886    3.571516    0.813063
    133          1           0      -11.183556    2.490222   -0.528127
    134          1           0      -10.645829    5.418118   -1.091565
    135          1           0      -13.235213    4.356939   -0.030981
    136          1           0      -13.408239    5.048285   -1.616562
    137          1           0      -12.612646    5.973529   -0.286679
    138          1           0      -10.333462    4.353126   -3.138444
    139          1           0      -11.978380    4.564153   -3.063810
    140          1           0      -11.439300    2.976629   -2.637481
 ---------------------------------------------------------------------

 SCF Done:  E(RwB97XD) =  -3007.85910929     A.U. after   19 cycles

 Excitation energies and oscillator strengths:

 Excited State   1:      Singlet-A      1.7525 eV  707.45 nm  f=0.3836  <S**2>=0.000
     245 -> 248       -0.18022
     246 -> 247        0.68347
     245 <- 248       -0.10878
 This state for optimization and/or second-order correction.
 Total Energy, E(TD-HF/TD-DFT) =  -3007.79470430
 Copying the excited state density for this state as the 1-particle RhoCI density.

 Excited State   2:      Singlet-A      2.2678 eV  546.71 nm  f=0.0980  <S**2>=0.000
     245 -> 247        0.63237
     246 -> 248        0.29389

 Excited State   3:      Singlet-A      3.4449 eV  359.91 nm  f=0.0079  <S**2>=0.000
     241 -> 247       -0.16915
     244 -> 247        0.63688
     244 -> 249       -0.10744
     246 -> 248       -0.16423

 Excited State   4:      Singlet-A      3.5338 eV  350.85 nm  f=0.1924  <S**2>=0.000
     239 -> 247        0.10087
     241 -> 247        0.45670
     242 -> 247       -0.26760
     243 -> 247        0.11064
     245 -> 247        0.12855
     246 -> 248       -0.40559

 Excited State   5:      Singlet-A      3.6447 eV  340.18 nm  f=0.1327  <S**2>=0.000
     240 -> 247        0.43510
     240 -> 248        0.13627
     240 -> 249        0.32363
     240 -> 250       -0.17353
     242 -> 247       -0.18449
     245 -> 247       -0.13290
     246 -> 248        0.23100

 The electronic state is 1-A.
 Alpha  occ. eigenvalues --  -46.94799 -19.30531 -19.29921 -19.24443 -19.24210
 Alpha  occ. eigenvalues --  -19.24054 -19.23615 -14.46634 -14.46098 -14.44509
 Alpha  occ. eigenvalues --  -14.42920 -10.43391 -10.43305 -10.39341 -10.38283
 Alpha  occ. eigenvalues --  -10.36092 -10.36010 -10.35804 -10.35364 -10.34835
 Alpha  occ. eigenvalues --  -10.34288 -10.34160 -10.33473 -10.33225 -10.32556
 Alpha  occ. eigenvalues --  -10.32528 -10.32413 -10.32409 -10.32317 -10.32004
 Alpha  occ. eigenvalues --  -10.31958 -10.31753 -10.31394 -10.31205 -10.31147
 Alpha  occ. eigenvalues --  -10.31141 -10.30920 -10.30876 -10.30698 -10.30525
 Alpha  occ. eigenvalues --  -10.30327 -10.30249 -10.30104 -10.30048 -10.30036
 Alpha  occ. eigenvalues --  -10.29753 -10.29746 -10.29501 -10.29500 -10.29456
 Alpha  occ. eigenvalues --  -10.29313 -10.29265 -10.29261 -10.29213 -10.29126
 Alpha  occ. eigenvalues --  -10.28739 -10.28707 -10.28654 -10.28429 -10.28407
 Alpha  occ. eigenvalues --  -10.28283 -10.28155 -10.28002 -10.27991 -10.27680
 Alpha  occ. eigenvalues --  -10.27591  -3.20827  -1.94399  -1.93984  -1.93780
 Alpha  occ. eigenvalues --   -1.18556  -1.16946  -1.12255  -1.12067  -1.08864
 Alpha  occ. eigenvalues --   -1.08093  -1.08040  -1.06178  -1.04670  -1.03543
 Alpha  occ. eigenvalues --   -0.95852  -0.93726  -0.91986  -0.91556  -0.91157
 Alpha  occ. eigenvalues --   -0.90875  -0.90455  -0.89862  -0.89506  -0.88291
 Alpha  occ. eigenvalues --   -0.88005  -0.87148  -0.86670  -0.86073  -0.85538
 Alpha  occ. eigenvalues --   -0.84884  -0.84420  -0.83805  -0.82882  -0.82675
 Alpha  occ. eigenvalues --   -0.81784  -0.79884  -0.79722  -0.79442  -0.78585
 Alpha  occ. eigenvalues --   -0.78211  -0.77241  -0.77069  -0.76701  -0.76033
 Alpha  occ. eigenvalues --   -0.75529  -0.74777  -0.74112  -0.72667  -0.70945
 Alpha  occ. eigenvalues --   -0.70747  -0.70679  -0.69648  -0.68963  -0.68198
 Alpha  occ. eigenvalues --   -0.67855  -0.66989  -0.66942  -0.66329  -0.66014
 Alpha  occ. eigenvalues --   -0.65432  -0.64906  -0.64902  -0.63932  -0.62100
 Alpha  occ. eigenvalues --   -0.61710  -0.61550  -0.61052  -0.60628  -0.60453
 Alpha  occ. eigenvalues --   -0.59633  -0.59183  -0.58967  -0.58391  -0.57649
 Alpha  occ. eigenvalues --   -0.57156  -0.57083  -0.56627  -0.56325  -0.56070
 Alpha  occ. eigenvalues --   -0.55489  -0.55332  -0.55241  -0.54848  -0.54597
 Alpha  occ. eigenvalues --   -0.54580  -0.54158  -0.54064  -0.53893  -0.53637
 Alpha  occ. eigenvalues --   -0.53409  -0.53230  -0.53170  -0.52821  -0.52761
 Alpha  occ. eigenvalues --   -0.51935  -0.51900  -0.51677  -0.51585  -0.51334
 Alpha  occ. eigenvalues --   -0.51240  -0.51076  -0.51009  -0.50536  -0.50439
 Alpha  occ. eigenvalues --   -0.50378  -0.50173  -0.50038  -0.49849  -0.49775
 Alpha  occ. eigenvalues --   -0.49459  -0.49362  -0.49131  -0.48910  -0.48663
 Alpha  occ. eigenvalues --   -0.48516  -0.48346  -0.48137  -0.47873  -0.47631
 Alpha  occ. eigenvalues --   -0.47469  -0.47282  -0.47124  -0.46904  -0.46830
 Alpha  occ. eigenvalues --   -0.46598  -0.46430  -0.46279  -0.46082  -0.45890
 Alpha  occ. eigenvalues --   -0.45589  -0.45465  -0.45406  -0.45036  -0.44943
 Alpha  occ. eigenvalues --   -0.44604  -0.44312  -0.44203  -0.44159  -0.44037
 Alpha  occ. eigenvalues --   -0.43902  -0.43842  -0.43758  -0.43284  -0.43083
 Alpha  occ. eigenvalues --   -0.42660  -0.42487  -0.42117  -0.41952  -0.41590
 Alpha  occ. eigenvalues --   -0.41563  -0.41195  -0.40933  -0.40810  -0.40740
 Alpha  occ. eigenvalues --   -0.40380  -0.40363  -0.40070  -0.39557  -0.39546
 Alpha  occ. eigenvalues --   -0.39386  -0.39016  -0.38608  -0.38411  -0.38400
 Alpha  occ. eigenvalues --   -0.38246  -0.38021  -0.36523  -0.36429  -0.36342
 Alpha  occ. eigenvalues --   -0.35958  -0.35715  -0.35355  -0.33637  -0.33281
 Alpha  occ. eigenvalues --   -0.32703  -0.32356  -0.32279  -0.30944  -0.26105
 Alpha  occ. eigenvalues --   -0.22981
 Alpha virt. eigenvalues --   -0.06657   0.00276   0.02635   0.04857   0.05609
 Alpha virt. eigenvalues --    0.06319   0.06420   0.07047   0.08189   0.09650
 Alpha virt. eigenvalues --    0.10887   0.11702   0.11921   0.12016   0.12965

 Mulliken charges:
               1
     1  Mg   0.965442
     2  C   -0.062856
     3  C   -0.099569
     4  C   -0.104759
     5  C   -0.083137
     6  N   -0.267509
     7  C   -0.038307
     8  C   -0.072349
     9  C   -0.077060
    10  C    0.002285
    11  C    0.048371
    12  C    0.011639
    13  C    0.042058
    14  C    0.210617
    15  O   -0.313024
    16  O   -0.349195
    17  N   -0.506421
    18  C    0.193970
    19  C   -0.127289
    20  C   -0.111216
    21  C    0.246257
    22  C    0.074076
    23  C    0.050942
    24  O   -0.237138
    25  C   -0.010496
    26  N   -0.407389
    27  C    0.038973
    28  C   -0.088336
    29  C   -0.051469
    30  C    0.053447
    31  C    0.024380
    32  C   -0.004799
    33  C   -0.038942
    34  N   -0.410101
    35  C    0.120447
    36  C   -0.156896
    37  C   -0.072769
    38  C    0.161614
    39  C    0.060312
    40  C    0.124568
    41  O   -0.191145
    42  C   -0.038041
    43  C    0.274172
    44  O   -0.290697
    45  O   -0.377283
    46  C    0.138309
    47  C    0.263547
    48  C   -0.128212
    49  C   -0.213205
    50  C    0.077924
    51  C    0.008888
    52  C    0.040814
    53  C   -0.027920
    54  C   -0.180296
    55  C    0.012737
    56  C    0.024953
    57  C   -0.068159
    58  C    0.033580
    59  C   -0.194905
    60  C   -0.024399
    61  C    0.033383
    62  C   -0.017902
    63  C    0.029269
    64  C   -0.238124
    65  C    0.014516
    66  C   -0.016062
    67  H   -0.004384
    68  H   -0.043025
    69  H   -0.005015
    70  H    0.042811
    71  H    0.044057
    72  H    0.036377
    73  H    0.038215
    74  H    0.049913
    75  H    0.040575
    76  H    0.033727
    77  H    0.057544
    78  H    0.052433
    79  H    0.064851
    80  H    0.036835
    81  H    0.055077
    82  H    0.055317
    83  H    0.064719
    84  H    0.057386
    85  H    0.047816
    86  H    0.038116
    87  H    0.027977
    88  H    0.033481
    89  H    0.050309
    90  H    0.032840
    91  H    0.030968
    92  H    0.024640
    93  H    0.054739
    94  H    0.030490
    95  H    0.051676
    96  H    0.036938
    97  H    0.043767
    98  H    0.070764
    99  H    0.071707
   100  H    0.053501
   101  H    0.051905
   102  H    0.046183
   103  H    0.044013
   104  H    0.013507
   105  H    0.034648
   106  H    0.049094
   107  H    0.046437
   108  H   -0.005101
   109  H    0.032590
   110  H    0.024917
   111  H    0.013797
   112  H    0.000478
   113  H    0.019639
   114  H    0.019312
   115  H    0.017479
   116  H    0.020739
   117  H    0.024163
   118  H    0.014341
   119  H    0.023187
   120  H    0.026751
   121  H    0.022124
   122  H    0.019586
   123  H    0.007989
   124  H    0.020840
   125  H    0.033127
   126  H    0.018242
   127  H    0.012796
   128  H    0.012469
   129  H    0.023936
   130  H    0.025221
   131  H    0.018007
   132  H    0.011528
   133  H    0.018859
   134  H    0.024390
   135  H    0.021811
   136  H    0.032122
   137  H    0.033829
   138  H    0.033944
   139  H    0.002360
   140  H    0.027485
 Sum of Mulliken charges =  -0.00000

 Dipole moment (field-independent basis, Debye):
    X=             -1.9078    Y=              2.6525    Z=              2.4548  Tot=              4.0867
 Quadrupole moment (field-independent basis, Debye-Ang):
   XX=           -393.1330   YY=           -398.3365   ZZ=           -397.8457
   XY=             50.7950   XZ=              0.7814   YZ=             15.7049

 Normal termination of Gaussian 16 at Wed Apr 27 01:23:40 2022.
