 Gaussian 16, Revision A.03,
 Gaussian 16:  ES64L-G16RevA.03 25-Dec-2016

 --------------------
 #p ZINDO=(nstates=5)
 --------------------

 -----------------------------
 step_101_chromophore_23 ZINDO
 -----------------------------
 Symbolic Z-matrix:
 Charge =  0 Multiplicity = 1

                         Standard orientation:
 ---------------------------------------------------------------------
 Center     Atomic      Atomic             Coordinates (Angstroms)
 Number     Number       Type             X           Y           Z
 ---------------------------------------------------------------------
      1         12           0        4.362167    1.157701   -0.422471
      2          6           0        4.021482   -2.227466   -0.267740
      3          6           0        1.534238    1.167620   -2.469381
      4          6           0        4.251854    4.398914   -0.101278
      5          6           0        7.000067    0.929213    1.889931
      6          7           0        2.884014   -0.387384   -1.144334
      7          6           0        3.011071   -1.656480   -0.987833
      8          6           0        1.944860   -2.415463   -1.658230
      9          6           0        1.149959   -1.326986   -2.479300
     10          6           0        1.907035   -0.127421   -2.033822
     11          6           0        1.016335   -1.519047   -3.996085
     12          6           0        0.930531   -3.201147   -0.660578
     13          6           0        0.305985   -4.445192   -1.361074
     14          6           0       -1.114620   -4.267781   -1.885509
     15          8           0       -1.540099   -3.676285   -2.911287
     16          8           0       -1.986968   -4.817085   -1.016853
     17          7           0        3.074024    2.548382   -1.159434
     18          6           0        2.009914    2.384126   -2.041158
     19          6           0        1.380097    3.666827   -2.343566
     20          6           0        2.156339    4.632910   -1.643504
     21          6           0        3.301044    3.909902   -0.989528
     22          6           0        0.108103    3.733236   -3.196519
     23          6           0        1.757914    6.118179   -1.612689
     24          8           0        0.706998    6.500556   -2.126070
     25          6           0        2.620445    7.126241   -0.947184
     26          7           0        5.294573    2.487480    0.950306
     27          6           0        5.200973    3.856286    0.772555
     28          6           0        6.244318    4.609096    1.610557
     29          6           0        7.133916    3.458915    2.240082
     30          6           0        6.437279    2.188850    1.715853
     31          6           0        6.994992    5.650873    0.784283
     32          6           0        7.220276    3.651469    3.826271
     33          6           0        8.556818    3.568861    4.505123
     34          7           0        5.489788   -0.325410    0.524576
     35          6           0        6.451909   -0.312074    1.426183
     36          6           0        6.907560   -1.630556    1.761683
     37          6           0        5.916728   -2.428658    1.080666
     38          6           0        5.026880   -1.599846    0.434666
     39          6           0        8.098756   -2.045019    2.674744
     40          6           0        5.661786   -3.796819    0.679397
     41          8           0        6.268168   -4.805156    0.952470
     42          6           0        4.306064   -3.677341   -0.096464
     43          6           0        4.498990   -4.352031   -1.396559
     44          8           0        5.361985   -3.984025   -2.235054
     45          8           0        3.845901   -5.575599   -1.493383
     46          6           0        4.281606   -6.435603   -2.628340
     47          6           0       -3.424083   -4.644027   -1.212646
     48          6           0       -4.032218   -4.832971    0.163467
     49          6           0       -4.369488   -3.964878    1.143266
     50          6           0       -4.122877   -2.516854    1.157017
     51          6           0       -5.103138   -4.566251    2.279721
     52          6           0       -6.597807   -4.663002    2.262602
     53          6           0       -7.292835   -3.479688    2.879240
     54          6           0       -8.476126   -2.811120    2.017725
     55          6           0       -9.646470   -3.740520    2.080550
     56          6           0       -8.869043   -1.401954    2.440407
     57          6           0       -7.817061   -0.394049    1.996850
     58          6           0       -8.275045    1.049719    2.128618
     59          6           0       -7.581006    2.013183    1.152954
     60          6           0       -6.097658    2.359726    1.654267
     61          6           0       -8.416672    3.312941    0.970343
     62          6           0       -9.141144    3.381068   -0.357120
     63          6           0      -10.742187    3.438766   -0.221706
     64          6           0      -11.299632    4.545468   -1.067439
     65          6           0      -12.737644    4.998759   -0.758797
     66          6           0      -11.185370    4.031256   -2.539429
     67          1           0        0.632977    1.181347   -3.084832
     68          1           0        4.342707    5.486912   -0.081381
     69          1           0        7.887968    0.962976    2.524879
     70          1           0        2.464959   -3.001036   -2.416050
     71          1           0        0.170226   -1.209373   -2.016895
     72          1           0        1.822745   -1.001379   -4.515161
     73          1           0        0.115792   -1.074475   -4.419836
     74          1           0        0.913530   -2.585314   -4.196415
     75          1           0        0.198919   -2.532431   -0.207211
     76          1           0        1.442547   -3.628130    0.201853
     77          1           0        0.244917   -5.197663   -0.575500
     78          1           0        1.036644   -4.680456   -2.134651
     79          1           0       -0.842776    3.714925   -2.665244
     80          1           0        0.087023    2.944111   -3.947771
     81          1           0        0.103019    4.660812   -3.769782
     82          1           0        2.096493    8.081891   -0.920373
     83          1           0        3.592756    7.236430   -1.426448
     84          1           0        2.825752    6.812274    0.076807
     85          1           0        5.583242    5.182432    2.260281
     86          1           0        8.085581    3.478239    1.708212
     87          1           0        6.646507    6.606581    1.175923
     88          1           0        6.595604    5.750828   -0.225525
     89          1           0        8.069590    5.472177    0.741524
     90          1           0        6.629981    2.830202    4.230182
     91          1           0        6.650119    4.529599    4.130480
     92          1           0        9.345333    3.773600    3.780834
     93          1           0        8.767429    2.655751    5.062235
     94          1           0        8.620243    4.451545    5.140637
     95          1           0        8.022179   -1.966228    3.759428
     96          1           0        9.032402   -1.603808    2.326473
     97          1           0        8.278237   -3.109366    2.529990
     98          1           0        3.510209   -4.073600    0.534033
     99          1           0        5.371224   -6.437176   -2.662229
    100          1           0        3.861222   -6.177651   -3.600243
    101          1           0        3.924688   -7.441490   -2.408262
    102          1           0       -3.686741   -5.363853   -1.987229
    103          1           0       -3.630520   -3.643568   -1.593696
    104          1           0       -4.297462   -5.862891    0.403354
    105          1           0       -3.631237   -2.303539    0.207711
    106          1           0       -3.502695   -2.415028    2.047843
    107          1           0       -5.047084   -1.960594    1.315521
    108          1           0       -4.978852   -3.930735    3.156279
    109          1           0       -4.628956   -5.493776    2.602947
    110          1           0       -6.814623   -5.578417    2.813533
    111          1           0       -7.013740   -4.819990    1.267327
    112          1           0       -6.624657   -2.671822    3.177165
    113          1           0       -7.672962   -3.787735    3.853362
    114          1           0       -8.235978   -2.840172    0.955064
    115          1           0       -9.423035   -4.631699    2.668429
    116          1           0       -9.898524   -4.099201    1.082927
    117          1           0      -10.581814   -3.363639    2.495267
    118          1           0       -8.873354   -1.279286    3.523954
    119          1           0       -9.861626   -1.157061    2.060777
    120          1           0       -7.354306   -0.734998    1.070554
    121          1           0       -7.016406   -0.417485    2.736628
    122          1           0       -8.155727    1.399322    3.153716
    123          1           0       -9.334724    1.128330    1.884626
    124          1           0       -7.398270    1.385205    0.280148
    125          1           0       -5.321429    1.954548    1.004525
    126          1           0       -5.764920    2.153591    2.670749
    127          1           0       -6.015065    3.445058    1.702390
    128          1           0       -7.750457    4.169638    0.873303
    129          1           0       -9.008393    3.471581    1.872784
    130          1           0       -8.739551    2.580258   -0.977713
    131          1           0       -8.788065    4.316290   -0.791620
    132          1           0      -11.056886    3.571516    0.813063
    133          1           0      -11.183556    2.490222   -0.528127
    134          1           0      -10.645829    5.418118   -1.091565
    135          1           0      -13.235213    4.356939   -0.030981
    136          1           0      -13.408239    5.048285   -1.616562
    137          1           0      -12.612646    5.973529   -0.286679
    138          1           0      -10.333462    4.353126   -3.138444
    139          1           0      -11.978380    4.564153   -3.063810
    140          1           0      -11.439300    2.976629   -2.637481
 ---------------------------------------------------------------------

 SCF Done:  E(RZINDO/S) =  -474.587628171     A.U. after   19 cycles

 Excitation energies and oscillator strengths:

 Excited State   1:      Singlet-A      1.3600 eV  911.67 nm  f=0.5433  <S**2>=0.000
     175 ->178        -0.15909
     176 ->177         0.67044
 This state for optimization and/or second-order correction.
 Total Energy, E(CIS/TDA) =  -474.537650451
 Copying the excited state density for this state as the 1-particle RhoCI density.

 Excited State   2:      Singlet-A      1.9693 eV  629.57 nm  f=0.0263  <S**2>=0.000
     175 ->177         0.52953
     176 ->178         0.42755

 Excited State   3:      Singlet-A      2.9774 eV  416.42 nm  f=0.9143  <S**2>=0.000
     174 ->177        -0.17191
     175 ->177        -0.38573
     176 ->178         0.50916

 Excited State   4:      Singlet-A      3.0091 eV  412.03 nm  f=0.0116  <S**2>=0.000
     167 ->179        -0.15692
     168 ->177         0.28590
     168 ->178        -0.16876
     168 ->179        -0.41779
     168 ->181        -0.15653
     168 ->183         0.15568
     168 ->186        -0.23504

 Excited State   5:      Singlet-A      3.0481 eV  406.77 nm  f=0.0333  <S**2>=0.000
     171 ->177         0.27944
     171 ->178        -0.12067
     171 ->179         0.26436
     171 ->181        -0.24127
     171 ->183         0.26225
     171 ->186         0.16100
     171 ->188         0.16346
     171 ->189         0.11541
     174 ->177        -0.21558

 The electronic state is 1-A.
 Alpha  occ. eigenvalues --   -1.88227  -1.83034  -1.79380  -1.74004  -1.71778
 Alpha  occ. eigenvalues --   -1.70334  -1.66699  -1.62474  -1.59642  -1.59190
 Alpha  occ. eigenvalues --   -1.57346  -1.52711  -1.49385  -1.48780  -1.46282
 Alpha  occ. eigenvalues --   -1.42861  -1.42465  -1.41185  -1.40312  -1.39800
 Alpha  occ. eigenvalues --   -1.36780  -1.33931  -1.31999  -1.29981  -1.28848
 Alpha  occ. eigenvalues --   -1.27837  -1.27502  -1.23639  -1.21747  -1.19170
 Alpha  occ. eigenvalues --   -1.18124  -1.15634  -1.15168  -1.13918  -1.13400
 Alpha  occ. eigenvalues --   -1.12801  -1.11641  -1.10189  -1.05153  -1.04201
 Alpha  occ. eigenvalues --   -1.03036  -1.01823  -0.99305  -0.98285  -0.97641
 Alpha  occ. eigenvalues --   -0.96673  -0.95679  -0.94175  -0.93562  -0.93132
 Alpha  occ. eigenvalues --   -0.90888  -0.90280  -0.89683  -0.88770  -0.87780
 Alpha  occ. eigenvalues --   -0.86191  -0.84449  -0.83521  -0.81507  -0.80029
 Alpha  occ. eigenvalues --   -0.79428  -0.78904  -0.77826  -0.77480  -0.76673
 Alpha  occ. eigenvalues --   -0.76368  -0.75868  -0.75449  -0.74937  -0.74624
 Alpha  occ. eigenvalues --   -0.73229  -0.72980  -0.72513  -0.71777  -0.71072
 Alpha  occ. eigenvalues --   -0.70592  -0.69899  -0.69414  -0.68474  -0.68048
 Alpha  occ. eigenvalues --   -0.67602  -0.66844  -0.66751  -0.65941  -0.65204
 Alpha  occ. eigenvalues --   -0.64590  -0.64327  -0.64202  -0.64181  -0.63661
 Alpha  occ. eigenvalues --   -0.63248  -0.62945  -0.62342  -0.62193  -0.61749
 Alpha  occ. eigenvalues --   -0.61489  -0.60759  -0.60707  -0.60393  -0.59966
 Alpha  occ. eigenvalues --   -0.59719  -0.59510  -0.59003  -0.58539  -0.58415
 Alpha  occ. eigenvalues --   -0.57555  -0.57309  -0.57152  -0.56928  -0.56065
 Alpha  occ. eigenvalues --   -0.55787  -0.55679  -0.55449  -0.55068  -0.54837
 Alpha  occ. eigenvalues --   -0.54607  -0.54488  -0.53980  -0.53266  -0.53079
 Alpha  occ. eigenvalues --   -0.52890  -0.52462  -0.52114  -0.51575  -0.51224
 Alpha  occ. eigenvalues --   -0.51176  -0.50874  -0.50823  -0.50673  -0.49977
 Alpha  occ. eigenvalues --   -0.49923  -0.49207  -0.48847  -0.48724  -0.48536
 Alpha  occ. eigenvalues --   -0.48298  -0.48255  -0.47661  -0.47529  -0.47454
 Alpha  occ. eigenvalues --   -0.47329  -0.47189  -0.46936  -0.46775  -0.46615
 Alpha  occ. eigenvalues --   -0.46515  -0.46041  -0.45900  -0.45644  -0.45541
 Alpha  occ. eigenvalues --   -0.45267  -0.44742  -0.44457  -0.44438  -0.43989
 Alpha  occ. eigenvalues --   -0.43606  -0.42958  -0.42492  -0.42262  -0.42078
 Alpha  occ. eigenvalues --   -0.41850  -0.41643  -0.41020  -0.39388  -0.39222
 Alpha  occ. eigenvalues --   -0.38151  -0.37210  -0.36290  -0.34660  -0.34397
 Alpha  occ. eigenvalues --   -0.33747  -0.32716  -0.32461  -0.30669  -0.26919
 Alpha  occ. eigenvalues --   -0.21971
 Alpha virt. eigenvalues --   -0.08109  -0.02335  -0.00595   0.01135   0.01219
 Alpha virt. eigenvalues --    0.01878   0.02550   0.03059   0.04463   0.04629
 Alpha virt. eigenvalues --    0.05786   0.06780   0.07227   0.07951   0.08165

 Mulliken charges:
               1
     1  Mg   0.429673
     2  C   -0.027636
     3  C   -0.073608
     4  C   -0.097842
     5  C   -0.073342
     6  N   -0.253385
     7  C    0.110516
     8  C   -0.004826
     9  C    0.001540
    10  C    0.165150
    11  C   -0.044695
    12  C   -0.021685
    13  C    0.006948
    14  C    0.467450
    15  O   -0.546716
    16  O   -0.264506
    17  N   -0.346178
    18  C    0.131885
    19  C    0.060286
    20  C   -0.045565
    21  C    0.161004
    22  C   -0.031498
    23  C    0.331749
    24  O   -0.519816
    25  C   -0.025381
    26  N   -0.301574
    27  C    0.180498
    28  C    0.004635
    29  C    0.002177
    30  C    0.082568
    31  C   -0.055827
    32  C   -0.026529
    33  C   -0.052272
    34  N   -0.308569
    35  C    0.100996
    36  C   -0.029695
    37  C   -0.058445
    38  C    0.083297
    39  C   -0.042719
    40  C    0.335989
    41  O   -0.520576
    42  C    0.061835
    43  C    0.484291
    44  O   -0.537426
    45  O   -0.276985
    46  C    0.076669
    47  C    0.110798
    48  C   -0.105175
    49  C    0.014822
    50  C   -0.041267
    51  C   -0.017063
    52  C   -0.013795
    53  C   -0.032311
    54  C   -0.011264
    55  C   -0.057898
    56  C   -0.027891
    57  C   -0.040522
    58  C   -0.029105
    59  C   -0.015495
    60  C   -0.074830
    61  C   -0.031752
    62  C   -0.040701
    63  C   -0.024891
    64  C   -0.005467
    65  C   -0.056587
    66  C   -0.070194
    67  H    0.030132
    68  H    0.009405
    69  H    0.024312
    70  H    0.044274
    71  H    0.037595
    72  H    0.026657
    73  H    0.021290
    74  H    0.031268
    75  H    0.034549
    76  H    0.021312
    77  H    0.037337
    78  H    0.051148
    79  H    0.045729
    80  H    0.024513
    81  H    0.035227
    82  H    0.037563
    83  H    0.039986
    84  H    0.034294
    85  H    0.039258
    86  H    0.038236
    87  H    0.017513
    88  H    0.018902
    89  H    0.034722
    90  H    0.016166
    91  H    0.022520
    92  H    0.015375
    93  H    0.033155
    94  H    0.014020
    95  H    0.032374
    96  H    0.024090
    97  H    0.022339
    98  H    0.048140
    99  H    0.055838
   100  H    0.043086
   101  H    0.027357
   102  H    0.048474
   103  H    0.046706
   104  H    0.019165
   105  H    0.030406
   106  H    0.034956
   107  H    0.034930
   108  H    0.004907
   109  H    0.020789
   110  H    0.016051
   111  H    0.018844
   112  H    0.012802
   113  H    0.015652
   114  H    0.023116
   115  H    0.011330
   116  H    0.009418
   117  H    0.016000
   118  H    0.018822
   119  H    0.021978
   120  H    0.025776
   121  H    0.008541
   122  H    0.021327
   123  H    0.008656
   124  H    0.027206
   125  H    0.016840
   126  H    0.019600
   127  H    0.011865
   128  H    0.012750
   129  H    0.026538
   130  H    0.026367
   131  H    0.017485
   132  H    0.013103
   133  H    0.019911
   134  H    0.022260
   135  H    0.015549
   136  H    0.025841
   137  H    0.015539
   138  H    0.024840
   139  H    0.000693
   140  H    0.024012
 Sum of Mulliken charges =  -0.00000

 Dipole moment (field-independent basis, Debye):
    X=             -3.3375    Y=              5.5459    Z=              2.2243  Tot=              6.8443
 N-N= 4.422430641966D+03 E-N= 0.000000000000D+00  KE=-9.519109553666D+03
 Leave Link  601 at Wed Apr 27 01:36:46 2022, MaxMem=  6710886400 cpu:               1.2 elap:               0.1
 (Enter /sw/apps/gaussian-16.0/g16/l9999.exe)
 1\1\GINC-BP1-COMPUTE162\SP\RZINDO CIS\STO-3G\C55H74Mg1N4O6\OF15641\27-
 Apr-2022\0\\#p ZINDO=(nstates=5)\\step_101_chromophore_23 ZINDO\\0,1\M
 g,0,-9.222,41.123,42.251\C,0,-8.331,37.882,41.702\C,0,-6.432,42.022,40
 .355\C,0,-10.353,44.179,42.201\C,0,-12.129,39.979,43.863\N,0,-7.658,40
 .021,41.054\C,0,-7.498,38.746,41.05\C,0,-6.331,38.328,40.259\C,0,-5.61
 9,39.682,39.871\C,0,-6.599,40.621,40.478\C,0,-4.153,39.873,40.283\C,0,
 -6.68,37.485,38.914\C,0,-5.502,36.544,38.52\C,0,-4.602,37.043,37.395\O

 Normal termination of Gaussian 16 at Wed Apr 27 01:36:46 2022.
