 Gaussian 16, Revision A.03,
 Gaussian 16:  ES64L-G16RevA.03 25-Dec-2016

 ------------------------------
 #p blyp/Def2SVP td=(nstates=5)
 ------------------------------

 ---------------------------------------------------
 step_1701_chromophore_24 TDDFT with blyp functional
 ---------------------------------------------------
 Symbolic Z-matrix:
 Charge =  0 Multiplicity = 1

                         Standard orientation:
 ---------------------------------------------------------------------
 Center     Atomic      Atomic             Coordinates (Angstroms)
 Number     Number       Type             X           Y           Z
 ---------------------------------------------------------------------
      1         12           0       -4.855005    1.056741   -0.255591
      2          6           0       -4.566219   -2.364670   -0.106426
      3          6           0       -1.462784    1.329726    0.145982
      4          6           0       -5.409656    4.369997    0.085080
      5          6           0       -8.332111    0.605682   -0.308961
      6          7           0       -3.207246   -0.401463    0.035258
      7          6           0       -3.320843   -1.698501   -0.086133
      8          6           0       -2.001271   -2.303705   -0.301102
      9          6           0       -1.005326   -1.174431   -0.010515
     10          6           0       -1.916442    0.016736    0.090093
     11          6           0       -0.193071   -1.438280    1.260247
     12          6           0       -1.810056   -3.057293   -1.663452
     13          6           0       -0.820702   -4.211536   -1.753696
     14          6           0        0.058149   -4.456366   -0.488967
     15          8           0       -0.194836   -5.123633    0.514531
     16          8           0        1.275452   -3.942577   -0.654432
     17          7           0       -3.616215    2.688427    0.055932
     18          6           0       -2.234621    2.603476    0.216071
     19          6           0       -1.776585    3.852602    0.554273
     20          6           0       -2.868210    4.773247    0.550624
     21          6           0       -4.066176    3.981766    0.220175
     22          6           0       -0.296986    4.073604    0.868142
     23          6           0       -2.884319    6.266007    0.924918
     24          8           0       -3.871962    6.963534    0.836464
     25          6           0       -1.658106    6.903146    1.462730
     26          7           0       -6.654021    2.316762   -0.274914
     27          6           0       -6.575207    3.663757   -0.104826
     28          6           0       -7.979917    4.294100   -0.109790
     29          6           0       -8.944524    3.060264   -0.181995
     30          6           0       -7.922851    1.890169   -0.375220
     31          6           0       -8.297942    5.291330    1.057547
     32          6           0      -10.005477    3.199321   -1.304783
     33          6           0       -9.511222    3.078608   -2.734084
     34          7           0       -6.189406   -0.486684   -0.145487
     35          6           0       -7.565596   -0.522040   -0.185451
     36          6           0       -8.072916   -1.923084    0.012419
     37          6           0       -6.892025   -2.710035    0.077959
     38          6           0       -5.813920   -1.784989   -0.106502
     39          6           0       -9.522114   -2.392323   -0.004108
     40          6           0       -6.347043   -4.003316    0.330334
     41          8           0       -6.931213   -5.038263    0.686134
     42          6           0       -4.799471   -3.870846    0.046224
     43          6           0       -3.956790   -4.442036    1.151398
     44          8           0       -3.998314   -4.199341    2.376052
     45          8           0       -3.494098   -5.639534    0.666127
     46          6           0       -2.852895   -6.511045    1.693376
     47          6           0        2.242267   -4.087205    0.479444
     48          6           0        3.377884   -3.130663    0.311903
     49          6           0        4.609836   -3.466930   -0.133225
     50          6           0        5.147686   -4.818822   -0.609557
     51          6           0        5.704292   -2.371550   -0.073435
     52          6           0        5.829016   -1.320180   -1.190597
     53          6           0        6.508768   -0.018467   -0.596534
     54          6           0        7.447782    0.646338   -1.574427
     55          6           0        6.723084    1.694833   -2.352584
     56          6           0        8.726100    1.233871   -0.874397
     57          6           0        9.915248    0.247419   -0.735472
     58          6           0       10.928326    0.535303   -1.871521
     59          6           0       12.054107    1.545122   -1.398301
     60          6           0       12.600507    2.346068   -2.641126
     61          6           0       13.131141    0.621101   -0.769152
     62          6           0       14.253345    1.411102   -0.121812
     63          6           0       14.330410    1.050878    1.329634
     64          6           0       13.074706    1.509693    2.146583
     65          6           0       13.309052    2.746257    3.030443
     66          6           0       12.572548    0.342705    2.924543
     67          1           0       -0.378977    1.442423    0.217373
     68          1           0       -5.516097    5.446990    0.228309
     69          1           0       -9.375047    0.297369   -0.407620
     70          1           0       -1.968296   -3.131214    0.408471
     71          1           0       -0.308793   -1.013523   -0.833115
     72          1           0       -0.511934   -2.266041    1.893815
     73          1           0       -0.161804   -0.570608    1.920014
     74          1           0        0.804692   -1.630391    0.866799
     75          1           0       -1.567626   -2.344277   -2.450750
     76          1           0       -2.726784   -3.536569   -2.007553
     77          1           0       -0.180757   -3.899741   -2.579771
     78          1           0       -1.366061   -5.135494   -1.946055
     79          1           0       -0.210215    4.578403    1.829975
     80          1           0        0.111297    4.729689    0.099962
     81          1           0        0.279201    3.151912    0.946621
     82          1           0       -1.378957    6.531170    2.449389
     83          1           0       -1.881519    7.927627    1.756744
     84          1           0       -0.849173    6.780805    0.742312
     85          1           0       -8.000904    4.888614   -1.022254
     86          1           0       -9.413632    2.848093    0.779124
     87          1           0       -8.771108    6.183310    0.647791
     88          1           0       -7.475717    5.498617    1.743122
     89          1           0       -9.041597    4.843440    1.717200
     90          1           0      -10.446223    4.185954   -1.164467
     91          1           0      -10.898263    2.579808   -1.224594
     92          1           0       -8.612852    2.461929   -2.784469
     93          1           0       -9.233195    4.109512   -2.951384
     94          1           0      -10.236143    2.857112   -3.517336
     95          1           0       -9.849101   -2.048807   -0.984813
     96          1           0      -10.169687   -2.209533    0.853478
     97          1           0       -9.418829   -3.476992   -0.028997
     98          1           0       -4.589702   -4.283284   -0.941189
     99          1           0       -2.355751   -5.901027    2.448142
    100          1           0       -1.911972   -6.970780    1.389949
    101          1           0       -3.564220   -7.207953    2.136053
    102          1           0        2.641617   -5.095198    0.367820
    103          1           0        1.802058   -4.119115    1.476165
    104          1           0        3.148407   -2.131136    0.680780
    105          1           0        4.409137   -5.514618   -1.008027
    106          1           0        5.520226   -5.277068    0.305768
    107          1           0        5.873599   -4.632846   -1.402266
    108          1           0        6.599270   -2.968596    0.104533
    109          1           0        5.514575   -1.862702    0.872026
    110          1           0        4.821008   -1.108272   -1.548409
    111          1           0        6.464546   -1.828741   -1.915488
    112          1           0        6.997976   -0.167328    0.366285
    113          1           0        5.696307    0.690220   -0.437567
    114          1           0        7.752240   -0.041280   -2.363003
    115          1           0        5.641889    1.588181   -2.259882
    116          1           0        6.824489    1.555540   -3.428337
    117          1           0        6.787673    2.710137   -1.961093
    118          1           0        8.350857    1.552954    0.097722
    119          1           0        9.110169    2.131359   -1.360346
    120          1           0        9.505748   -0.728988   -0.996607
    121          1           0       10.385616    0.225857    0.246798
    122          1           0       10.299511    0.876924   -2.692972
    123          1           0       11.286844   -0.437127   -2.208598
    124          1           0       11.496134    2.238497   -0.768944
    125          1           0       13.689500    2.366097   -2.641343
    126          1           0       12.324540    3.388747   -2.481845
    127          1           0       12.264279    1.922678   -3.587429
    128          1           0       13.633063    0.075021   -1.567516
    129          1           0       12.687068   -0.136820   -0.123677
    130          1           0       13.985674    2.453536   -0.294465
    131          1           0       15.134639    1.242628   -0.741678
    132          1           0       15.184258    1.596884    1.729861
    133          1           0       14.563714   -0.010915    1.415604
    134          1           0       12.219268    1.793490    1.532747
    135          1           0       12.595472    3.515240    2.735628
    136          1           0       14.214106    3.339377    2.891078
    137          1           0       13.039612    2.637877    4.080720
    138          1           0       12.505696    0.535101    3.995468
    139          1           0       13.140772   -0.583549    2.833914
    140          1           0       11.547092    0.194259    2.586905
 ---------------------------------------------------------------------

 SCF Done:  E(RB-LYP) =  -3007.36583446     A.U. after   21 cycles

 Excitation energies and oscillator strengths:

 Excited State   1:      Singlet-A      1.8333 eV  676.30 nm  f=0.2602  <S**2>=0.000
     244 -> 247        0.29749
     245 -> 248       -0.17427
     246 -> 247        0.62513
     246 <- 247       -0.13169
 This state for optimization and/or second-order correction.
 Total Energy, E(TD-HF/TD-DFT) =  -3007.29846336
 Copying the excited state density for this state as the 1-particle RhoCI density.

 Excited State   2:      Singlet-A      1.8615 eV  666.04 nm  f=0.0634  <S**2>=0.000
     244 -> 247        0.63954
     246 -> 247       -0.29069

 Excited State   3:      Singlet-A      1.9766 eV  627.25 nm  f=0.0708  <S**2>=0.000
     243 -> 247        0.15469
     245 -> 247        0.64489
     246 -> 248        0.19764

 Excited State   4:      Singlet-A      2.1409 eV  579.13 nm  f=0.0047  <S**2>=0.000
     243 -> 247        0.68808
     245 -> 247       -0.13318

 Excited State   5:      Singlet-A      2.3928 eV  518.16 nm  f=0.0074  <S**2>=0.000
     242 -> 247        0.69276

 The electronic state is 1-A.
 Alpha  occ. eigenvalues --  -46.26696 -18.82715 -18.81279 -18.76968 -18.76017
 Alpha  occ. eigenvalues --  -18.75965 -18.75021 -14.02884 -14.02643 -14.00987
 Alpha  occ. eigenvalues --  -14.00401 -10.04542 -10.03291  -9.99952  -9.99163
 Alpha  occ. eigenvalues --   -9.98048  -9.96335  -9.95980  -9.95760  -9.95728
 Alpha  occ. eigenvalues --   -9.95569  -9.95527  -9.95228  -9.94959  -9.94818
 Alpha  occ. eigenvalues --   -9.94527  -9.94383  -9.94163  -9.94085  -9.93880
 Alpha  occ. eigenvalues --   -9.93775  -9.93722  -9.93607  -9.93592  -9.93523
 Alpha  occ. eigenvalues --   -9.93355  -9.92938  -9.92883  -9.92872  -9.92613
 Alpha  occ. eigenvalues --   -9.92605  -9.92495  -9.92438  -9.92433  -9.92427
 Alpha  occ. eigenvalues --   -9.92037  -9.91998  -9.91978  -9.91972  -9.91951
 Alpha  occ. eigenvalues --   -9.91755  -9.91705  -9.91655  -9.91490  -9.91433
 Alpha  occ. eigenvalues --   -9.91406  -9.91291  -9.91261  -9.91153  -9.91006
 Alpha  occ. eigenvalues --   -9.90905  -9.90832  -9.90826  -9.90812  -9.90512
 Alpha  occ. eigenvalues --   -9.90418  -2.91341  -1.71780  -1.71214  -1.71054
 Alpha  occ. eigenvalues --   -0.99046  -0.96061  -0.91671  -0.90518  -0.89454
 Alpha  occ. eigenvalues --   -0.87994  -0.87459  -0.86325  -0.85422  -0.84092
 Alpha  occ. eigenvalues --   -0.75917  -0.74396  -0.73762  -0.73513  -0.72995
 Alpha  occ. eigenvalues --   -0.72122  -0.71618  -0.71397  -0.71233  -0.70254
 Alpha  occ. eigenvalues --   -0.69776  -0.69170  -0.68545  -0.67653  -0.67361
 Alpha  occ. eigenvalues --   -0.66823  -0.65835  -0.65566  -0.64915  -0.64794
 Alpha  occ. eigenvalues --   -0.64084  -0.62961  -0.62090  -0.61232  -0.61020
 Alpha  occ. eigenvalues --   -0.60638  -0.60228  -0.59839  -0.59702  -0.59156
 Alpha  occ. eigenvalues --   -0.58554  -0.57824  -0.57004  -0.55959  -0.55037
 Alpha  occ. eigenvalues --   -0.54455  -0.54058  -0.53095  -0.52671  -0.51624
 Alpha  occ. eigenvalues --   -0.51470  -0.50825  -0.50648  -0.50447  -0.50171
 Alpha  occ. eigenvalues --   -0.49976  -0.49355  -0.48913  -0.47921  -0.47185
 Alpha  occ. eigenvalues --   -0.46515  -0.45997  -0.45662  -0.45083  -0.44226
 Alpha  occ. eigenvalues --   -0.43660  -0.43470  -0.43245  -0.42978  -0.42702
 Alpha  occ. eigenvalues --   -0.42379  -0.42211  -0.42003  -0.41455  -0.41426
 Alpha  occ. eigenvalues --   -0.41212  -0.41022  -0.40559  -0.40356  -0.40071
 Alpha  occ. eigenvalues --   -0.39798  -0.39741  -0.39527  -0.39358  -0.39190
 Alpha  occ. eigenvalues --   -0.39079  -0.39019  -0.38837  -0.38628  -0.38528
 Alpha  occ. eigenvalues --   -0.38197  -0.38037  -0.37743  -0.37574  -0.37454
 Alpha  occ. eigenvalues --   -0.37327  -0.37048  -0.36987  -0.36845  -0.36558
 Alpha  occ. eigenvalues --   -0.36399  -0.36217  -0.35836  -0.35649  -0.35530
 Alpha  occ. eigenvalues --   -0.35406  -0.35271  -0.34978  -0.34933  -0.34602
 Alpha  occ. eigenvalues --   -0.34334  -0.34248  -0.34010  -0.33972  -0.33893
 Alpha  occ. eigenvalues --   -0.33781  -0.33582  -0.33447  -0.33319  -0.33194
 Alpha  occ. eigenvalues --   -0.32949  -0.32444  -0.32351  -0.32186  -0.32105
 Alpha  occ. eigenvalues --   -0.32005  -0.31765  -0.31541  -0.31428  -0.31337
 Alpha  occ. eigenvalues --   -0.31145  -0.31045  -0.30984  -0.30819  -0.30534
 Alpha  occ. eigenvalues --   -0.30456  -0.30373  -0.30069  -0.29709  -0.29602
 Alpha  occ. eigenvalues --   -0.29514  -0.29332  -0.29143  -0.29037  -0.28777
 Alpha  occ. eigenvalues --   -0.28617  -0.28601  -0.28527  -0.28384  -0.27490
 Alpha  occ. eigenvalues --   -0.27399  -0.27139  -0.27128  -0.26925  -0.26501
 Alpha  occ. eigenvalues --   -0.26191  -0.26172  -0.26056  -0.25811  -0.25571
 Alpha  occ. eigenvalues --   -0.25400  -0.25135  -0.24187  -0.23793  -0.23698
 Alpha  occ. eigenvalues --   -0.23026  -0.22802  -0.22023  -0.21247  -0.21146
 Alpha  occ. eigenvalues --   -0.20896  -0.19745  -0.19131  -0.18226  -0.17113
 Alpha  occ. eigenvalues --   -0.15859
 Alpha virt. eigenvalues --   -0.11467  -0.06527  -0.06312  -0.04070  -0.03883
 Alpha virt. eigenvalues --   -0.03541  -0.03017  -0.02094  -0.00571   0.00691
 Alpha virt. eigenvalues --    0.01485   0.01877   0.02050   0.02282   0.02838

 Mulliken charges:
               1
     1  Mg   0.684937
     2  C   -0.060619
     3  C   -0.051315
     4  C   -0.027794
     5  C   -0.083910
     6  N   -0.166502
     7  C   -0.071342
     8  C    0.013124
     9  C    0.024150
    10  C    0.025390
    11  C    0.117697
    12  C    0.072127
    13  C    0.191544
    14  C    0.042391
    15  O   -0.214277
    16  O   -0.251822
    17  N   -0.325395
    18  C    0.119651
    19  C   -0.139548
    20  C    0.035758
    21  C    0.064203
    22  C    0.171745
    23  C   -0.085170
    24  O   -0.151956
    25  C    0.136112
    26  N   -0.184359
    27  C    0.012970
    28  C    0.027558
    29  C    0.047615
    30  C    0.049827
    31  C    0.132003
    32  C    0.078026
    33  C    0.060982
    34  N   -0.262644
    35  C    0.102518
    36  C   -0.195486
    37  C    0.113176
    38  C    0.081243
    39  C    0.165086
    40  C   -0.042567
    41  O   -0.142102
    42  C    0.095701
    43  C    0.138264
    44  O   -0.205159
    45  O   -0.277583
    46  C    0.207180
    47  C    0.304117
    48  C   -0.091031
    49  C   -0.154081
    50  C    0.142076
    51  C    0.065552
    52  C    0.126093
    53  C    0.126983
    54  C   -0.087967
    55  C    0.124355
    56  C    0.101562
    57  C    0.076246
    58  C    0.071335
    59  C   -0.077500
    60  C    0.118520
    61  C    0.074170
    62  C    0.102928
    63  C    0.140798
    64  C   -0.088237
    65  C    0.112009
    66  C    0.102758
    67  H   -0.069127
    68  H   -0.049621
    69  H   -0.070645
    70  H    0.011336
    71  H   -0.023005
    72  H    0.015079
    73  H   -0.015714
    74  H   -0.007540
    75  H   -0.028277
    76  H   -0.027293
    77  H   -0.011459
    78  H    0.004933
    79  H   -0.006055
    80  H    0.004652
    81  H   -0.017238
    82  H    0.004715
    83  H   -0.020066
    84  H    0.008296
    85  H   -0.013743
    86  H   -0.016708
    87  H   -0.008888
    88  H    0.008116
    89  H   -0.029399
    90  H   -0.032809
    91  H   -0.029211
    92  H    0.008673
    93  H   -0.019103
    94  H   -0.008180
    95  H    0.012878
    96  H    0.018640
    97  H    0.001419
    98  H    0.004419
    99  H    0.007957
   100  H    0.011777
   101  H    0.025517
   102  H   -0.031396
   103  H    0.012969
   104  H   -0.029015
   105  H   -0.000381
   106  H    0.018989
   107  H    0.008428
   108  H   -0.034994
   109  H   -0.024323
   110  H   -0.019838
   111  H   -0.020073
   112  H   -0.024939
   113  H   -0.036612
   114  H   -0.043008
   115  H   -0.049771
   116  H   -0.019231
   117  H   -0.019465
   118  H   -0.049804
   119  H   -0.032446
   120  H   -0.040627
   121  H   -0.024938
   122  H   -0.045067
   123  H   -0.045685
   124  H   -0.022809
   125  H   -0.023221
   126  H   -0.017486
   127  H   -0.005266
   128  H   -0.041279
   129  H   -0.031789
   130  H   -0.039542
   131  H   -0.038681
   132  H   -0.044226
   133  H   -0.027380
   134  H   -0.022987
   135  H   -0.041585
   136  H   -0.017100
   137  H   -0.018116
   138  H   -0.029650
   139  H   -0.014761
   140  H   -0.019336
 Sum of Mulliken charges =  -0.00000

 Dipole moment (field-independent basis, Debye):
    X=              5.0413    Y=              0.7584    Z=             -3.6756  Tot=              6.2849
 Quadrupole moment (field-independent basis, Debye-Ang):
   XX=           -380.9240   YY=           -439.4904   ZZ=           -406.4470
   XY=            -27.5533   XZ=             17.6438   YZ=             13.3313

 Normal termination of Gaussian 16 at Wed May  4 12:51:47 2022.
