 Gaussian 16, Revision A.03,
 Gaussian 16:  ES64L-G16RevA.03 25-Dec-2016

 -----------------------------------
 #p cam-b3lyp/Def2SVP td=(nstates=5)
 -----------------------------------

 --------------------------------------------------------
 step_1701_chromophore_24 TDDFT with cam-b3lyp functional
 --------------------------------------------------------
 Symbolic Z-matrix:
 Charge =  0 Multiplicity = 1

                         Standard orientation:
 ---------------------------------------------------------------------
 Center     Atomic      Atomic             Coordinates (Angstroms)
 Number     Number       Type             X           Y           Z
 ---------------------------------------------------------------------
      1         12           0       -4.855005    1.056741   -0.255591
      2          6           0       -4.566219   -2.364670   -0.106426
      3          6           0       -1.462784    1.329726    0.145982
      4          6           0       -5.409656    4.369997    0.085080
      5          6           0       -8.332111    0.605682   -0.308961
      6          7           0       -3.207246   -0.401463    0.035258
      7          6           0       -3.320843   -1.698501   -0.086133
      8          6           0       -2.001271   -2.303705   -0.301102
      9          6           0       -1.005326   -1.174431   -0.010515
     10          6           0       -1.916442    0.016736    0.090093
     11          6           0       -0.193071   -1.438280    1.260247
     12          6           0       -1.810056   -3.057293   -1.663452
     13          6           0       -0.820702   -4.211536   -1.753696
     14          6           0        0.058149   -4.456366   -0.488967
     15          8           0       -0.194836   -5.123633    0.514531
     16          8           0        1.275452   -3.942577   -0.654432
     17          7           0       -3.616215    2.688427    0.055932
     18          6           0       -2.234621    2.603476    0.216071
     19          6           0       -1.776585    3.852602    0.554273
     20          6           0       -2.868210    4.773247    0.550624
     21          6           0       -4.066176    3.981766    0.220175
     22          6           0       -0.296986    4.073604    0.868142
     23          6           0       -2.884319    6.266007    0.924918
     24          8           0       -3.871962    6.963534    0.836464
     25          6           0       -1.658106    6.903146    1.462730
     26          7           0       -6.654021    2.316762   -0.274914
     27          6           0       -6.575207    3.663757   -0.104826
     28          6           0       -7.979917    4.294100   -0.109790
     29          6           0       -8.944524    3.060264   -0.181995
     30          6           0       -7.922851    1.890169   -0.375220
     31          6           0       -8.297942    5.291330    1.057547
     32          6           0      -10.005477    3.199321   -1.304783
     33          6           0       -9.511222    3.078608   -2.734084
     34          7           0       -6.189406   -0.486684   -0.145487
     35          6           0       -7.565596   -0.522040   -0.185451
     36          6           0       -8.072916   -1.923084    0.012419
     37          6           0       -6.892025   -2.710035    0.077959
     38          6           0       -5.813920   -1.784989   -0.106502
     39          6           0       -9.522114   -2.392323   -0.004108
     40          6           0       -6.347043   -4.003316    0.330334
     41          8           0       -6.931213   -5.038263    0.686134
     42          6           0       -4.799471   -3.870846    0.046224
     43          6           0       -3.956790   -4.442036    1.151398
     44          8           0       -3.998314   -4.199341    2.376052
     45          8           0       -3.494098   -5.639534    0.666127
     46          6           0       -2.852895   -6.511045    1.693376
     47          6           0        2.242267   -4.087205    0.479444
     48          6           0        3.377884   -3.130663    0.311903
     49          6           0        4.609836   -3.466930   -0.133225
     50          6           0        5.147686   -4.818822   -0.609557
     51          6           0        5.704292   -2.371550   -0.073435
     52          6           0        5.829016   -1.320180   -1.190597
     53          6           0        6.508768   -0.018467   -0.596534
     54          6           0        7.447782    0.646338   -1.574427
     55          6           0        6.723084    1.694833   -2.352584
     56          6           0        8.726100    1.233871   -0.874397
     57          6           0        9.915248    0.247419   -0.735472
     58          6           0       10.928326    0.535303   -1.871521
     59          6           0       12.054107    1.545122   -1.398301
     60          6           0       12.600507    2.346068   -2.641126
     61          6           0       13.131141    0.621101   -0.769152
     62          6           0       14.253345    1.411102   -0.121812
     63          6           0       14.330410    1.050878    1.329634
     64          6           0       13.074706    1.509693    2.146583
     65          6           0       13.309052    2.746257    3.030443
     66          6           0       12.572548    0.342705    2.924543
     67          1           0       -0.378977    1.442423    0.217373
     68          1           0       -5.516097    5.446990    0.228309
     69          1           0       -9.375047    0.297369   -0.407620
     70          1           0       -1.968296   -3.131214    0.408471
     71          1           0       -0.308793   -1.013523   -0.833115
     72          1           0       -0.511934   -2.266041    1.893815
     73          1           0       -0.161804   -0.570608    1.920014
     74          1           0        0.804692   -1.630391    0.866799
     75          1           0       -1.567626   -2.344277   -2.450750
     76          1           0       -2.726784   -3.536569   -2.007553
     77          1           0       -0.180757   -3.899741   -2.579771
     78          1           0       -1.366061   -5.135494   -1.946055
     79          1           0       -0.210215    4.578403    1.829975
     80          1           0        0.111297    4.729689    0.099962
     81          1           0        0.279201    3.151912    0.946621
     82          1           0       -1.378957    6.531170    2.449389
     83          1           0       -1.881519    7.927627    1.756744
     84          1           0       -0.849173    6.780805    0.742312
     85          1           0       -8.000904    4.888614   -1.022254
     86          1           0       -9.413632    2.848093    0.779124
     87          1           0       -8.771108    6.183310    0.647791
     88          1           0       -7.475717    5.498617    1.743122
     89          1           0       -9.041597    4.843440    1.717200
     90          1           0      -10.446223    4.185954   -1.164467
     91          1           0      -10.898263    2.579808   -1.224594
     92          1           0       -8.612852    2.461929   -2.784469
     93          1           0       -9.233195    4.109512   -2.951384
     94          1           0      -10.236143    2.857112   -3.517336
     95          1           0       -9.849101   -2.048807   -0.984813
     96          1           0      -10.169687   -2.209533    0.853478
     97          1           0       -9.418829   -3.476992   -0.028997
     98          1           0       -4.589702   -4.283284   -0.941189
     99          1           0       -2.355751   -5.901027    2.448142
    100          1           0       -1.911972   -6.970780    1.389949
    101          1           0       -3.564220   -7.207953    2.136053
    102          1           0        2.641617   -5.095198    0.367820
    103          1           0        1.802058   -4.119115    1.476165
    104          1           0        3.148407   -2.131136    0.680780
    105          1           0        4.409137   -5.514618   -1.008027
    106          1           0        5.520226   -5.277068    0.305768
    107          1           0        5.873599   -4.632846   -1.402266
    108          1           0        6.599270   -2.968596    0.104533
    109          1           0        5.514575   -1.862702    0.872026
    110          1           0        4.821008   -1.108272   -1.548409
    111          1           0        6.464546   -1.828741   -1.915488
    112          1           0        6.997976   -0.167328    0.366285
    113          1           0        5.696307    0.690220   -0.437567
    114          1           0        7.752240   -0.041280   -2.363003
    115          1           0        5.641889    1.588181   -2.259882
    116          1           0        6.824489    1.555540   -3.428337
    117          1           0        6.787673    2.710137   -1.961093
    118          1           0        8.350857    1.552954    0.097722
    119          1           0        9.110169    2.131359   -1.360346
    120          1           0        9.505748   -0.728988   -0.996607
    121          1           0       10.385616    0.225857    0.246798
    122          1           0       10.299511    0.876924   -2.692972
    123          1           0       11.286844   -0.437127   -2.208598
    124          1           0       11.496134    2.238497   -0.768944
    125          1           0       13.689500    2.366097   -2.641343
    126          1           0       12.324540    3.388747   -2.481845
    127          1           0       12.264279    1.922678   -3.587429
    128          1           0       13.633063    0.075021   -1.567516
    129          1           0       12.687068   -0.136820   -0.123677
    130          1           0       13.985674    2.453536   -0.294465
    131          1           0       15.134639    1.242628   -0.741678
    132          1           0       15.184258    1.596884    1.729861
    133          1           0       14.563714   -0.010915    1.415604
    134          1           0       12.219268    1.793490    1.532747
    135          1           0       12.595472    3.515240    2.735628
    136          1           0       14.214106    3.339377    2.891078
    137          1           0       13.039612    2.637877    4.080720
    138          1           0       12.505696    0.535101    3.995468
    139          1           0       13.140772   -0.583549    2.833914
    140          1           0       11.547092    0.194259    2.586905
 ---------------------------------------------------------------------

 SCF Done:  E(RCAM-B3LYP) =  -3007.17083855     A.U. after   18 cycles

 Excitation energies and oscillator strengths:

 Excited State   1:      Singlet-A      1.8022 eV  687.94 nm  f=0.3966  <S**2>=0.000
     245 -> 248        0.17860
     246 -> 247        0.68533
     245 <- 248        0.10327
 This state for optimization and/or second-order correction.
 Total Energy, E(TD-HF/TD-DFT) =  -3007.10460732
 Copying the excited state density for this state as the 1-particle RhoCI density.

 Excited State   2:      Singlet-A      2.2486 eV  551.38 nm  f=0.1236  <S**2>=0.000
     245 -> 247        0.64914
     246 -> 248       -0.26757

 Excited State   3:      Singlet-A      3.3342 eV  371.85 nm  f=0.0091  <S**2>=0.000
     239 -> 247       -0.10081
     242 -> 247       -0.15139
     244 -> 247        0.66208

 Excited State   4:      Singlet-A      3.4068 eV  363.93 nm  f=0.0187  <S**2>=0.000
     239 -> 247        0.47365
     239 -> 249        0.30901
     240 -> 247       -0.21504
     240 -> 249       -0.11764
     242 -> 247        0.15324
     244 -> 247        0.15825
     246 -> 248        0.16059

 Excited State   5:      Singlet-A      3.5746 eV  346.84 nm  f=0.4321  <S**2>=0.000
     239 -> 247       -0.12420
     240 -> 247        0.15640
     241 -> 247        0.16055
     242 -> 247        0.25948
     245 -> 247        0.20360
     246 -> 248        0.54705

 The electronic state is 1-A.
 Alpha  occ. eigenvalues --  -46.88221 -19.25620 -19.24432 -19.19928 -19.19751
 Alpha  occ. eigenvalues --  -19.19360 -19.17723 -14.41761 -14.41496 -14.39685
 Alpha  occ. eigenvalues --  -14.38501 -10.39862 -10.39114 -10.35836 -10.33836
 Alpha  occ. eigenvalues --  -10.32239 -10.31270 -10.30519 -10.30493 -10.30265
 Alpha  occ. eigenvalues --  -10.30029 -10.29722 -10.29711 -10.29431 -10.28981
 Alpha  occ. eigenvalues --  -10.28852 -10.28624 -10.28461 -10.28248 -10.27962
 Alpha  occ. eigenvalues --  -10.27832 -10.27776 -10.27574 -10.27347 -10.27319
 Alpha  occ. eigenvalues --  -10.27300 -10.27278 -10.27144 -10.26600 -10.26502
 Alpha  occ. eigenvalues --  -10.26367 -10.26301 -10.26246 -10.26229 -10.26168
 Alpha  occ. eigenvalues --  -10.26063 -10.25877 -10.25666 -10.25637 -10.25620
 Alpha  occ. eigenvalues --  -10.25606 -10.25583 -10.25301 -10.25261 -10.25094
 Alpha  occ. eigenvalues --  -10.25061 -10.24928 -10.24904 -10.24736 -10.24607
 Alpha  occ. eigenvalues --  -10.24571 -10.24460 -10.24359 -10.24346 -10.24080
 Alpha  occ. eigenvalues --  -10.23945  -3.16770  -1.91685  -1.91209  -1.91080
 Alpha  occ. eigenvalues --   -1.17535  -1.14803  -1.09628  -1.09374  -1.07292
 Alpha  occ. eigenvalues --   -1.05936  -1.05580  -1.04272  -1.03181  -1.01069
 Alpha  occ. eigenvalues --   -0.93461  -0.91273  -0.90623  -0.90366  -0.89729
 Alpha  occ. eigenvalues --   -0.88874  -0.88281  -0.88071  -0.87784  -0.87063
 Alpha  occ. eigenvalues --   -0.86149  -0.85416  -0.84780  -0.83829  -0.83545
 Alpha  occ. eigenvalues --   -0.82872  -0.81818  -0.81524  -0.80841  -0.80606
 Alpha  occ. eigenvalues --   -0.79898  -0.78864  -0.77586  -0.76608  -0.76350
 Alpha  occ. eigenvalues --   -0.75983  -0.75677  -0.75109  -0.74985  -0.74321
 Alpha  occ. eigenvalues --   -0.73638  -0.72996  -0.71954  -0.70807  -0.69756
 Alpha  occ. eigenvalues --   -0.69322  -0.68623  -0.67459  -0.66996  -0.65788
 Alpha  occ. eigenvalues --   -0.65707  -0.64906  -0.64619  -0.64473  -0.64118
 Alpha  occ. eigenvalues --   -0.63810  -0.63252  -0.62739  -0.61922  -0.60871
 Alpha  occ. eigenvalues --   -0.60185  -0.59432  -0.59130  -0.58448  -0.58029
 Alpha  occ. eigenvalues --   -0.56994  -0.56733  -0.56531  -0.56220  -0.55710
 Alpha  occ. eigenvalues --   -0.55561  -0.55159  -0.54974  -0.54620  -0.54269
 Alpha  occ. eigenvalues --   -0.53984  -0.53766  -0.53695  -0.53120  -0.52728
 Alpha  occ. eigenvalues --   -0.52643  -0.52488  -0.52321  -0.51978  -0.51969
 Alpha  occ. eigenvalues --   -0.51864  -0.51552  -0.51356  -0.51175  -0.50901
 Alpha  occ. eigenvalues --   -0.50848  -0.50405  -0.50211  -0.49865  -0.49569
 Alpha  occ. eigenvalues --   -0.49424  -0.49349  -0.49162  -0.49084  -0.48998
 Alpha  occ. eigenvalues --   -0.48830  -0.48326  -0.48167  -0.47918  -0.47833
 Alpha  occ. eigenvalues --   -0.47656  -0.47407  -0.46991  -0.46867  -0.46439
 Alpha  occ. eigenvalues --   -0.46195  -0.46178  -0.46106  -0.45811  -0.45679
 Alpha  occ. eigenvalues --   -0.45560  -0.45474  -0.45228  -0.45122  -0.44957
 Alpha  occ. eigenvalues --   -0.44685  -0.44222  -0.43999  -0.43786  -0.43661
 Alpha  occ. eigenvalues --   -0.43514  -0.43469  -0.43344  -0.42910  -0.42867
 Alpha  occ. eigenvalues --   -0.42738  -0.42617  -0.42376  -0.42036  -0.41871
 Alpha  occ. eigenvalues --   -0.41811  -0.41586  -0.41382  -0.40917  -0.40802
 Alpha  occ. eigenvalues --   -0.40753  -0.40551  -0.40412  -0.40096  -0.39768
 Alpha  occ. eigenvalues --   -0.39744  -0.39617  -0.39557  -0.39449  -0.39392
 Alpha  occ. eigenvalues --   -0.38272  -0.38115  -0.37976  -0.37666  -0.37406
 Alpha  occ. eigenvalues --   -0.37190  -0.36896  -0.36791  -0.36722  -0.36313
 Alpha  occ. eigenvalues --   -0.36226  -0.36023  -0.35867  -0.34655  -0.34148
 Alpha  occ. eigenvalues --   -0.33939  -0.33824  -0.32939  -0.31852  -0.31278
 Alpha  occ. eigenvalues --   -0.31154  -0.30786  -0.29977  -0.28546  -0.23951
 Alpha  occ. eigenvalues --   -0.21266
 Alpha virt. eigenvalues --   -0.08529  -0.01352  -0.00028   0.02672   0.03338
 Alpha virt. eigenvalues --    0.03564   0.03764   0.04655   0.06384   0.06879
 Alpha virt. eigenvalues --    0.08164   0.08357   0.08524   0.09039   0.09330

 Mulliken charges:
               1
     1  Mg   0.817074
     2  C   -0.092107
     3  C   -0.056440
     4  C   -0.045595
     5  C   -0.092670
     6  N   -0.240538
     7  C   -0.014150
     8  C   -0.051971
     9  C   -0.028638
    10  C    0.036370
    11  C    0.064050
    12  C    0.028524
    13  C    0.123097
    14  C    0.117374
    15  O   -0.258948
    16  O   -0.313302
    17  N   -0.411414
    18  C    0.122185
    19  C   -0.154372
    20  C   -0.037264
    21  C    0.086643
    22  C    0.118351
    23  C   -0.003631
    24  O   -0.197517
    25  C    0.051404
    26  N   -0.256632
    27  C    0.033193
    28  C   -0.027114
    29  C   -0.008965
    30  C    0.066922
    31  C    0.072382
    32  C    0.023386
    33  C   -0.000938
    34  N   -0.353523
    35  C    0.111308
    36  C   -0.172855
    37  C    0.030156
    38  C    0.123083
    39  C    0.110511
    40  C    0.059032
    41  O   -0.176519
    42  C    0.023262
    43  C    0.218026
    44  O   -0.239725
    45  O   -0.339066
    46  C    0.169882
    47  C    0.266447
    48  C   -0.108231
    49  C   -0.169921
    50  C    0.076660
    51  C    0.008738
    52  C    0.073760
    53  C    0.066765
    54  C   -0.143590
    55  C    0.062305
    56  C    0.048966
    57  C    0.026573
    58  C    0.018249
    59  C   -0.133934
    60  C    0.061036
    61  C    0.020094
    62  C    0.049191
    63  C    0.082034
    64  C   -0.152009
    65  C    0.053898
    66  C    0.045107
    67  H   -0.035102
    68  H   -0.008725
    69  H   -0.033297
    70  H    0.039192
    71  H    0.013761
    72  H    0.038155
    73  H    0.012802
    74  H    0.009502
    75  H    0.004184
    76  H    0.002079
    77  H    0.025498
    78  H    0.037276
    79  H    0.017059
    80  H    0.027463
    81  H    0.007395
    82  H    0.032265
    83  H    0.014719
    84  H    0.033284
    85  H    0.019889
    86  H    0.019294
    87  H    0.015139
    88  H    0.034430
    89  H   -0.005286
    90  H   -0.002505
    91  H   -0.000917
    92  H    0.030421
    93  H    0.004547
    94  H    0.018241
    95  H    0.038518
    96  H    0.048311
    97  H    0.031923
    98  H    0.048136
    99  H    0.034010
   100  H    0.035831
   101  H    0.048124
   102  H   -0.000383
   103  H    0.043689
   104  H    0.001541
   105  H    0.024718
   106  H    0.043068
   107  H    0.032119
   108  H   -0.005702
   109  H    0.005007
   110  H    0.008612
   111  H    0.005870
   112  H    0.003924
   113  H   -0.006519
   114  H   -0.011998
   115  H   -0.023032
   116  H    0.006696
   117  H    0.006371
   118  H   -0.020007
   119  H   -0.004275
   120  H   -0.012108
   121  H   -0.002330
   122  H   -0.016370
   123  H   -0.015172
   124  H    0.005189
   125  H   -0.000014
   126  H    0.006731
   127  H    0.019076
   128  H   -0.009686
   129  H   -0.004887
   130  H   -0.011543
   131  H   -0.008003
   132  H   -0.013591
   133  H    0.000726
   134  H    0.005945
   135  H   -0.016186
   136  H    0.007698
   137  H    0.006806
   138  H   -0.003788
   139  H    0.009506
   140  H    0.002224
 Sum of Mulliken charges =  -0.00000

 Dipole moment (field-independent basis, Debye):
    X=              4.4782    Y=             -0.0977    Z=             -3.8300  Tot=              5.8934
 Quadrupole moment (field-independent basis, Debye-Ang):
   XX=           -372.7340   YY=           -439.0151   ZZ=           -406.2358
   XY=            -23.4849   XZ=             19.0381   YZ=             14.1410

 Normal termination of Gaussian 16 at Wed May  4 11:53:16 2022.
