 Gaussian 16, Revision A.03,
 Gaussian 16:  ES64L-G16RevA.03 25-Dec-2016

 ---------------------------------
 #p PBE1PBE/Def2SVP td=(nstates=5)
 ---------------------------------

 ------------------------------------------------------
 step_1701_chromophore_24 TDDFT with PBE1PBE functional
 ------------------------------------------------------
 Symbolic Z-matrix:
 Charge =  0 Multiplicity = 1

                         Standard orientation:
 ---------------------------------------------------------------------
 Center     Atomic      Atomic             Coordinates (Angstroms)
 Number     Number       Type             X           Y           Z
 ---------------------------------------------------------------------
      1         12           0       -4.855005    1.056741   -0.255591
      2          6           0       -4.566219   -2.364670   -0.106426
      3          6           0       -1.462784    1.329726    0.145982
      4          6           0       -5.409656    4.369997    0.085080
      5          6           0       -8.332111    0.605682   -0.308961
      6          7           0       -3.207246   -0.401463    0.035258
      7          6           0       -3.320843   -1.698501   -0.086133
      8          6           0       -2.001271   -2.303705   -0.301102
      9          6           0       -1.005326   -1.174431   -0.010515
     10          6           0       -1.916442    0.016736    0.090093
     11          6           0       -0.193071   -1.438280    1.260247
     12          6           0       -1.810056   -3.057293   -1.663452
     13          6           0       -0.820702   -4.211536   -1.753696
     14          6           0        0.058149   -4.456366   -0.488967
     15          8           0       -0.194836   -5.123633    0.514531
     16          8           0        1.275452   -3.942577   -0.654432
     17          7           0       -3.616215    2.688427    0.055932
     18          6           0       -2.234621    2.603476    0.216071
     19          6           0       -1.776585    3.852602    0.554273
     20          6           0       -2.868210    4.773247    0.550624
     21          6           0       -4.066176    3.981766    0.220175
     22          6           0       -0.296986    4.073604    0.868142
     23          6           0       -2.884319    6.266007    0.924918
     24          8           0       -3.871962    6.963534    0.836464
     25          6           0       -1.658106    6.903146    1.462730
     26          7           0       -6.654021    2.316762   -0.274914
     27          6           0       -6.575207    3.663757   -0.104826
     28          6           0       -7.979917    4.294100   -0.109790
     29          6           0       -8.944524    3.060264   -0.181995
     30          6           0       -7.922851    1.890169   -0.375220
     31          6           0       -8.297942    5.291330    1.057547
     32          6           0      -10.005477    3.199321   -1.304783
     33          6           0       -9.511222    3.078608   -2.734084
     34          7           0       -6.189406   -0.486684   -0.145487
     35          6           0       -7.565596   -0.522040   -0.185451
     36          6           0       -8.072916   -1.923084    0.012419
     37          6           0       -6.892025   -2.710035    0.077959
     38          6           0       -5.813920   -1.784989   -0.106502
     39          6           0       -9.522114   -2.392323   -0.004108
     40          6           0       -6.347043   -4.003316    0.330334
     41          8           0       -6.931213   -5.038263    0.686134
     42          6           0       -4.799471   -3.870846    0.046224
     43          6           0       -3.956790   -4.442036    1.151398
     44          8           0       -3.998314   -4.199341    2.376052
     45          8           0       -3.494098   -5.639534    0.666127
     46          6           0       -2.852895   -6.511045    1.693376
     47          6           0        2.242267   -4.087205    0.479444
     48          6           0        3.377884   -3.130663    0.311903
     49          6           0        4.609836   -3.466930   -0.133225
     50          6           0        5.147686   -4.818822   -0.609557
     51          6           0        5.704292   -2.371550   -0.073435
     52          6           0        5.829016   -1.320180   -1.190597
     53          6           0        6.508768   -0.018467   -0.596534
     54          6           0        7.447782    0.646338   -1.574427
     55          6           0        6.723084    1.694833   -2.352584
     56          6           0        8.726100    1.233871   -0.874397
     57          6           0        9.915248    0.247419   -0.735472
     58          6           0       10.928326    0.535303   -1.871521
     59          6           0       12.054107    1.545122   -1.398301
     60          6           0       12.600507    2.346068   -2.641126
     61          6           0       13.131141    0.621101   -0.769152
     62          6           0       14.253345    1.411102   -0.121812
     63          6           0       14.330410    1.050878    1.329634
     64          6           0       13.074706    1.509693    2.146583
     65          6           0       13.309052    2.746257    3.030443
     66          6           0       12.572548    0.342705    2.924543
     67          1           0       -0.378977    1.442423    0.217373
     68          1           0       -5.516097    5.446990    0.228309
     69          1           0       -9.375047    0.297369   -0.407620
     70          1           0       -1.968296   -3.131214    0.408471
     71          1           0       -0.308793   -1.013523   -0.833115
     72          1           0       -0.511934   -2.266041    1.893815
     73          1           0       -0.161804   -0.570608    1.920014
     74          1           0        0.804692   -1.630391    0.866799
     75          1           0       -1.567626   -2.344277   -2.450750
     76          1           0       -2.726784   -3.536569   -2.007553
     77          1           0       -0.180757   -3.899741   -2.579771
     78          1           0       -1.366061   -5.135494   -1.946055
     79          1           0       -0.210215    4.578403    1.829975
     80          1           0        0.111297    4.729689    0.099962
     81          1           0        0.279201    3.151912    0.946621
     82          1           0       -1.378957    6.531170    2.449389
     83          1           0       -1.881519    7.927627    1.756744
     84          1           0       -0.849173    6.780805    0.742312
     85          1           0       -8.000904    4.888614   -1.022254
     86          1           0       -9.413632    2.848093    0.779124
     87          1           0       -8.771108    6.183310    0.647791
     88          1           0       -7.475717    5.498617    1.743122
     89          1           0       -9.041597    4.843440    1.717200
     90          1           0      -10.446223    4.185954   -1.164467
     91          1           0      -10.898263    2.579808   -1.224594
     92          1           0       -8.612852    2.461929   -2.784469
     93          1           0       -9.233195    4.109512   -2.951384
     94          1           0      -10.236143    2.857112   -3.517336
     95          1           0       -9.849101   -2.048807   -0.984813
     96          1           0      -10.169687   -2.209533    0.853478
     97          1           0       -9.418829   -3.476992   -0.028997
     98          1           0       -4.589702   -4.283284   -0.941189
     99          1           0       -2.355751   -5.901027    2.448142
    100          1           0       -1.911972   -6.970780    1.389949
    101          1           0       -3.564220   -7.207953    2.136053
    102          1           0        2.641617   -5.095198    0.367820
    103          1           0        1.802058   -4.119115    1.476165
    104          1           0        3.148407   -2.131136    0.680780
    105          1           0        4.409137   -5.514618   -1.008027
    106          1           0        5.520226   -5.277068    0.305768
    107          1           0        5.873599   -4.632846   -1.402266
    108          1           0        6.599270   -2.968596    0.104533
    109          1           0        5.514575   -1.862702    0.872026
    110          1           0        4.821008   -1.108272   -1.548409
    111          1           0        6.464546   -1.828741   -1.915488
    112          1           0        6.997976   -0.167328    0.366285
    113          1           0        5.696307    0.690220   -0.437567
    114          1           0        7.752240   -0.041280   -2.363003
    115          1           0        5.641889    1.588181   -2.259882
    116          1           0        6.824489    1.555540   -3.428337
    117          1           0        6.787673    2.710137   -1.961093
    118          1           0        8.350857    1.552954    0.097722
    119          1           0        9.110169    2.131359   -1.360346
    120          1           0        9.505748   -0.728988   -0.996607
    121          1           0       10.385616    0.225857    0.246798
    122          1           0       10.299511    0.876924   -2.692972
    123          1           0       11.286844   -0.437127   -2.208598
    124          1           0       11.496134    2.238497   -0.768944
    125          1           0       13.689500    2.366097   -2.641343
    126          1           0       12.324540    3.388747   -2.481845
    127          1           0       12.264279    1.922678   -3.587429
    128          1           0       13.633063    0.075021   -1.567516
    129          1           0       12.687068   -0.136820   -0.123677
    130          1           0       13.985674    2.453536   -0.294465
    131          1           0       15.134639    1.242628   -0.741678
    132          1           0       15.184258    1.596884    1.729861
    133          1           0       14.563714   -0.010915    1.415604
    134          1           0       12.219268    1.793490    1.532747
    135          1           0       12.595472    3.515240    2.735628
    136          1           0       14.214106    3.339377    2.891078
    137          1           0       13.039612    2.637877    4.080720
    138          1           0       12.505696    0.535101    3.995468
    139          1           0       13.140772   -0.583549    2.833914
    140          1           0       11.547092    0.194259    2.586905
 ---------------------------------------------------------------------

 SCF Done:  E(RPBE1PBE) =  -3005.35803668     A.U. after   15 cycles

 Excitation energies and oscillator strengths:

 Excited State   1:      Singlet-A      1.9035 eV  651.35 nm  f=0.3847  <S**2>=0.000
     245 -> 248       -0.17766
     246 -> 247        0.69174
     246 <- 247       -0.10236
 This state for optimization and/or second-order correction.
 Total Energy, E(TD-HF/TD-DFT) =  -3005.28808451
 Copying the excited state density for this state as the 1-particle RhoCI density.

 Excited State   2:      Singlet-A      2.2237 eV  557.55 nm  f=0.1140  <S**2>=0.000
     245 -> 247        0.66058
     246 -> 248        0.23843

 Excited State   3:      Singlet-A      2.9218 eV  424.34 nm  f=0.0086  <S**2>=0.000
     242 -> 247        0.10103
     244 -> 247        0.69221

 Excited State   4:      Singlet-A      3.0414 eV  407.66 nm  f=0.0002  <S**2>=0.000
     241 -> 247       -0.15425
     242 -> 247       -0.29132
     243 -> 247        0.58540

 Excited State   5:      Singlet-A      3.0513 eV  406.33 nm  f=0.0004  <S**2>=0.000
     239 -> 247        0.12988
     241 -> 247        0.25606
     242 -> 247        0.47081
     242 -> 249        0.14871
     243 -> 247        0.35811

 The electronic state is 1-A.
 Alpha  occ. eigenvalues --  -46.91622 -19.26242 -19.24976 -19.20164 -19.19649
 Alpha  occ. eigenvalues --  -19.19461 -19.18255 -14.41209 -14.40998 -14.39179
 Alpha  occ. eigenvalues --  -14.38408 -10.36858 -10.36001 -10.32666 -10.31272
 Alpha  occ. eigenvalues --  -10.29608 -10.28629 -10.27973 -10.27955 -10.27776
 Alpha  occ. eigenvalues --  -10.27704 -10.27457 -10.27087 -10.26880 -10.26734
 Alpha  occ. eigenvalues --  -10.26688 -10.26322 -10.26272 -10.25661 -10.25600
 Alpha  occ. eigenvalues --  -10.25491 -10.25468 -10.25383 -10.25219 -10.25154
 Alpha  occ. eigenvalues --  -10.25004 -10.24689 -10.24467 -10.24262 -10.24204
 Alpha  occ. eigenvalues --  -10.24001 -10.23947 -10.23896 -10.23814 -10.23792
 Alpha  occ. eigenvalues --  -10.23775 -10.23764 -10.23321 -10.23317 -10.23311
 Alpha  occ. eigenvalues --  -10.23243 -10.23114 -10.23077 -10.22875 -10.22685
 Alpha  occ. eigenvalues --  -10.22510 -10.22444 -10.22423 -10.22192 -10.22175
 Alpha  occ. eigenvalues --  -10.22157 -10.22036 -10.21782 -10.21776 -10.21597
 Alpha  occ. eigenvalues --  -10.21340  -3.13752  -1.86608  -1.86108  -1.85986
 Alpha  occ. eigenvalues --   -1.12307  -1.09430  -1.04676  -1.03792  -1.02099
 Alpha  occ. eigenvalues --   -1.00492  -1.00247  -0.98733  -0.97732  -0.96096
 Alpha  occ. eigenvalues --   -0.87606  -0.85418  -0.84751  -0.84496  -0.83885
 Alpha  occ. eigenvalues --   -0.83145  -0.82542  -0.82361  -0.81921  -0.81230
 Alpha  occ. eigenvalues --   -0.80471  -0.79818  -0.79006  -0.78094  -0.77776
 Alpha  occ. eigenvalues --   -0.77220  -0.76047  -0.75734  -0.75163  -0.74776
 Alpha  occ. eigenvalues --   -0.74249  -0.73019  -0.71991  -0.70999  -0.70567
 Alpha  occ. eigenvalues --   -0.70089  -0.69954  -0.69330  -0.69243  -0.68536
 Alpha  occ. eigenvalues --   -0.67923  -0.67368  -0.66384  -0.65093  -0.64029
 Alpha  occ. eigenvalues --   -0.63707  -0.62865  -0.61784  -0.61346  -0.60382
 Alpha  occ. eigenvalues --   -0.59890  -0.59386  -0.59168  -0.58704  -0.58640
 Alpha  occ. eigenvalues --   -0.58303  -0.57409  -0.56961  -0.56343  -0.55234
 Alpha  occ. eigenvalues --   -0.54599  -0.54054  -0.53752  -0.53145  -0.52240
 Alpha  occ. eigenvalues --   -0.51554  -0.51228  -0.50971  -0.50677  -0.50154
 Alpha  occ. eigenvalues --   -0.50022  -0.49576  -0.49352  -0.49207  -0.48872
 Alpha  occ. eigenvalues --   -0.48481  -0.48225  -0.48164  -0.47655  -0.47278
 Alpha  occ. eigenvalues --   -0.47233  -0.46992  -0.46911  -0.46536  -0.46451
 Alpha  occ. eigenvalues --   -0.46286  -0.45980  -0.45927  -0.45644  -0.45513
 Alpha  occ. eigenvalues --   -0.45427  -0.44933  -0.44761  -0.44485  -0.44333
 Alpha  occ. eigenvalues --   -0.44036  -0.43969  -0.43747  -0.43661  -0.43586
 Alpha  occ. eigenvalues --   -0.43454  -0.42899  -0.42762  -0.42634  -0.42461
 Alpha  occ. eigenvalues --   -0.42343  -0.42161  -0.41739  -0.41581  -0.41111
 Alpha  occ. eigenvalues --   -0.40936  -0.40894  -0.40832  -0.40496  -0.40378
 Alpha  occ. eigenvalues --   -0.40192  -0.40082  -0.39997  -0.39783  -0.39636
 Alpha  occ. eigenvalues --   -0.39381  -0.38928  -0.38781  -0.38481  -0.38350
 Alpha  occ. eigenvalues --   -0.38241  -0.38212  -0.38001  -0.37735  -0.37613
 Alpha  occ. eigenvalues --   -0.37544  -0.37398  -0.37317  -0.37107  -0.36729
 Alpha  occ. eigenvalues --   -0.36665  -0.36357  -0.36197  -0.35897  -0.35562
 Alpha  occ. eigenvalues --   -0.35545  -0.35358  -0.35292  -0.35039  -0.34654
 Alpha  occ. eigenvalues --   -0.34540  -0.34421  -0.34337  -0.34208  -0.34081
 Alpha  occ. eigenvalues --   -0.33121  -0.32970  -0.32730  -0.32495  -0.32434
 Alpha  occ. eigenvalues --   -0.32043  -0.31841  -0.31727  -0.31643  -0.31259
 Alpha  occ. eigenvalues --   -0.31216  -0.30956  -0.30693  -0.29432  -0.29146
 Alpha  occ. eigenvalues --   -0.29110  -0.28832  -0.28207  -0.26986  -0.26475
 Alpha  occ. eigenvalues --   -0.26337  -0.26135  -0.25040  -0.24511  -0.20830
 Alpha  occ. eigenvalues --   -0.18837
 Alpha virt. eigenvalues --   -0.11057  -0.04889  -0.04128  -0.01411  -0.00943
 Alpha virt. eigenvalues --   -0.00725   0.00094   0.00233   0.02233   0.03565
 Alpha virt. eigenvalues --    0.04187   0.04851   0.05000   0.05321   0.05871

 Mulliken charges:
               1
     1  Mg   0.964802
     2  C   -0.101900
     3  C   -0.053466
     4  C   -0.047133
     5  C   -0.075308
     6  N   -0.356037
     7  C    0.065226
     8  C   -0.135701
     9  C   -0.110031
    10  C    0.075747
    11  C    0.003741
    12  C   -0.014271
    13  C    0.048169
    14  C    0.182915
    15  O   -0.292897
    16  O   -0.342747
    17  N   -0.530149
    18  C    0.165792
    19  C   -0.192613
    20  C   -0.089755
    21  C    0.133728
    22  C    0.059886
    23  C    0.050945
    24  O   -0.233689
    25  C   -0.021813
    26  N   -0.365856
    27  C    0.074326
    28  C   -0.101296
    29  C   -0.087347
    30  C    0.104065
    31  C    0.014896
    32  C   -0.038263
    33  C   -0.072174
    34  N   -0.477197
    35  C    0.120466
    36  C   -0.178853
    37  C   -0.018965
    38  C    0.170996
    39  C    0.050519
    40  C    0.153453
    41  O   -0.225086
    42  C   -0.080033
    43  C    0.293468
    44  O   -0.272883
    45  O   -0.368670
    46  C    0.117570
    47  C    0.220997
    48  C   -0.121028
    49  C   -0.201728
    50  C    0.006751
    51  C   -0.054551
    52  C    0.009684
    53  C    0.009338
    54  C   -0.231073
    55  C    0.007634
    56  C   -0.005689
    57  C   -0.042278
    58  C   -0.036702
    59  C   -0.225339
    60  C    0.004432
    61  C   -0.030625
    62  C   -0.016495
    63  C    0.018630
    64  C   -0.249856
    65  C   -0.000605
    66  C   -0.012920
    67  H   -0.002367
    68  H    0.024647
    69  H   -0.000657
    70  H    0.088231
    71  H    0.049336
    72  H    0.064386
    73  H    0.040410
    74  H    0.045370
    75  H    0.035553
    76  H    0.036733
    77  H    0.057777
    78  H    0.068305
    79  H    0.046963
    80  H    0.057233
    81  H    0.036211
    82  H    0.059384
    83  H    0.043852
    84  H    0.060402
    85  H    0.057948
    86  H    0.055924
    87  H    0.042649
    88  H    0.060409
    89  H    0.023683
    90  H    0.031589
    91  H    0.031117
    92  H    0.060464
    93  H    0.031171
    94  H    0.046092
    95  H    0.064325
    96  H    0.072656
    97  H    0.059912
    98  H    0.085372
    99  H    0.054166
   100  H    0.056961
   101  H    0.070354
   102  H    0.028308
   103  H    0.069149
   104  H    0.028475
   105  H    0.051954
   106  H    0.071565
   107  H    0.059702
   108  H    0.027394
   109  H    0.038021
   110  H    0.040822
   111  H    0.038249
   112  H    0.034670
   113  H    0.027274
   114  H    0.025542
   115  H    0.005060
   116  H    0.034176
   117  H    0.033203
   118  H    0.013550
   119  H    0.028318
   120  H    0.023158
   121  H    0.034311
   122  H    0.017435
   123  H    0.017800
   124  H    0.041237
   125  H    0.027853
   126  H    0.034143
   127  H    0.045576
   128  H    0.024179
   129  H    0.029234
   130  H    0.024161
   131  H    0.024236
   132  H    0.020348
   133  H    0.032743
   134  H    0.047543
   135  H    0.011493
   136  H    0.033865
   137  H    0.033180
   138  H    0.023613
   139  H    0.035667
   140  H    0.031076
 Sum of Mulliken charges =  -0.00000

 Dipole moment (field-independent basis, Debye):
    X=              4.9327    Y=              0.6511    Z=             -3.8075  Tot=              6.2652
 Quadrupole moment (field-independent basis, Debye-Ang):
   XX=           -372.0779   YY=           -434.3500   ZZ=           -403.8033
   XY=            -27.2993   XZ=             18.8262   YZ=             14.6025

 Normal termination of Gaussian 16 at Wed May  4 12:10:35 2022.
