 Gaussian 16, Revision A.03,
 Gaussian 16:  ES64L-G16RevA.03 25-Dec-2016

 --------------------------------
 #p wB97XD/Def2SVP td=(nstates=5)
 --------------------------------

 -----------------------------------------------------
 step_1701_chromophore_24 TDDFT with wB97XD functional
 -----------------------------------------------------
 Symbolic Z-matrix:
 Charge =  0 Multiplicity = 1

                         Standard orientation:
 ---------------------------------------------------------------------
 Center     Atomic      Atomic             Coordinates (Angstroms)
 Number     Number       Type             X           Y           Z
 ---------------------------------------------------------------------
      1         12           0       -4.855005    1.056741   -0.255591
      2          6           0       -4.566219   -2.364670   -0.106426
      3          6           0       -1.462784    1.329726    0.145982
      4          6           0       -5.409656    4.369997    0.085080
      5          6           0       -8.332111    0.605682   -0.308961
      6          7           0       -3.207246   -0.401463    0.035258
      7          6           0       -3.320843   -1.698501   -0.086133
      8          6           0       -2.001271   -2.303705   -0.301102
      9          6           0       -1.005326   -1.174431   -0.010515
     10          6           0       -1.916442    0.016736    0.090093
     11          6           0       -0.193071   -1.438280    1.260247
     12          6           0       -1.810056   -3.057293   -1.663452
     13          6           0       -0.820702   -4.211536   -1.753696
     14          6           0        0.058149   -4.456366   -0.488967
     15          8           0       -0.194836   -5.123633    0.514531
     16          8           0        1.275452   -3.942577   -0.654432
     17          7           0       -3.616215    2.688427    0.055932
     18          6           0       -2.234621    2.603476    0.216071
     19          6           0       -1.776585    3.852602    0.554273
     20          6           0       -2.868210    4.773247    0.550624
     21          6           0       -4.066176    3.981766    0.220175
     22          6           0       -0.296986    4.073604    0.868142
     23          6           0       -2.884319    6.266007    0.924918
     24          8           0       -3.871962    6.963534    0.836464
     25          6           0       -1.658106    6.903146    1.462730
     26          7           0       -6.654021    2.316762   -0.274914
     27          6           0       -6.575207    3.663757   -0.104826
     28          6           0       -7.979917    4.294100   -0.109790
     29          6           0       -8.944524    3.060264   -0.181995
     30          6           0       -7.922851    1.890169   -0.375220
     31          6           0       -8.297942    5.291330    1.057547
     32          6           0      -10.005477    3.199321   -1.304783
     33          6           0       -9.511222    3.078608   -2.734084
     34          7           0       -6.189406   -0.486684   -0.145487
     35          6           0       -7.565596   -0.522040   -0.185451
     36          6           0       -8.072916   -1.923084    0.012419
     37          6           0       -6.892025   -2.710035    0.077959
     38          6           0       -5.813920   -1.784989   -0.106502
     39          6           0       -9.522114   -2.392323   -0.004108
     40          6           0       -6.347043   -4.003316    0.330334
     41          8           0       -6.931213   -5.038263    0.686134
     42          6           0       -4.799471   -3.870846    0.046224
     43          6           0       -3.956790   -4.442036    1.151398
     44          8           0       -3.998314   -4.199341    2.376052
     45          8           0       -3.494098   -5.639534    0.666127
     46          6           0       -2.852895   -6.511045    1.693376
     47          6           0        2.242267   -4.087205    0.479444
     48          6           0        3.377884   -3.130663    0.311903
     49          6           0        4.609836   -3.466930   -0.133225
     50          6           0        5.147686   -4.818822   -0.609557
     51          6           0        5.704292   -2.371550   -0.073435
     52          6           0        5.829016   -1.320180   -1.190597
     53          6           0        6.508768   -0.018467   -0.596534
     54          6           0        7.447782    0.646338   -1.574427
     55          6           0        6.723084    1.694833   -2.352584
     56          6           0        8.726100    1.233871   -0.874397
     57          6           0        9.915248    0.247419   -0.735472
     58          6           0       10.928326    0.535303   -1.871521
     59          6           0       12.054107    1.545122   -1.398301
     60          6           0       12.600507    2.346068   -2.641126
     61          6           0       13.131141    0.621101   -0.769152
     62          6           0       14.253345    1.411102   -0.121812
     63          6           0       14.330410    1.050878    1.329634
     64          6           0       13.074706    1.509693    2.146583
     65          6           0       13.309052    2.746257    3.030443
     66          6           0       12.572548    0.342705    2.924543
     67          1           0       -0.378977    1.442423    0.217373
     68          1           0       -5.516097    5.446990    0.228309
     69          1           0       -9.375047    0.297369   -0.407620
     70          1           0       -1.968296   -3.131214    0.408471
     71          1           0       -0.308793   -1.013523   -0.833115
     72          1           0       -0.511934   -2.266041    1.893815
     73          1           0       -0.161804   -0.570608    1.920014
     74          1           0        0.804692   -1.630391    0.866799
     75          1           0       -1.567626   -2.344277   -2.450750
     76          1           0       -2.726784   -3.536569   -2.007553
     77          1           0       -0.180757   -3.899741   -2.579771
     78          1           0       -1.366061   -5.135494   -1.946055
     79          1           0       -0.210215    4.578403    1.829975
     80          1           0        0.111297    4.729689    0.099962
     81          1           0        0.279201    3.151912    0.946621
     82          1           0       -1.378957    6.531170    2.449389
     83          1           0       -1.881519    7.927627    1.756744
     84          1           0       -0.849173    6.780805    0.742312
     85          1           0       -8.000904    4.888614   -1.022254
     86          1           0       -9.413632    2.848093    0.779124
     87          1           0       -8.771108    6.183310    0.647791
     88          1           0       -7.475717    5.498617    1.743122
     89          1           0       -9.041597    4.843440    1.717200
     90          1           0      -10.446223    4.185954   -1.164467
     91          1           0      -10.898263    2.579808   -1.224594
     92          1           0       -8.612852    2.461929   -2.784469
     93          1           0       -9.233195    4.109512   -2.951384
     94          1           0      -10.236143    2.857112   -3.517336
     95          1           0       -9.849101   -2.048807   -0.984813
     96          1           0      -10.169687   -2.209533    0.853478
     97          1           0       -9.418829   -3.476992   -0.028997
     98          1           0       -4.589702   -4.283284   -0.941189
     99          1           0       -2.355751   -5.901027    2.448142
    100          1           0       -1.911972   -6.970780    1.389949
    101          1           0       -3.564220   -7.207953    2.136053
    102          1           0        2.641617   -5.095198    0.367820
    103          1           0        1.802058   -4.119115    1.476165
    104          1           0        3.148407   -2.131136    0.680780
    105          1           0        4.409137   -5.514618   -1.008027
    106          1           0        5.520226   -5.277068    0.305768
    107          1           0        5.873599   -4.632846   -1.402266
    108          1           0        6.599270   -2.968596    0.104533
    109          1           0        5.514575   -1.862702    0.872026
    110          1           0        4.821008   -1.108272   -1.548409
    111          1           0        6.464546   -1.828741   -1.915488
    112          1           0        6.997976   -0.167328    0.366285
    113          1           0        5.696307    0.690220   -0.437567
    114          1           0        7.752240   -0.041280   -2.363003
    115          1           0        5.641889    1.588181   -2.259882
    116          1           0        6.824489    1.555540   -3.428337
    117          1           0        6.787673    2.710137   -1.961093
    118          1           0        8.350857    1.552954    0.097722
    119          1           0        9.110169    2.131359   -1.360346
    120          1           0        9.505748   -0.728988   -0.996607
    121          1           0       10.385616    0.225857    0.246798
    122          1           0       10.299511    0.876924   -2.692972
    123          1           0       11.286844   -0.437127   -2.208598
    124          1           0       11.496134    2.238497   -0.768944
    125          1           0       13.689500    2.366097   -2.641343
    126          1           0       12.324540    3.388747   -2.481845
    127          1           0       12.264279    1.922678   -3.587429
    128          1           0       13.633063    0.075021   -1.567516
    129          1           0       12.687068   -0.136820   -0.123677
    130          1           0       13.985674    2.453536   -0.294465
    131          1           0       15.134639    1.242628   -0.741678
    132          1           0       15.184258    1.596884    1.729861
    133          1           0       14.563714   -0.010915    1.415604
    134          1           0       12.219268    1.793490    1.532747
    135          1           0       12.595472    3.515240    2.735628
    136          1           0       14.214106    3.339377    2.891078
    137          1           0       13.039612    2.637877    4.080720
    138          1           0       12.505696    0.535101    3.995468
    139          1           0       13.140772   -0.583549    2.833914
    140          1           0       11.547092    0.194259    2.586905
 ---------------------------------------------------------------------

 SCF Done:  E(RwB97XD) =  -3007.87279378     A.U. after   19 cycles

 Excitation energies and oscillator strengths:

 Excited State   1:      Singlet-A      1.7711 eV  700.04 nm  f=0.3956  <S**2>=0.000
     245 -> 248        0.18154
     246 -> 247        0.68317
     245 <- 248        0.11025
 This state for optimization and/or second-order correction.
 Total Energy, E(TD-HF/TD-DFT) =  -3007.80770719
 Copying the excited state density for this state as the 1-particle RhoCI density.

 Excited State   2:      Singlet-A      2.1992 eV  563.76 nm  f=0.1202  <S**2>=0.000
     245 -> 247        0.64696
     246 -> 248       -0.26947

 Excited State   3:      Singlet-A      3.3832 eV  366.47 nm  f=0.0172  <S**2>=0.000
     239 -> 247       -0.28061
     239 -> 249       -0.20799
     240 -> 247        0.14528
     240 -> 249        0.10850
     241 -> 247       -0.10119
     242 -> 247       -0.23672
     244 -> 247        0.49143

 Excited State   4:      Singlet-A      3.4221 eV  362.30 nm  f=0.0127  <S**2>=0.000
     239 -> 247        0.33526
     239 -> 249        0.22556
     240 -> 247       -0.24217
     240 -> 249       -0.13047
     244 -> 247        0.44657
     246 -> 248        0.15813

 Excited State   5:      Singlet-A      3.5700 eV  347.30 nm  f=0.3909  <S**2>=0.000
     240 -> 247        0.24526
     241 -> 247        0.15466
     242 -> 247        0.23571
     245 -> 247        0.18973
     246 -> 248        0.53365

 The electronic state is 1-A.
 Alpha  occ. eigenvalues --  -46.94560 -19.30820 -19.29709 -19.24924 -19.24852
 Alpha  occ. eigenvalues --  -19.24375 -19.22634 -14.46333 -14.46085 -14.44340
 Alpha  occ. eigenvalues --  -14.43051 -10.43674 -10.43041 -10.39958 -10.37689
 Alpha  occ. eigenvalues --  -10.36150 -10.35334 -10.34632 -10.34583 -10.34573
 Alpha  occ. eigenvalues --  -10.33995 -10.33661 -10.33544 -10.33521 -10.32969
 Alpha  occ. eigenvalues --  -10.32909 -10.32652 -10.32373 -10.32145 -10.31957
 Alpha  occ. eigenvalues --  -10.31898 -10.31850 -10.31593 -10.31452 -10.31388
 Alpha  occ. eigenvalues --  -10.31336 -10.31134 -10.31127 -10.30675 -10.30546
 Alpha  occ. eigenvalues --  -10.30321 -10.30282 -10.30249 -10.30164 -10.30119
 Alpha  occ. eigenvalues --  -10.29919 -10.29906 -10.29641 -10.29583 -10.29570
 Alpha  occ. eigenvalues --  -10.29556 -10.29471 -10.29246 -10.29142 -10.29003
 Alpha  occ. eigenvalues --  -10.28914 -10.28843 -10.28688 -10.28563 -10.28522
 Alpha  occ. eigenvalues --  -10.28504 -10.28385 -10.28171 -10.28165 -10.27963
 Alpha  occ. eigenvalues --  -10.27746  -3.20543  -1.94148  -1.93649  -1.93524
 Alpha  occ. eigenvalues --   -1.19696  -1.17022  -1.11736  -1.11717  -1.09467
 Alpha  occ. eigenvalues --   -1.07981  -1.07802  -1.06349  -1.05220  -1.03016
 Alpha  occ. eigenvalues --   -0.95519  -0.93071  -0.92426  -0.92162  -0.91521
 Alpha  occ. eigenvalues --   -0.90790  -0.90193  -0.89987  -0.89555  -0.89042
 Alpha  occ. eigenvalues --   -0.88029  -0.87278  -0.86608  -0.85736  -0.85406
 Alpha  occ. eigenvalues --   -0.84754  -0.83743  -0.83403  -0.82732  -0.82419
 Alpha  occ. eigenvalues --   -0.81854  -0.80810  -0.79498  -0.78505  -0.78213
 Alpha  occ. eigenvalues --   -0.77754  -0.77642  -0.76938  -0.76881  -0.76166
 Alpha  occ. eigenvalues --   -0.75536  -0.75003  -0.73923  -0.72729  -0.71665
 Alpha  occ. eigenvalues --   -0.71348  -0.70488  -0.69353  -0.68902  -0.67767
 Alpha  occ. eigenvalues --   -0.67534  -0.66878  -0.66566  -0.66281  -0.66120
 Alpha  occ. eigenvalues --   -0.65786  -0.65050  -0.64565  -0.63959  -0.62802
 Alpha  occ. eigenvalues --   -0.62161  -0.61427  -0.61135  -0.60416  -0.60021
 Alpha  occ. eigenvalues --   -0.58949  -0.58661  -0.58469  -0.58180  -0.57618
 Alpha  occ. eigenvalues --   -0.57514  -0.57072  -0.56822  -0.56578  -0.56175
 Alpha  occ. eigenvalues --   -0.55876  -0.55704  -0.55589  -0.55050  -0.54669
 Alpha  occ. eigenvalues --   -0.54618  -0.54376  -0.54226  -0.53979  -0.53848
 Alpha  occ. eigenvalues --   -0.53706  -0.53502  -0.53235  -0.53118  -0.52785
 Alpha  occ. eigenvalues --   -0.52748  -0.52367  -0.52063  -0.51751  -0.51456
 Alpha  occ. eigenvalues --   -0.51293  -0.51260  -0.51086  -0.51004  -0.50870
 Alpha  occ. eigenvalues --   -0.50709  -0.50277  -0.50024  -0.49825  -0.49802
 Alpha  occ. eigenvalues --   -0.49540  -0.49291  -0.48928  -0.48779  -0.48397
 Alpha  occ. eigenvalues --   -0.48112  -0.48085  -0.47999  -0.47735  -0.47618
 Alpha  occ. eigenvalues --   -0.47423  -0.47398  -0.47189  -0.47008  -0.46821
 Alpha  occ. eigenvalues --   -0.46603  -0.46178  -0.45885  -0.45639  -0.45626
 Alpha  occ. eigenvalues --   -0.45496  -0.45376  -0.45258  -0.44799  -0.44735
 Alpha  occ. eigenvalues --   -0.44669  -0.44527  -0.44262  -0.43914  -0.43777
 Alpha  occ. eigenvalues --   -0.43736  -0.43454  -0.43288  -0.42830  -0.42689
 Alpha  occ. eigenvalues --   -0.42611  -0.42410  -0.42299  -0.41988  -0.41643
 Alpha  occ. eigenvalues --   -0.41612  -0.41519  -0.41405  -0.41344  -0.41270
 Alpha  occ. eigenvalues --   -0.40113  -0.40036  -0.39790  -0.39507  -0.39311
 Alpha  occ. eigenvalues --   -0.39047  -0.38941  -0.38788  -0.38620  -0.38157
 Alpha  occ. eigenvalues --   -0.38113  -0.37940  -0.37857  -0.36576  -0.35977
 Alpha  occ. eigenvalues --   -0.35916  -0.35819  -0.35152  -0.33971  -0.33498
 Alpha  occ. eigenvalues --   -0.33235  -0.32971  -0.31807  -0.30624  -0.25898
 Alpha  occ. eigenvalues --   -0.23094
 Alpha virt. eigenvalues --   -0.06863   0.00576   0.01974   0.05212   0.05740
 Alpha virt. eigenvalues --    0.05818   0.06046   0.06999   0.08922   0.09700
 Alpha virt. eigenvalues --    0.10903   0.11580   0.11698   0.12132   0.12723

 Mulliken charges:
               1
     1  Mg   0.954633
     2  C   -0.108113
     3  C   -0.065598
     4  C   -0.056854
     5  C   -0.098519
     6  N   -0.315715
     7  C    0.034164
     8  C   -0.090540
     9  C   -0.084985
    10  C    0.058859
    11  C    0.021184
    12  C   -0.009548
    13  C    0.064018
    14  C    0.166682
    15  O   -0.287862
    16  O   -0.339445
    17  N   -0.495098
    18  C    0.143659
    19  C   -0.178440
    20  C   -0.084702
    21  C    0.115015
    22  C    0.073081
    23  C    0.046333
    24  O   -0.231070
    25  C   -0.011649
    26  N   -0.329142
    27  C    0.056765
    28  C   -0.077818
    29  C   -0.060441
    30  C    0.090654
    31  C    0.025459
    32  C   -0.024598
    33  C   -0.054762
    34  N   -0.442668
    35  C    0.123246
    36  C   -0.175727
    37  C   -0.015173
    38  C    0.158903
    39  C    0.062401
    40  C    0.135594
    41  O   -0.211370
    42  C   -0.042156
    43  C    0.274623
    44  O   -0.266704
    45  O   -0.366354
    46  C    0.129894
    47  C    0.233033
    48  C   -0.127239
    49  C   -0.192395
    50  C    0.021203
    51  C   -0.033999
    52  C    0.025707
    53  C    0.025436
    54  C   -0.199827
    55  C    0.015994
    56  C    0.011826
    57  C   -0.019806
    58  C   -0.016939
    59  C   -0.193486
    60  C    0.013271
    61  C   -0.014919
    62  C    0.001472
    63  C    0.037987
    64  C   -0.215584
    65  C    0.009188
    66  C   -0.001354
    67  H   -0.010243
    68  H    0.017515
    69  H   -0.006724
    70  H    0.056534
    71  H    0.041189
    72  H    0.059546
    73  H    0.035806
    74  H    0.027871
    75  H    0.030018
    76  H    0.025873
    77  H    0.053528
    78  H    0.064490
    79  H    0.038232
    80  H    0.049773
    81  H    0.030047
    82  H    0.053831
    83  H    0.041006
    84  H    0.053890
    85  H    0.046026
    86  H    0.046388
    87  H    0.037412
    88  H    0.055735
    89  H    0.015935
    90  H    0.023213
    91  H    0.023901
    92  H    0.050644
    93  H    0.024798
    94  H    0.042304
    95  H    0.060407
    96  H    0.072175
    97  H    0.056972
    98  H    0.077833
    99  H    0.050915
   100  H    0.054613
   101  H    0.068068
   102  H    0.021975
   103  H    0.065737
   104  H    0.026035
   105  H    0.046705
   106  H    0.065598
   107  H    0.054394
   108  H    0.019117
   109  H    0.028039
   110  H    0.033287
   111  H    0.029003
   112  H    0.025180
   113  H    0.017694
   114  H    0.010911
   115  H   -0.002637
   116  H    0.029951
   117  H    0.028059
   118  H    0.004588
   119  H    0.016497
   120  H    0.011975
   121  H    0.019632
   122  H    0.005004
   123  H    0.009008
   124  H    0.027800
   125  H    0.020756
   126  H    0.029233
   127  H    0.040912
   128  H    0.015262
   129  H    0.014524
   130  H    0.011507
   131  H    0.018442
   132  H    0.011767
   133  H    0.023610
   134  H    0.028421
   135  H    0.005481
   136  H    0.028313
   137  H    0.027297
   138  H    0.017533
   139  H    0.029556
   140  H    0.024624
 Sum of Mulliken charges =  -0.00000

 Dipole moment (field-independent basis, Debye):
    X=              4.3781    Y=             -0.2797    Z=             -3.8871  Tot=              5.8614
 Quadrupole moment (field-independent basis, Debye-Ang):
   XX=           -366.1544   YY=           -435.1398   ZZ=           -403.3737
   XY=            -22.6379   XZ=             19.2726   YZ=             14.3293

 Normal termination of Gaussian 16 at Wed May  4 12:37:40 2022.
