 Gaussian 16, Revision A.03,
 Gaussian 16:  ES64L-G16RevA.03 25-Dec-2016

 --------------------
 #p ZINDO=(nstates=5)
 --------------------

 ------------------------------
 step_1701_chromophore_24 ZINDO
 ------------------------------
 Symbolic Z-matrix:
 Charge =  0 Multiplicity = 1

                         Standard orientation:
 ---------------------------------------------------------------------
 Center     Atomic      Atomic             Coordinates (Angstroms)
 Number     Number       Type             X           Y           Z
 ---------------------------------------------------------------------
      1         12           0       -4.855005    1.056741   -0.255591
      2          6           0       -4.566219   -2.364670   -0.106426
      3          6           0       -1.462784    1.329726    0.145982
      4          6           0       -5.409656    4.369997    0.085080
      5          6           0       -8.332111    0.605682   -0.308961
      6          7           0       -3.207246   -0.401463    0.035258
      7          6           0       -3.320843   -1.698501   -0.086133
      8          6           0       -2.001271   -2.303705   -0.301102
      9          6           0       -1.005326   -1.174431   -0.010515
     10          6           0       -1.916442    0.016736    0.090093
     11          6           0       -0.193071   -1.438280    1.260247
     12          6           0       -1.810056   -3.057293   -1.663452
     13          6           0       -0.820702   -4.211536   -1.753696
     14          6           0        0.058149   -4.456366   -0.488967
     15          8           0       -0.194836   -5.123633    0.514531
     16          8           0        1.275452   -3.942577   -0.654432
     17          7           0       -3.616215    2.688427    0.055932
     18          6           0       -2.234621    2.603476    0.216071
     19          6           0       -1.776585    3.852602    0.554273
     20          6           0       -2.868210    4.773247    0.550624
     21          6           0       -4.066176    3.981766    0.220175
     22          6           0       -0.296986    4.073604    0.868142
     23          6           0       -2.884319    6.266007    0.924918
     24          8           0       -3.871962    6.963534    0.836464
     25          6           0       -1.658106    6.903146    1.462730
     26          7           0       -6.654021    2.316762   -0.274914
     27          6           0       -6.575207    3.663757   -0.104826
     28          6           0       -7.979917    4.294100   -0.109790
     29          6           0       -8.944524    3.060264   -0.181995
     30          6           0       -7.922851    1.890169   -0.375220
     31          6           0       -8.297942    5.291330    1.057547
     32          6           0      -10.005477    3.199321   -1.304783
     33          6           0       -9.511222    3.078608   -2.734084
     34          7           0       -6.189406   -0.486684   -0.145487
     35          6           0       -7.565596   -0.522040   -0.185451
     36          6           0       -8.072916   -1.923084    0.012419
     37          6           0       -6.892025   -2.710035    0.077959
     38          6           0       -5.813920   -1.784989   -0.106502
     39          6           0       -9.522114   -2.392323   -0.004108
     40          6           0       -6.347043   -4.003316    0.330334
     41          8           0       -6.931213   -5.038263    0.686134
     42          6           0       -4.799471   -3.870846    0.046224
     43          6           0       -3.956790   -4.442036    1.151398
     44          8           0       -3.998314   -4.199341    2.376052
     45          8           0       -3.494098   -5.639534    0.666127
     46          6           0       -2.852895   -6.511045    1.693376
     47          6           0        2.242267   -4.087205    0.479444
     48          6           0        3.377884   -3.130663    0.311903
     49          6           0        4.609836   -3.466930   -0.133225
     50          6           0        5.147686   -4.818822   -0.609557
     51          6           0        5.704292   -2.371550   -0.073435
     52          6           0        5.829016   -1.320180   -1.190597
     53          6           0        6.508768   -0.018467   -0.596534
     54          6           0        7.447782    0.646338   -1.574427
     55          6           0        6.723084    1.694833   -2.352584
     56          6           0        8.726100    1.233871   -0.874397
     57          6           0        9.915248    0.247419   -0.735472
     58          6           0       10.928326    0.535303   -1.871521
     59          6           0       12.054107    1.545122   -1.398301
     60          6           0       12.600507    2.346068   -2.641126
     61          6           0       13.131141    0.621101   -0.769152
     62          6           0       14.253345    1.411102   -0.121812
     63          6           0       14.330410    1.050878    1.329634
     64          6           0       13.074706    1.509693    2.146583
     65          6           0       13.309052    2.746257    3.030443
     66          6           0       12.572548    0.342705    2.924543
     67          1           0       -0.378977    1.442423    0.217373
     68          1           0       -5.516097    5.446990    0.228309
     69          1           0       -9.375047    0.297369   -0.407620
     70          1           0       -1.968296   -3.131214    0.408471
     71          1           0       -0.308793   -1.013523   -0.833115
     72          1           0       -0.511934   -2.266041    1.893815
     73          1           0       -0.161804   -0.570608    1.920014
     74          1           0        0.804692   -1.630391    0.866799
     75          1           0       -1.567626   -2.344277   -2.450750
     76          1           0       -2.726784   -3.536569   -2.007553
     77          1           0       -0.180757   -3.899741   -2.579771
     78          1           0       -1.366061   -5.135494   -1.946055
     79          1           0       -0.210215    4.578403    1.829975
     80          1           0        0.111297    4.729689    0.099962
     81          1           0        0.279201    3.151912    0.946621
     82          1           0       -1.378957    6.531170    2.449389
     83          1           0       -1.881519    7.927627    1.756744
     84          1           0       -0.849173    6.780805    0.742312
     85          1           0       -8.000904    4.888614   -1.022254
     86          1           0       -9.413632    2.848093    0.779124
     87          1           0       -8.771108    6.183310    0.647791
     88          1           0       -7.475717    5.498617    1.743122
     89          1           0       -9.041597    4.843440    1.717200
     90          1           0      -10.446223    4.185954   -1.164467
     91          1           0      -10.898263    2.579808   -1.224594
     92          1           0       -8.612852    2.461929   -2.784469
     93          1           0       -9.233195    4.109512   -2.951384
     94          1           0      -10.236143    2.857112   -3.517336
     95          1           0       -9.849101   -2.048807   -0.984813
     96          1           0      -10.169687   -2.209533    0.853478
     97          1           0       -9.418829   -3.476992   -0.028997
     98          1           0       -4.589702   -4.283284   -0.941189
     99          1           0       -2.355751   -5.901027    2.448142
    100          1           0       -1.911972   -6.970780    1.389949
    101          1           0       -3.564220   -7.207953    2.136053
    102          1           0        2.641617   -5.095198    0.367820
    103          1           0        1.802058   -4.119115    1.476165
    104          1           0        3.148407   -2.131136    0.680780
    105          1           0        4.409137   -5.514618   -1.008027
    106          1           0        5.520226   -5.277068    0.305768
    107          1           0        5.873599   -4.632846   -1.402266
    108          1           0        6.599270   -2.968596    0.104533
    109          1           0        5.514575   -1.862702    0.872026
    110          1           0        4.821008   -1.108272   -1.548409
    111          1           0        6.464546   -1.828741   -1.915488
    112          1           0        6.997976   -0.167328    0.366285
    113          1           0        5.696307    0.690220   -0.437567
    114          1           0        7.752240   -0.041280   -2.363003
    115          1           0        5.641889    1.588181   -2.259882
    116          1           0        6.824489    1.555540   -3.428337
    117          1           0        6.787673    2.710137   -1.961093
    118          1           0        8.350857    1.552954    0.097722
    119          1           0        9.110169    2.131359   -1.360346
    120          1           0        9.505748   -0.728988   -0.996607
    121          1           0       10.385616    0.225857    0.246798
    122          1           0       10.299511    0.876924   -2.692972
    123          1           0       11.286844   -0.437127   -2.208598
    124          1           0       11.496134    2.238497   -0.768944
    125          1           0       13.689500    2.366097   -2.641343
    126          1           0       12.324540    3.388747   -2.481845
    127          1           0       12.264279    1.922678   -3.587429
    128          1           0       13.633063    0.075021   -1.567516
    129          1           0       12.687068   -0.136820   -0.123677
    130          1           0       13.985674    2.453536   -0.294465
    131          1           0       15.134639    1.242628   -0.741678
    132          1           0       15.184258    1.596884    1.729861
    133          1           0       14.563714   -0.010915    1.415604
    134          1           0       12.219268    1.793490    1.532747
    135          1           0       12.595472    3.515240    2.735628
    136          1           0       14.214106    3.339377    2.891078
    137          1           0       13.039612    2.637877    4.080720
    138          1           0       12.505696    0.535101    3.995468
    139          1           0       13.140772   -0.583549    2.833914
    140          1           0       11.547092    0.194259    2.586905
 ---------------------------------------------------------------------

 SCF Done:  E(RZINDO/S) =  -474.557117747     A.U. after   19 cycles

 Excitation energies and oscillator strengths:

 Excited State   1:      Singlet-A      1.4105 eV  879.01 nm  f=0.5508  <S**2>=0.000
     175 ->178         0.15911
     176 ->177         0.67249
 This state for optimization and/or second-order correction.
 Total Energy, E(CIS/TDA) =  -474.505282655
 Copying the excited state density for this state as the 1-particle RhoCI density.

 Excited State   2:      Singlet-A      1.9814 eV  625.74 nm  f=0.0716  <S**2>=0.000
     175 ->177         0.56510
     176 ->178        -0.37834

 Excited State   3:      Singlet-A      2.8827 eV  430.10 nm  f=0.0247  <S**2>=0.000
     167 ->177         0.31497
     167 ->178        -0.11206
     167 ->179        -0.32623
     167 ->186         0.12524
     168 ->177         0.26862
     168 ->179        -0.25732
     168 ->186         0.10030

 Excited State   4:      Singlet-A      3.0333 eV  408.74 nm  f=0.9547  <S**2>=0.000
     173 ->177         0.11008
     175 ->177         0.34608
     176 ->178         0.55055

 Excited State   5:      Singlet-A      3.0997 eV  399.99 nm  f=0.0000  <S**2>=0.000
     171 ->177         0.23538
     171 ->179         0.17912
     171 ->180         0.11609
     171 ->182         0.40751
     171 ->183        -0.16570
     171 ->186        -0.27200
     171 ->188         0.25027
     171 ->205         0.12004

 The electronic state is 1-A.
 Alpha  occ. eigenvalues --   -1.86969  -1.82706  -1.79361  -1.74444  -1.72095
 Alpha  occ. eigenvalues --   -1.70897  -1.67933  -1.63174  -1.58621  -1.58214
 Alpha  occ. eigenvalues --   -1.55058  -1.51691  -1.48873  -1.48745  -1.46988
 Alpha  occ. eigenvalues --   -1.43568  -1.42299  -1.40644  -1.40574  -1.38808
 Alpha  occ. eigenvalues --   -1.36744  -1.35002  -1.32875  -1.31135  -1.29340
 Alpha  occ. eigenvalues --   -1.28501  -1.25275  -1.22364  -1.20821  -1.19027
 Alpha  occ. eigenvalues --   -1.18579  -1.16900  -1.14895  -1.14234  -1.12962
 Alpha  occ. eigenvalues --   -1.12468  -1.10412  -1.09030  -1.05236  -1.03878
 Alpha  occ. eigenvalues --   -1.02710  -1.01675  -0.98934  -0.98642  -0.97904
 Alpha  occ. eigenvalues --   -0.96513  -0.94367  -0.93855  -0.93384  -0.92052
 Alpha  occ. eigenvalues --   -0.91310  -0.90045  -0.89616  -0.88024  -0.86732
 Alpha  occ. eigenvalues --   -0.85701  -0.84108  -0.83573  -0.81997  -0.80721
 Alpha  occ. eigenvalues --   -0.80095  -0.79243  -0.78745  -0.77214  -0.76588
 Alpha  occ. eigenvalues --   -0.76310  -0.75846  -0.75236  -0.74677  -0.74302
 Alpha  occ. eigenvalues --   -0.73553  -0.73018  -0.72332  -0.71864  -0.71020
 Alpha  occ. eigenvalues --   -0.70634  -0.69732  -0.68232  -0.67876  -0.67446
 Alpha  occ. eigenvalues --   -0.66992  -0.66651  -0.66183  -0.65955  -0.65321
 Alpha  occ. eigenvalues --   -0.65192  -0.65083  -0.64843  -0.64277  -0.63982
 Alpha  occ. eigenvalues --   -0.63870  -0.63814  -0.63097  -0.62665  -0.62142
 Alpha  occ. eigenvalues --   -0.61524  -0.61356  -0.60946  -0.60753  -0.60065
 Alpha  occ. eigenvalues --   -0.59445  -0.59051  -0.58659  -0.58228  -0.57579
 Alpha  occ. eigenvalues --   -0.57412  -0.57292  -0.56769  -0.56470  -0.56278
 Alpha  occ. eigenvalues --   -0.55416  -0.55074  -0.54851  -0.54582  -0.54289
 Alpha  occ. eigenvalues --   -0.53754  -0.53629  -0.53215  -0.53062  -0.52863
 Alpha  occ. eigenvalues --   -0.52641  -0.52330  -0.51860  -0.51454  -0.51343
 Alpha  occ. eigenvalues --   -0.50695  -0.50514  -0.50199  -0.49991  -0.49612
 Alpha  occ. eigenvalues --   -0.49299  -0.49232  -0.48874  -0.48664  -0.48429
 Alpha  occ. eigenvalues --   -0.48202  -0.47947  -0.47750  -0.47676  -0.47385
 Alpha  occ. eigenvalues --   -0.47101  -0.46956  -0.46930  -0.46450  -0.46220
 Alpha  occ. eigenvalues --   -0.45896  -0.45754  -0.45622  -0.45514  -0.45183
 Alpha  occ. eigenvalues --   -0.44901  -0.44874  -0.44526  -0.44380  -0.43919
 Alpha  occ. eigenvalues --   -0.43847  -0.43333  -0.42937  -0.42096  -0.41899
 Alpha  occ. eigenvalues --   -0.41788  -0.41437  -0.41320  -0.39166  -0.38969
 Alpha  occ. eigenvalues --   -0.38428  -0.36742  -0.36331  -0.34797  -0.34251
 Alpha  occ. eigenvalues --   -0.33249  -0.33040  -0.32441  -0.30947  -0.26709
 Alpha  occ. eigenvalues --   -0.22144
 Alpha virt. eigenvalues --   -0.08239  -0.01791  -0.01064   0.00562   0.01747
 Alpha virt. eigenvalues --    0.02314   0.02638   0.03599   0.04332   0.05177
 Alpha virt. eigenvalues --    0.06435   0.07104   0.07355   0.07638   0.08285

 Mulliken charges:
               1
     1  Mg   0.419568
     2  C   -0.081704
     3  C   -0.071996
     4  C   -0.044428
     5  C   -0.068549
     6  N   -0.265294
     7  C    0.191161
     8  C    0.012542
     9  C    0.012941
    10  C    0.086466
    11  C   -0.052153
    12  C   -0.021599
    13  C    0.007935
    14  C    0.467835
    15  O   -0.535321
    16  O   -0.263946
    17  N   -0.325623
    18  C    0.053123
    19  C   -0.011676
    20  C   -0.079062
    21  C    0.113170
    22  C   -0.051468
    23  C    0.326299
    24  O   -0.535131
    25  C   -0.032837
    26  N   -0.269945
    27  C    0.099634
    28  C    0.002977
    29  C    0.006480
    30  C    0.171050
    31  C   -0.055054
    32  C   -0.024265
    33  C   -0.058626
    34  N   -0.337546
    35  C    0.138436
    36  C    0.059047
    37  C   -0.039581
    38  C    0.139293
    39  C   -0.038564
    40  C    0.346413
    41  O   -0.504851
    42  C    0.057875
    43  C    0.478777
    44  O   -0.510612
    45  O   -0.264774
    46  C    0.062175
    47  C    0.100691
    48  C   -0.094280
    49  C   -0.000365
    50  C   -0.038655
    51  C   -0.034074
    52  C   -0.028705
    53  C   -0.029623
    54  C   -0.003747
    55  C   -0.060919
    56  C   -0.036656
    57  C   -0.044348
    58  C   -0.047998
    59  C   -0.015047
    60  C   -0.062571
    61  C   -0.029018
    62  C   -0.036458
    63  C   -0.022258
    64  C   -0.000127
    65  C   -0.064132
    66  C   -0.055119
    67  H    0.027697
    68  H    0.040996
    69  H    0.021053
    70  H    0.043662
    71  H    0.027797
    72  H    0.033559
    73  H    0.022087
    74  H    0.017504
    75  H    0.021467
    76  H    0.016822
    77  H    0.037413
    78  H    0.046620
    79  H    0.020625
    80  H    0.024792
    81  H    0.023941
    82  H    0.033423
    83  H    0.030966
    84  H    0.039019
    85  H    0.033994
    86  H    0.036917
    87  H    0.023576
    88  H    0.036902
    89  H    0.009057
    90  H    0.011994
    91  H    0.013946
    92  H    0.026891
    93  H    0.013403
    94  H    0.025690
    95  H    0.038314
    96  H    0.052650
    97  H    0.029867
    98  H    0.055621
    99  H    0.044693
   100  H    0.042340
   101  H    0.051457
   102  H    0.031105
   103  H    0.059806
   104  H    0.031772
   105  H    0.022386
   106  H    0.037317
   107  H    0.029471
   108  H    0.017148
   109  H    0.014767
   110  H    0.031357
   111  H    0.026816
   112  H    0.023881
   113  H    0.018734
   114  H    0.018096
   115  H    0.000649
   116  H    0.019946
   117  H    0.024650
   118  H    0.009901
   119  H    0.018821
   120  H    0.010613
   121  H    0.027398
   122  H    0.013203
   123  H    0.012951
   124  H    0.035036
   125  H    0.015669
   126  H    0.017579
   127  H    0.028262
   128  H    0.013035
   129  H    0.022221
   130  H    0.016563
   131  H    0.016202
   132  H    0.006509
   133  H    0.024847
   134  H    0.025176
   135  H    0.002142
   136  H    0.024254
   137  H    0.024548
   138  H    0.013432
   139  H    0.020021
   140  H    0.011775
 Sum of Mulliken charges =  -0.00000

 Dipole moment (field-independent basis, Debye):
    X=              2.8339    Y=             -2.1818    Z=             -6.1865  Tot=              7.1459
 N-N= 4.374969710814D+03 E-N= 0.000000000000D+00  KE=-9.424573818381D+03
 Leave Link  601 at Wed May  4 12:51:55 2022, MaxMem=  6710886400 cpu:               0.8 elap:               0.1
 (Enter /sw/apps/gaussian-16.0/g16/l9999.exe)
 1\1\GINC-BP1-COMPUTE092\SP\RZINDO CIS\STO-3G\C55H74Mg1N4O6\OF15641\04-
 May-2022\0\\#p ZINDO=(nstates=5)\\step_1701_chromophore_24 ZINDO\\0,1\
 Mg,0,0.002,43.948,25.807\C,0,2.42,43.517,28.211\C,0,-2.376,42.951,28.0
 64\C,0,-2.128,43.94,23.187\C,0,2.594,44.607,23.539\N,0,0.06,43.262,27.
 917\C,0,1.109,43.314,28.696\C,0,0.698,43.242,30.103\C,0,-0.784,42.851,
 30.054\C,0,-1.09,43.,28.59\C,0,-1.023,41.438,30.593\C,0,1.052,44.492,3
 0.982\C,0,1.28,44.321,32.478\C,0,0.983,42.903,33.055\O,0,1.722,41.92,3

 Normal termination of Gaussian 16 at Wed May  4 12:51:56 2022.
