 Gaussian 16, Revision A.03,
 Gaussian 16:  ES64L-G16RevA.03 25-Dec-2016

 ------------------------------
 #p blyp/Def2SVP td=(nstates=5)
 ------------------------------

 ---------------------------------------------------
 step_1601_chromophore_15 TDDFT with blyp functional
 ---------------------------------------------------
 Symbolic Z-matrix:
 Charge =  0 Multiplicity = 1

                         Standard orientation:
 ---------------------------------------------------------------------
 Center     Atomic      Atomic             Coordinates (Angstroms)
 Number     Number       Type             X           Y           Z
 ---------------------------------------------------------------------
      1         12           0       -4.509167    0.907997    0.014282
      2          6           0       -4.423134   -2.433287    0.757734
      3          6           0       -1.108746    1.055702    0.376459
      4          6           0       -4.760745    4.207395   -0.149582
      5          6           0       -7.970296    0.789077    0.375145
      6          7           0       -2.993892   -0.522316    0.511907
      7          6           0       -3.138786   -1.821532    0.762423
      8          6           0       -1.732194   -2.584109    0.825679
      9          6           0       -0.778134   -1.336295    1.091079
     10          6           0       -1.659041   -0.172163    0.603727
     11          6           0       -0.324855   -1.145492    2.576412
     12          6           0       -1.484476   -3.459278   -0.498250
     13          6           0       -0.337661   -3.137164   -1.566306
     14          6           0        0.882560   -4.083640   -1.541467
     15          8           0        0.766530   -5.219262   -1.942813
     16          8           0        1.988429   -3.492105   -0.925062
     17          7           0       -3.130860    2.431893   -0.090210
     18          6           0       -1.754958    2.292219    0.005281
     19          6           0       -1.134308    3.581661   -0.286045
     20          6           0       -2.186877    4.506715   -0.378588
     21          6           0       -3.416133    3.726194   -0.192907
     22          6           0        0.363771    3.774138   -0.413262
     23          6           0       -2.140270    5.999161   -0.606850
     24          8           0       -3.073918    6.757946   -0.754025
     25          6           0       -0.749725    6.637458   -0.680983
     26          7           0       -6.132710    2.316927    0.208534
     27          6           0       -5.984654    3.594974    0.106099
     28          6           0       -7.290868    4.418404    0.051027
     29          6           0       -8.377992    3.322247    0.251442
     30          6           0       -7.453702    2.028093    0.423476
     31          6           0       -7.388451    5.510883    1.123421
     32          6           0       -9.552201    3.224083   -0.808833
     33          6           0      -11.009900    3.229941   -0.234346
     34          7           0       -5.952583   -0.529412    0.336586
     35          6           0       -7.299136   -0.498648    0.313006
     36          6           0       -7.843022   -1.849122    0.432718
     37          6           0       -6.759292   -2.647534    0.630531
     38          6           0       -5.649223   -1.766804    0.602096
     39          6           0       -9.280187   -2.162873    0.262084
     40          6           0       -6.316889   -4.017465    0.990203
     41          8           0       -6.904716   -5.033726    1.212886
     42          6           0       -4.796526   -3.895407    1.108533
     43          6           0       -4.181721   -4.892516    0.196622
     44          8           0       -4.573312   -4.952506   -0.999320
     45          8           0       -3.308661   -5.727606    0.780905
     46          6           0       -2.775837   -6.663680   -0.224129
     47          6           0        3.202449   -4.362060   -0.798822
     48          6           0        4.286182   -3.700216   -1.567822
     49          6           0        5.597728   -3.604107   -1.271359
     50          6           0        6.251583   -4.340946   -0.182202
     51          6           0        6.459193   -2.688035   -2.140158
     52          6           0        6.599665   -1.259833   -1.515430
     53          6           0        6.164465   -0.093750   -2.481456
     54          6           0        7.034149    1.173535   -2.091096
     55          6           0        6.021691    2.427770   -2.030548
     56          6           0        8.251882    1.443552   -3.028204
     57          6           0        9.623412    1.075098   -2.366097
     58          6           0       10.403632    2.324952   -1.873104
     59          6           0       10.697741    2.309020   -0.326070
     60          6           0       11.472736    3.621863    0.097689
     61          6           0       11.286553    1.009021    0.233881
     62          6           0       10.464333    0.281690    1.287697
     63          6           0       10.418972    1.087624    2.641059
     64          6           0       11.380363    0.351828    3.644605
     65          6           0       10.654172   -0.035779    4.904607
     66          6           0       12.503828    1.260932    3.972695
     67          1           0       -0.025803    1.184414    0.429136
     68          1           0       -4.936104    5.285550   -0.173688
     69          1           0       -9.061378    0.775514    0.397599
     70          1           0       -1.717641   -3.273460    1.669772
     71          1           0        0.154977   -1.313279    0.528721
     72          1           0        0.074794   -0.142498    2.722448
     73          1           0        0.447069   -1.871420    2.830163
     74          1           0       -1.249731   -1.233602    3.147015
     75          1           0       -2.373079   -3.552389   -1.122432
     76          1           0       -1.092141   -4.366033   -0.035590
     77          1           0       -0.003952   -2.103889   -1.665849
     78          1           0       -0.810457   -3.305853   -2.533982
     79          1           0        0.469695    4.010845   -1.471598
     80          1           0        0.939249    2.880555   -0.172538
     81          1           0        0.857287    4.574744    0.138065
     82          1           0       -0.209516    6.344828   -1.581432
     83          1           0       -0.194304    6.391488    0.223482
     84          1           0       -0.839829    7.722607   -0.630599
     85          1           0       -7.344418    4.877282   -0.936081
     86          1           0       -8.774239    3.441324    1.260222
     87          1           0       -6.551254    5.273648    1.780459
     88          1           0       -8.293945    5.543073    1.730541
     89          1           0       -7.241943    6.548635    0.824755
     90          1           0       -9.395080    2.320958   -1.398711
     91          1           0       -9.504601    4.127719   -1.417306
     92          1           0      -11.026596    3.538514    0.810815
     93          1           0      -11.497126    2.276205   -0.440581
     94          1           0      -11.665364    3.965174   -0.699910
     95          1           0       -9.647504   -1.473706   -0.498037
     96          1           0       -9.811168   -1.991248    1.198238
     97          1           0       -9.538759   -3.183822   -0.015739
     98          1           0       -4.336840   -4.160440    2.060858
     99          1           0       -1.764663   -6.885871    0.116536
    100          1           0       -2.574595   -6.243573   -1.209437
    101          1           0       -3.406755   -7.547971   -0.315896
    102          1           0        3.094035   -5.401801   -1.107443
    103          1           0        3.513453   -4.312138    0.244721
    104          1           0        3.918859   -3.061857   -2.370903
    105          1           0        7.062505   -5.041041   -0.383821
    106          1           0        5.570781   -4.964781    0.397074
    107          1           0        6.699515   -3.554261    0.425679
    108          1           0        6.066740   -2.536371   -3.145147
    109          1           0        7.454528   -3.127765   -2.201896
    110          1           0        7.635848   -1.052456   -1.248964
    111          1           0        5.965886   -1.221486   -0.629481
    112          1           0        5.080586    0.020476   -2.452827
    113          1           0        6.379074   -0.347869   -3.519513
    114          1           0        7.326243    1.009669   -1.054043
    115          1           0        5.750093    2.951968   -2.947463
    116          1           0        6.504498    3.138632   -1.360792
    117          1           0        5.091833    2.116100   -1.554460
    118          1           0        8.261459    2.524822   -3.166705
    119          1           0        7.989698    0.997335   -3.987493
    120          1           0       10.267672    0.595203   -3.102536
    121          1           0        9.448717    0.419914   -1.512457
    122          1           0       10.022902    3.262268   -2.281826
    123          1           0       11.417923    2.175990   -2.242415
    124          1           0        9.687652    2.426837    0.066528
    125          1           0       12.111808    3.879924   -0.746451
    126          1           0       12.013354    3.593759    1.043584
    127          1           0       10.705344    4.375261    0.271923
    128          1           0       12.289877    1.241229    0.590330
    129          1           0       11.459951    0.243336   -0.521872
    130          1           0       10.870820   -0.709586    1.489445
    131          1           0        9.474801    0.109349    0.864587
    132          1           0        9.384620    1.173728    2.973935
    133          1           0       10.700975    2.123788    2.454913
    134          1           0       11.813048   -0.593781    3.318389
    135          1           0       10.301229    0.852692    5.429230
    136          1           0       11.200221   -0.765844    5.501946
    137          1           0        9.751113   -0.519279    4.532959
    138          1           0       13.007098    1.528790    3.043431
    139          1           0       13.233280    0.756064    4.605861
    140          1           0       12.076459    2.140647    4.453774
 ---------------------------------------------------------------------

 SCF Done:  E(RB-LYP) =  -3007.38866819     A.U. after   20 cycles

 Excitation energies and oscillator strengths:

 Excited State   1:      Singlet-A      1.8755 eV  661.07 nm  f=0.3385  <S**2>=0.000
     245 -> 248       -0.18232
     246 -> 247        0.68819
     246 <- 247       -0.15218
 This state for optimization and/or second-order correction.
 Total Energy, E(TD-HF/TD-DFT) =  -3007.31974446
 Copying the excited state density for this state as the 1-particle RhoCI density.

 Excited State   2:      Singlet-A      1.9351 eV  640.70 nm  f=0.0071  <S**2>=0.000
     244 -> 247        0.69758

 Excited State   3:      Singlet-A      2.0659 eV  600.14 nm  f=0.0907  <S**2>=0.000
     245 -> 247        0.65081
     246 -> 248        0.23316

 Excited State   4:      Singlet-A      2.1818 eV  568.26 nm  f=0.0007  <S**2>=0.000
     243 -> 247        0.70614

 Excited State   5:      Singlet-A      2.4209 eV  512.15 nm  f=0.0001  <S**2>=0.000
     242 -> 247        0.70698

 The electronic state is 1-A.
 Alpha  occ. eigenvalues --  -46.26998 -18.83788 -18.83021 -18.77647 -18.76043
 Alpha  occ. eigenvalues --  -18.75709 -18.75440 -14.03623 -14.02595 -14.01103
 Alpha  occ. eigenvalues --  -14.00881 -10.04611 -10.03600  -9.99871  -9.99569
 Alpha  occ. eigenvalues --   -9.98339  -9.97416  -9.96915  -9.96157  -9.95745
 Alpha  occ. eigenvalues --   -9.95652  -9.95524  -9.95466  -9.95445  -9.95151
 Alpha  occ. eigenvalues --   -9.94193  -9.94176  -9.94116  -9.94111  -9.93756
 Alpha  occ. eigenvalues --   -9.93695  -9.93573  -9.93555  -9.93390  -9.93345
 Alpha  occ. eigenvalues --   -9.93177  -9.93176  -9.93062  -9.92898  -9.92797
 Alpha  occ. eigenvalues --   -9.92781  -9.92706  -9.92420  -9.92386  -9.92206
 Alpha  occ. eigenvalues --   -9.92204  -9.92077  -9.92073  -9.92014  -9.91923
 Alpha  occ. eigenvalues --   -9.91833  -9.91698  -9.91684  -9.91640  -9.91634
 Alpha  occ. eigenvalues --   -9.91628  -9.91566  -9.91456  -9.91362  -9.91305
 Alpha  occ. eigenvalues --   -9.91304  -9.91275  -9.91186  -9.90765  -9.90668
 Alpha  occ. eigenvalues --   -9.90510  -2.91766  -1.72186  -1.71635  -1.71496
 Alpha  occ. eigenvalues --   -0.98837  -0.97435  -0.92999  -0.91845  -0.90877
 Alpha  occ. eigenvalues --   -0.88408  -0.88227  -0.87086  -0.86375  -0.85615
 Alpha  occ. eigenvalues --   -0.75300  -0.74089  -0.73577  -0.72407  -0.72132
 Alpha  occ. eigenvalues --   -0.71762  -0.71527  -0.71171  -0.71030  -0.70785
 Alpha  occ. eigenvalues --   -0.70313  -0.68874  -0.68105  -0.67444  -0.67067
 Alpha  occ. eigenvalues --   -0.66536  -0.65841  -0.65371  -0.64800  -0.64298
 Alpha  occ. eigenvalues --   -0.63939  -0.62733  -0.62525  -0.61765  -0.60953
 Alpha  occ. eigenvalues --   -0.60645  -0.60532  -0.59982  -0.59852  -0.59226
 Alpha  occ. eigenvalues --   -0.58164  -0.57682  -0.56596  -0.55631  -0.54824
 Alpha  occ. eigenvalues --   -0.54188  -0.53967  -0.52701  -0.52364  -0.51804
 Alpha  occ. eigenvalues --   -0.51576  -0.51207  -0.50495  -0.50129  -0.50037
 Alpha  occ. eigenvalues --   -0.49579  -0.49532  -0.49055  -0.48625  -0.47023
 Alpha  occ. eigenvalues --   -0.46771  -0.46279  -0.45900  -0.45252  -0.44464
 Alpha  occ. eigenvalues --   -0.44210  -0.43644  -0.43186  -0.42838  -0.42613
 Alpha  occ. eigenvalues --   -0.42270  -0.42099  -0.41684  -0.41492  -0.41254
 Alpha  occ. eigenvalues --   -0.41038  -0.40816  -0.40467  -0.40018  -0.39934
 Alpha  occ. eigenvalues --   -0.39771  -0.39721  -0.39610  -0.39544  -0.39450
 Alpha  occ. eigenvalues --   -0.38952  -0.38898  -0.38754  -0.38393  -0.38128
 Alpha  occ. eigenvalues --   -0.38015  -0.37824  -0.37723  -0.37573  -0.37322
 Alpha  occ. eigenvalues --   -0.37150  -0.36992  -0.36692  -0.36596  -0.36412
 Alpha  occ. eigenvalues --   -0.36276  -0.36053  -0.35948  -0.35901  -0.35732
 Alpha  occ. eigenvalues --   -0.35371  -0.35239  -0.35069  -0.35022  -0.34842
 Alpha  occ. eigenvalues --   -0.34817  -0.34722  -0.34319  -0.34242  -0.34236
 Alpha  occ. eigenvalues --   -0.33983  -0.33922  -0.33789  -0.33516  -0.33344
 Alpha  occ. eigenvalues --   -0.33076  -0.33068  -0.32601  -0.32588  -0.32426
 Alpha  occ. eigenvalues --   -0.32212  -0.32105  -0.31914  -0.31730  -0.31627
 Alpha  occ. eigenvalues --   -0.31380  -0.31257  -0.31151  -0.31061  -0.30859
 Alpha  occ. eigenvalues --   -0.30645  -0.30537  -0.30500  -0.30348  -0.30012
 Alpha  occ. eigenvalues --   -0.29771  -0.29718  -0.29559  -0.29329  -0.28954
 Alpha  occ. eigenvalues --   -0.28817  -0.28638  -0.28606  -0.28590  -0.28310
 Alpha  occ. eigenvalues --   -0.27903  -0.27855  -0.27652  -0.27449  -0.26876
 Alpha  occ. eigenvalues --   -0.26837  -0.26409  -0.26263  -0.25914  -0.25817
 Alpha  occ. eigenvalues --   -0.25171  -0.25118  -0.24824  -0.24175  -0.23836
 Alpha  occ. eigenvalues --   -0.23723  -0.22630  -0.22260  -0.21417  -0.21035
 Alpha  occ. eigenvalues --   -0.20563  -0.20216  -0.19236  -0.18353  -0.17127
 Alpha  occ. eigenvalues --   -0.15716
 Alpha virt. eigenvalues --   -0.11320  -0.06164  -0.05650  -0.04426  -0.03427
 Alpha virt. eigenvalues --   -0.02968  -0.02636  -0.01862  -0.01080   0.00762
 Alpha virt. eigenvalues --    0.00945   0.01665   0.01837   0.02313   0.02608

 Mulliken charges:
               1
     1  Mg   0.724250
     2  C   -0.004565
     3  C   -0.074237
     4  C   -0.031037
     5  C   -0.083913
     6  N   -0.217677
     7  C   -0.107124
     8  C    0.047582
     9  C   -0.009416
    10  C    0.080760
    11  C    0.128791
    12  C    0.073144
    13  C    0.141840
    14  C    0.064715
    15  O   -0.179534
    16  O   -0.292907
    17  N   -0.276625
    18  C    0.081462
    19  C   -0.123433
    20  C    0.052075
    21  C    0.099048
    22  C    0.166399
    23  C   -0.089685
    24  O   -0.141453
    25  C    0.114285
    26  N   -0.180016
    27  C   -0.033519
    28  C   -0.007396
    29  C    0.070874
    30  C    0.009416
    31  C    0.107858
    32  C    0.103480
    33  C    0.045219
    34  N   -0.197424
    35  C    0.074146
    36  C   -0.193011
    37  C    0.048993
    38  C    0.065383
    39  C    0.175550
    40  C    0.015792
    41  O   -0.083813
    42  C    0.110586
    43  C    0.064441
    44  O   -0.241069
    45  O   -0.234672
    46  C    0.211471
    47  C    0.332598
    48  C   -0.118338
    49  C   -0.143007
    50  C    0.143612
    51  C    0.156315
    52  C    0.031067
    53  C    0.086156
    54  C   -0.110409
    55  C    0.065295
    56  C    0.154988
    57  C    0.071157
    58  C    0.069913
    59  C   -0.088302
    60  C    0.105194
    61  C    0.114209
    62  C    0.060930
    63  C    0.101970
    64  C   -0.070808
    65  C    0.106465
    66  C    0.117407
    67  H   -0.070638
    68  H   -0.054704
    69  H   -0.066824
    70  H   -0.033374
    71  H   -0.027300
    72  H   -0.012347
    73  H    0.001692
    74  H   -0.007146
    75  H    0.037583
    76  H    0.004750
    77  H   -0.012665
    78  H   -0.013271
    79  H    0.005333
    80  H   -0.017352
    81  H    0.001070
    82  H    0.007400
    83  H   -0.001866
    84  H   -0.017104
    85  H   -0.009015
    86  H   -0.033057
    87  H   -0.009884
    88  H   -0.010374
    89  H   -0.001832
    90  H   -0.007277
    91  H   -0.014294
    92  H   -0.006586
    93  H    0.000398
    94  H   -0.016407
    95  H   -0.002416
    96  H   -0.002006
    97  H    0.003918
    98  H   -0.024499
    99  H    0.010863
   100  H    0.029174
   101  H    0.029618
   102  H    0.019061
   103  H   -0.003587
   104  H   -0.040038
   105  H    0.000115
   106  H   -0.021471
   107  H   -0.008902
   108  H   -0.022661
   109  H   -0.039029
   110  H   -0.017034
   111  H   -0.013959
   112  H   -0.026811
   113  H   -0.036392
   114  H   -0.020595
   115  H   -0.005715
   116  H   -0.020841
   117  H   -0.022508
   118  H   -0.039001
   119  H   -0.031022
   120  H   -0.030142
   121  H   -0.006689
   122  H   -0.021005
   123  H   -0.039136
   124  H   -0.036947
   125  H   -0.011064
   126  H   -0.005954
   127  H   -0.020534
   128  H   -0.043916
   129  H   -0.041008
   130  H   -0.032111
   131  H   -0.036408
   132  H   -0.043333
   133  H   -0.034077
   134  H   -0.035062
   135  H   -0.021942
   136  H   -0.014552
   137  H   -0.029887
   138  H   -0.021476
   139  H   -0.026810
   140  H   -0.018570
 Sum of Mulliken charges =  -0.00000

 Dipole moment (field-independent basis, Debye):
    X=              5.0084    Y=              1.7729    Z=              0.9842  Tot=              5.4033
 Quadrupole moment (field-independent basis, Debye-Ang):
   XX=           -381.1162   YY=           -443.2658   ZZ=           -410.0672
   XY=            -35.0844   XZ=              0.5761   YZ=             -4.8862

 Normal termination of Gaussian 16 at Wed May  4 10:47:40 2022.
