 Gaussian 16, Revision A.03,
 Gaussian 16:  ES64L-G16RevA.03 25-Dec-2016

 -----------------------------------
 #p cam-b3lyp/Def2SVP td=(nstates=5)
 -----------------------------------

 --------------------------------------------------------
 step_1601_chromophore_15 TDDFT with cam-b3lyp functional
 --------------------------------------------------------
 Symbolic Z-matrix:
 Charge =  0 Multiplicity = 1

                         Standard orientation:
 ---------------------------------------------------------------------
 Center     Atomic      Atomic             Coordinates (Angstroms)
 Number     Number       Type             X           Y           Z
 ---------------------------------------------------------------------
      1         12           0       -4.509167    0.907997    0.014282
      2          6           0       -4.423134   -2.433287    0.757734
      3          6           0       -1.108746    1.055702    0.376459
      4          6           0       -4.760745    4.207395   -0.149582
      5          6           0       -7.970296    0.789077    0.375145
      6          7           0       -2.993892   -0.522316    0.511907
      7          6           0       -3.138786   -1.821532    0.762423
      8          6           0       -1.732194   -2.584109    0.825679
      9          6           0       -0.778134   -1.336295    1.091079
     10          6           0       -1.659041   -0.172163    0.603727
     11          6           0       -0.324855   -1.145492    2.576412
     12          6           0       -1.484476   -3.459278   -0.498250
     13          6           0       -0.337661   -3.137164   -1.566306
     14          6           0        0.882560   -4.083640   -1.541467
     15          8           0        0.766530   -5.219262   -1.942813
     16          8           0        1.988429   -3.492105   -0.925062
     17          7           0       -3.130860    2.431893   -0.090210
     18          6           0       -1.754958    2.292219    0.005281
     19          6           0       -1.134308    3.581661   -0.286045
     20          6           0       -2.186877    4.506715   -0.378588
     21          6           0       -3.416133    3.726194   -0.192907
     22          6           0        0.363771    3.774138   -0.413262
     23          6           0       -2.140270    5.999161   -0.606850
     24          8           0       -3.073918    6.757946   -0.754025
     25          6           0       -0.749725    6.637458   -0.680983
     26          7           0       -6.132710    2.316927    0.208534
     27          6           0       -5.984654    3.594974    0.106099
     28          6           0       -7.290868    4.418404    0.051027
     29          6           0       -8.377992    3.322247    0.251442
     30          6           0       -7.453702    2.028093    0.423476
     31          6           0       -7.388451    5.510883    1.123421
     32          6           0       -9.552201    3.224083   -0.808833
     33          6           0      -11.009900    3.229941   -0.234346
     34          7           0       -5.952583   -0.529412    0.336586
     35          6           0       -7.299136   -0.498648    0.313006
     36          6           0       -7.843022   -1.849122    0.432718
     37          6           0       -6.759292   -2.647534    0.630531
     38          6           0       -5.649223   -1.766804    0.602096
     39          6           0       -9.280187   -2.162873    0.262084
     40          6           0       -6.316889   -4.017465    0.990203
     41          8           0       -6.904716   -5.033726    1.212886
     42          6           0       -4.796526   -3.895407    1.108533
     43          6           0       -4.181721   -4.892516    0.196622
     44          8           0       -4.573312   -4.952506   -0.999320
     45          8           0       -3.308661   -5.727606    0.780905
     46          6           0       -2.775837   -6.663680   -0.224129
     47          6           0        3.202449   -4.362060   -0.798822
     48          6           0        4.286182   -3.700216   -1.567822
     49          6           0        5.597728   -3.604107   -1.271359
     50          6           0        6.251583   -4.340946   -0.182202
     51          6           0        6.459193   -2.688035   -2.140158
     52          6           0        6.599665   -1.259833   -1.515430
     53          6           0        6.164465   -0.093750   -2.481456
     54          6           0        7.034149    1.173535   -2.091096
     55          6           0        6.021691    2.427770   -2.030548
     56          6           0        8.251882    1.443552   -3.028204
     57          6           0        9.623412    1.075098   -2.366097
     58          6           0       10.403632    2.324952   -1.873104
     59          6           0       10.697741    2.309020   -0.326070
     60          6           0       11.472736    3.621863    0.097689
     61          6           0       11.286553    1.009021    0.233881
     62          6           0       10.464333    0.281690    1.287697
     63          6           0       10.418972    1.087624    2.641059
     64          6           0       11.380363    0.351828    3.644605
     65          6           0       10.654172   -0.035779    4.904607
     66          6           0       12.503828    1.260932    3.972695
     67          1           0       -0.025803    1.184414    0.429136
     68          1           0       -4.936104    5.285550   -0.173688
     69          1           0       -9.061378    0.775514    0.397599
     70          1           0       -1.717641   -3.273460    1.669772
     71          1           0        0.154977   -1.313279    0.528721
     72          1           0        0.074794   -0.142498    2.722448
     73          1           0        0.447069   -1.871420    2.830163
     74          1           0       -1.249731   -1.233602    3.147015
     75          1           0       -2.373079   -3.552389   -1.122432
     76          1           0       -1.092141   -4.366033   -0.035590
     77          1           0       -0.003952   -2.103889   -1.665849
     78          1           0       -0.810457   -3.305853   -2.533982
     79          1           0        0.469695    4.010845   -1.471598
     80          1           0        0.939249    2.880555   -0.172538
     81          1           0        0.857287    4.574744    0.138065
     82          1           0       -0.209516    6.344828   -1.581432
     83          1           0       -0.194304    6.391488    0.223482
     84          1           0       -0.839829    7.722607   -0.630599
     85          1           0       -7.344418    4.877282   -0.936081
     86          1           0       -8.774239    3.441324    1.260222
     87          1           0       -6.551254    5.273648    1.780459
     88          1           0       -8.293945    5.543073    1.730541
     89          1           0       -7.241943    6.548635    0.824755
     90          1           0       -9.395080    2.320958   -1.398711
     91          1           0       -9.504601    4.127719   -1.417306
     92          1           0      -11.026596    3.538514    0.810815
     93          1           0      -11.497126    2.276205   -0.440581
     94          1           0      -11.665364    3.965174   -0.699910
     95          1           0       -9.647504   -1.473706   -0.498037
     96          1           0       -9.811168   -1.991248    1.198238
     97          1           0       -9.538759   -3.183822   -0.015739
     98          1           0       -4.336840   -4.160440    2.060858
     99          1           0       -1.764663   -6.885871    0.116536
    100          1           0       -2.574595   -6.243573   -1.209437
    101          1           0       -3.406755   -7.547971   -0.315896
    102          1           0        3.094035   -5.401801   -1.107443
    103          1           0        3.513453   -4.312138    0.244721
    104          1           0        3.918859   -3.061857   -2.370903
    105          1           0        7.062505   -5.041041   -0.383821
    106          1           0        5.570781   -4.964781    0.397074
    107          1           0        6.699515   -3.554261    0.425679
    108          1           0        6.066740   -2.536371   -3.145147
    109          1           0        7.454528   -3.127765   -2.201896
    110          1           0        7.635848   -1.052456   -1.248964
    111          1           0        5.965886   -1.221486   -0.629481
    112          1           0        5.080586    0.020476   -2.452827
    113          1           0        6.379074   -0.347869   -3.519513
    114          1           0        7.326243    1.009669   -1.054043
    115          1           0        5.750093    2.951968   -2.947463
    116          1           0        6.504498    3.138632   -1.360792
    117          1           0        5.091833    2.116100   -1.554460
    118          1           0        8.261459    2.524822   -3.166705
    119          1           0        7.989698    0.997335   -3.987493
    120          1           0       10.267672    0.595203   -3.102536
    121          1           0        9.448717    0.419914   -1.512457
    122          1           0       10.022902    3.262268   -2.281826
    123          1           0       11.417923    2.175990   -2.242415
    124          1           0        9.687652    2.426837    0.066528
    125          1           0       12.111808    3.879924   -0.746451
    126          1           0       12.013354    3.593759    1.043584
    127          1           0       10.705344    4.375261    0.271923
    128          1           0       12.289877    1.241229    0.590330
    129          1           0       11.459951    0.243336   -0.521872
    130          1           0       10.870820   -0.709586    1.489445
    131          1           0        9.474801    0.109349    0.864587
    132          1           0        9.384620    1.173728    2.973935
    133          1           0       10.700975    2.123788    2.454913
    134          1           0       11.813048   -0.593781    3.318389
    135          1           0       10.301229    0.852692    5.429230
    136          1           0       11.200221   -0.765844    5.501946
    137          1           0        9.751113   -0.519279    4.532959
    138          1           0       13.007098    1.528790    3.043431
    139          1           0       13.233280    0.756064    4.605861
    140          1           0       12.076459    2.140647    4.453774
 ---------------------------------------------------------------------

 SCF Done:  E(RCAM-B3LYP) =  -3007.18955077     A.U. after   16 cycles

 Excitation energies and oscillator strengths:

 Excited State   1:      Singlet-A      1.7584 eV  705.09 nm  f=0.4136  <S**2>=0.000
     245 -> 248        0.17642
     246 -> 247        0.68558
     245 <- 248        0.10655
 This state for optimization and/or second-order correction.
 Total Energy, E(TD-HF/TD-DFT) =  -3007.12493002
 Copying the excited state density for this state as the 1-particle RhoCI density.

 Excited State   2:      Singlet-A      2.2649 eV  547.42 nm  f=0.1357  <S**2>=0.000
     245 -> 247        0.64645
     246 -> 248       -0.27519

 Excited State   3:      Singlet-A      3.6072 eV  343.71 nm  f=0.1148  <S**2>=0.000
     240 -> 247        0.10128
     242 -> 247        0.14979
     243 -> 247        0.57931
     245 -> 247        0.10841
     246 -> 248        0.31713

 Excited State   4:      Singlet-A      3.6335 eV  341.23 nm  f=0.0124  <S**2>=0.000
     242 -> 247        0.55448
     242 -> 249        0.26608
     242 -> 250        0.10617
     242 -> 251       -0.22759
     243 -> 247       -0.12416

 Excited State   5:      Singlet-A      3.6977 eV  335.30 nm  f=0.4668  <S**2>=0.000
     241 -> 247        0.29170
     243 -> 247       -0.31473
     245 -> 247        0.21203
     246 -> 248        0.49934

 The electronic state is 1-A.
 Alpha  occ. eigenvalues --  -46.88487 -19.26838 -19.25924 -19.20673 -19.19319
 Alpha  occ. eigenvalues --  -19.18758 -19.18694 -14.42526 -14.41353 -14.39573
 Alpha  occ. eigenvalues --  -14.39315 -10.39969 -10.39049 -10.35160 -10.34793
 Alpha  occ. eigenvalues --  -10.32462 -10.31447 -10.31441 -10.30554 -10.30074
 Alpha  occ. eigenvalues --  -10.30026 -10.29823 -10.29779 -10.29678 -10.29349
 Alpha  occ. eigenvalues --  -10.28845 -10.28324 -10.28181 -10.28173 -10.27886
 Alpha  occ. eigenvalues --  -10.27715 -10.27713 -10.27694 -10.27546 -10.27439
 Alpha  occ. eigenvalues --  -10.27313 -10.27219 -10.27050 -10.26907 -10.26780
 Alpha  occ. eigenvalues --  -10.26659 -10.26440 -10.26388 -10.26218 -10.26176
 Alpha  occ. eigenvalues --  -10.25967 -10.25806 -10.25741 -10.25640 -10.25637
 Alpha  occ. eigenvalues --  -10.25554 -10.25544 -10.25451 -10.25354 -10.25335
 Alpha  occ. eigenvalues --  -10.25319 -10.25312 -10.25289 -10.25282 -10.25182
 Alpha  occ. eigenvalues --  -10.25025 -10.24998 -10.24937 -10.24901 -10.24250
 Alpha  occ. eigenvalues --  -10.24085  -3.17165  -1.92060  -1.91606  -1.91493
 Alpha  occ. eigenvalues --   -1.17372  -1.15917  -1.11534  -1.10318  -1.08765
 Alpha  occ. eigenvalues --   -1.06314  -1.06016  -1.04748  -1.04051  -1.03167
 Alpha  occ. eigenvalues --   -0.92454  -0.91021  -0.90430  -0.89143  -0.88855
 Alpha  occ. eigenvalues --   -0.88386  -0.88169  -0.87803  -0.87677  -0.87407
 Alpha  occ. eigenvalues --   -0.86922  -0.85189  -0.84379  -0.83590  -0.83171
 Alpha  occ. eigenvalues --   -0.82577  -0.81827  -0.81268  -0.80786  -0.80139
 Alpha  occ. eigenvalues --   -0.79870  -0.78537  -0.78182  -0.77274  -0.76365
 Alpha  occ. eigenvalues --   -0.76030  -0.75931  -0.75249  -0.75182  -0.74470
 Alpha  occ. eigenvalues --   -0.73213  -0.72688  -0.71479  -0.70422  -0.69402
 Alpha  occ. eigenvalues --   -0.68791  -0.68544  -0.67221  -0.66755  -0.66065
 Alpha  occ. eigenvalues --   -0.65697  -0.65276  -0.64487  -0.64150  -0.64082
 Alpha  occ. eigenvalues --   -0.63608  -0.63326  -0.62899  -0.62484  -0.60549
 Alpha  occ. eigenvalues --   -0.60426  -0.59955  -0.59492  -0.58631  -0.57936
 Alpha  occ. eigenvalues --   -0.57668  -0.57262  -0.56326  -0.56084  -0.55907
 Alpha  occ. eigenvalues --   -0.55369  -0.55104  -0.54939  -0.54299  -0.54048
 Alpha  occ. eigenvalues --   -0.53963  -0.53792  -0.53536  -0.52959  -0.52587
 Alpha  occ. eigenvalues --   -0.52499  -0.52360  -0.52271  -0.52031  -0.51939
 Alpha  occ. eigenvalues --   -0.51844  -0.51517  -0.51098  -0.50950  -0.50514
 Alpha  occ. eigenvalues --   -0.50430  -0.50232  -0.50013  -0.49895  -0.49811
 Alpha  occ. eigenvalues --   -0.49431  -0.49309  -0.49179  -0.49014  -0.48697
 Alpha  occ. eigenvalues --   -0.48590  -0.48476  -0.48336  -0.48006  -0.47907
 Alpha  occ. eigenvalues --   -0.47653  -0.47331  -0.47274  -0.46856  -0.46798
 Alpha  occ. eigenvalues --   -0.46741  -0.46573  -0.46258  -0.46025  -0.45985
 Alpha  occ. eigenvalues --   -0.45944  -0.45666  -0.45559  -0.45299  -0.45167
 Alpha  occ. eigenvalues --   -0.44804  -0.44636  -0.44381  -0.44191  -0.44016
 Alpha  occ. eigenvalues --   -0.43928  -0.43676  -0.43446  -0.43359  -0.43134
 Alpha  occ. eigenvalues --   -0.43085  -0.42949  -0.42867  -0.42628  -0.42565
 Alpha  occ. eigenvalues --   -0.42385  -0.42096  -0.41871  -0.41606  -0.41300
 Alpha  occ. eigenvalues --   -0.41008  -0.40880  -0.40667  -0.40497  -0.39932
 Alpha  occ. eigenvalues --   -0.39885  -0.39758  -0.39564  -0.39531  -0.39357
 Alpha  occ. eigenvalues --   -0.38841  -0.38777  -0.38432  -0.38324  -0.38226
 Alpha  occ. eigenvalues --   -0.37610  -0.37238  -0.37079  -0.37031  -0.36831
 Alpha  occ. eigenvalues --   -0.36205  -0.35669  -0.35317  -0.34737  -0.34614
 Alpha  occ. eigenvalues --   -0.34476  -0.33509  -0.33102  -0.31358  -0.31277
 Alpha  occ. eigenvalues --   -0.30878  -0.30560  -0.30262  -0.29834  -0.23866
 Alpha  occ. eigenvalues --   -0.21043
 Alpha virt. eigenvalues --   -0.08429  -0.00889   0.00980   0.02419   0.02643
 Alpha virt. eigenvalues --    0.04386   0.04733   0.05638   0.06076   0.06502
 Alpha virt. eigenvalues --    0.07868   0.07965   0.08469   0.08648   0.09229

 Mulliken charges:
               1
     1  Mg   0.858819
     2  C   -0.031092
     3  C   -0.081212
     4  C   -0.047586
     5  C   -0.095346
     6  N   -0.288877
     7  C   -0.060193
     8  C    0.007563
     9  C   -0.065942
    10  C    0.088872
    11  C    0.077782
    12  C    0.016217
    13  C    0.077572
    14  C    0.144748
    15  O   -0.221066
    16  O   -0.358432
    17  N   -0.365409
    18  C    0.087727
    19  C   -0.131111
    20  C   -0.021393
    21  C    0.125136
    22  C    0.110797
    23  C   -0.005484
    24  O   -0.182065
    25  C    0.032556
    26  N   -0.254201
    27  C   -0.012946
    28  C   -0.060389
    29  C    0.014077
    30  C    0.035095
    31  C    0.048164
    32  C    0.041568
    33  C   -0.014064
    34  N   -0.288277
    35  C    0.078543
    36  C   -0.187745
    37  C   -0.022481
    38  C    0.093861
    39  C    0.119711
    40  C    0.115318
    41  O   -0.121969
    42  C    0.029539
    43  C    0.153528
    44  O   -0.278792
    45  O   -0.296242
    46  C    0.168391
    47  C    0.291471
    48  C   -0.130270
    49  C   -0.171564
    50  C    0.081677
    51  C    0.096073
    52  C   -0.016760
    53  C    0.038181
    54  C   -0.165387
    55  C    0.013481
    56  C    0.099614
    57  C    0.018568
    58  C    0.022784
    59  C   -0.140478
    60  C    0.048790
    61  C    0.052745
    62  C    0.012620
    63  C    0.042194
    64  C   -0.133224
    65  C    0.048508
    66  C    0.062626
    67  H   -0.036330
    68  H   -0.016149
    69  H   -0.032089
    70  H    0.003570
    71  H    0.007129
    72  H    0.012573
    73  H    0.025825
    74  H    0.015410
    75  H    0.065579
    76  H    0.032310
    77  H    0.019187
    78  H    0.021478
    79  H    0.031378
    80  H    0.010321
    81  H    0.027704
    82  H    0.034689
    83  H    0.024429
    84  H    0.018966
    85  H    0.025529
    86  H    0.002327
    87  H    0.016273
    88  H    0.014776
    89  H    0.023308
    90  H    0.022117
    91  H    0.014508
    92  H    0.015921
    93  H    0.022061
    94  H    0.008642
    95  H    0.020895
    96  H    0.024955
    97  H    0.032221
    98  H    0.021628
    99  H    0.033688
   100  H    0.054519
   101  H    0.054335
   102  H    0.052600
   103  H    0.024145
   104  H   -0.007458
   105  H    0.026469
   106  H    0.003104
   107  H    0.014268
   108  H    0.008351
   109  H   -0.007430
   110  H    0.006106
   111  H    0.013295
   112  H    0.001240
   113  H   -0.009544
   114  H    0.007651
   115  H    0.016991
   116  H    0.001989
   117  H    0.000435
   118  H   -0.009530
   119  H   -0.001875
   120  H    0.001152
   121  H    0.011149
   122  H    0.007022
   123  H   -0.010717
   124  H   -0.008785
   125  H    0.012459
   126  H    0.015307
   127  H    0.004416
   128  H   -0.014807
   129  H   -0.009694
   130  H   -0.002383
   131  H   -0.011917
   132  H   -0.011352
   133  H   -0.007010
   134  H   -0.004302
   135  H    0.001575
   136  H    0.010593
   137  H   -0.005268
   138  H   -0.000154
   139  H   -0.000876
   140  H    0.004182
 Sum of Mulliken charges =  -0.00000

 Dipole moment (field-independent basis, Debye):
    X=              5.4345    Y=              2.1046    Z=              1.0273  Tot=              5.9177
 Quadrupole moment (field-independent basis, Debye-Ang):
   XX=           -381.0239   YY=           -440.4633   ZZ=           -410.2298
   XY=            -35.8657   XZ=              0.4685   YZ=             -5.5047

 Normal termination of Gaussian 16 at Wed May  4 09:47:20 2022.
