 Gaussian 16, Revision A.03,
 Gaussian 16:  ES64L-G16RevA.03 25-Dec-2016

 ---------------------------------
 #p PBE1PBE/Def2SVP td=(nstates=5)
 ---------------------------------

 ------------------------------------------------------
 step_1601_chromophore_15 TDDFT with PBE1PBE functional
 ------------------------------------------------------
 Symbolic Z-matrix:
 Charge =  0 Multiplicity = 1

                         Standard orientation:
 ---------------------------------------------------------------------
 Center     Atomic      Atomic             Coordinates (Angstroms)
 Number     Number       Type             X           Y           Z
 ---------------------------------------------------------------------
      1         12           0       -4.509167    0.907997    0.014282
      2          6           0       -4.423134   -2.433287    0.757734
      3          6           0       -1.108746    1.055702    0.376459
      4          6           0       -4.760745    4.207395   -0.149582
      5          6           0       -7.970296    0.789077    0.375145
      6          7           0       -2.993892   -0.522316    0.511907
      7          6           0       -3.138786   -1.821532    0.762423
      8          6           0       -1.732194   -2.584109    0.825679
      9          6           0       -0.778134   -1.336295    1.091079
     10          6           0       -1.659041   -0.172163    0.603727
     11          6           0       -0.324855   -1.145492    2.576412
     12          6           0       -1.484476   -3.459278   -0.498250
     13          6           0       -0.337661   -3.137164   -1.566306
     14          6           0        0.882560   -4.083640   -1.541467
     15          8           0        0.766530   -5.219262   -1.942813
     16          8           0        1.988429   -3.492105   -0.925062
     17          7           0       -3.130860    2.431893   -0.090210
     18          6           0       -1.754958    2.292219    0.005281
     19          6           0       -1.134308    3.581661   -0.286045
     20          6           0       -2.186877    4.506715   -0.378588
     21          6           0       -3.416133    3.726194   -0.192907
     22          6           0        0.363771    3.774138   -0.413262
     23          6           0       -2.140270    5.999161   -0.606850
     24          8           0       -3.073918    6.757946   -0.754025
     25          6           0       -0.749725    6.637458   -0.680983
     26          7           0       -6.132710    2.316927    0.208534
     27          6           0       -5.984654    3.594974    0.106099
     28          6           0       -7.290868    4.418404    0.051027
     29          6           0       -8.377992    3.322247    0.251442
     30          6           0       -7.453702    2.028093    0.423476
     31          6           0       -7.388451    5.510883    1.123421
     32          6           0       -9.552201    3.224083   -0.808833
     33          6           0      -11.009900    3.229941   -0.234346
     34          7           0       -5.952583   -0.529412    0.336586
     35          6           0       -7.299136   -0.498648    0.313006
     36          6           0       -7.843022   -1.849122    0.432718
     37          6           0       -6.759292   -2.647534    0.630531
     38          6           0       -5.649223   -1.766804    0.602096
     39          6           0       -9.280187   -2.162873    0.262084
     40          6           0       -6.316889   -4.017465    0.990203
     41          8           0       -6.904716   -5.033726    1.212886
     42          6           0       -4.796526   -3.895407    1.108533
     43          6           0       -4.181721   -4.892516    0.196622
     44          8           0       -4.573312   -4.952506   -0.999320
     45          8           0       -3.308661   -5.727606    0.780905
     46          6           0       -2.775837   -6.663680   -0.224129
     47          6           0        3.202449   -4.362060   -0.798822
     48          6           0        4.286182   -3.700216   -1.567822
     49          6           0        5.597728   -3.604107   -1.271359
     50          6           0        6.251583   -4.340946   -0.182202
     51          6           0        6.459193   -2.688035   -2.140158
     52          6           0        6.599665   -1.259833   -1.515430
     53          6           0        6.164465   -0.093750   -2.481456
     54          6           0        7.034149    1.173535   -2.091096
     55          6           0        6.021691    2.427770   -2.030548
     56          6           0        8.251882    1.443552   -3.028204
     57          6           0        9.623412    1.075098   -2.366097
     58          6           0       10.403632    2.324952   -1.873104
     59          6           0       10.697741    2.309020   -0.326070
     60          6           0       11.472736    3.621863    0.097689
     61          6           0       11.286553    1.009021    0.233881
     62          6           0       10.464333    0.281690    1.287697
     63          6           0       10.418972    1.087624    2.641059
     64          6           0       11.380363    0.351828    3.644605
     65          6           0       10.654172   -0.035779    4.904607
     66          6           0       12.503828    1.260932    3.972695
     67          1           0       -0.025803    1.184414    0.429136
     68          1           0       -4.936104    5.285550   -0.173688
     69          1           0       -9.061378    0.775514    0.397599
     70          1           0       -1.717641   -3.273460    1.669772
     71          1           0        0.154977   -1.313279    0.528721
     72          1           0        0.074794   -0.142498    2.722448
     73          1           0        0.447069   -1.871420    2.830163
     74          1           0       -1.249731   -1.233602    3.147015
     75          1           0       -2.373079   -3.552389   -1.122432
     76          1           0       -1.092141   -4.366033   -0.035590
     77          1           0       -0.003952   -2.103889   -1.665849
     78          1           0       -0.810457   -3.305853   -2.533982
     79          1           0        0.469695    4.010845   -1.471598
     80          1           0        0.939249    2.880555   -0.172538
     81          1           0        0.857287    4.574744    0.138065
     82          1           0       -0.209516    6.344828   -1.581432
     83          1           0       -0.194304    6.391488    0.223482
     84          1           0       -0.839829    7.722607   -0.630599
     85          1           0       -7.344418    4.877282   -0.936081
     86          1           0       -8.774239    3.441324    1.260222
     87          1           0       -6.551254    5.273648    1.780459
     88          1           0       -8.293945    5.543073    1.730541
     89          1           0       -7.241943    6.548635    0.824755
     90          1           0       -9.395080    2.320958   -1.398711
     91          1           0       -9.504601    4.127719   -1.417306
     92          1           0      -11.026596    3.538514    0.810815
     93          1           0      -11.497126    2.276205   -0.440581
     94          1           0      -11.665364    3.965174   -0.699910
     95          1           0       -9.647504   -1.473706   -0.498037
     96          1           0       -9.811168   -1.991248    1.198238
     97          1           0       -9.538759   -3.183822   -0.015739
     98          1           0       -4.336840   -4.160440    2.060858
     99          1           0       -1.764663   -6.885871    0.116536
    100          1           0       -2.574595   -6.243573   -1.209437
    101          1           0       -3.406755   -7.547971   -0.315896
    102          1           0        3.094035   -5.401801   -1.107443
    103          1           0        3.513453   -4.312138    0.244721
    104          1           0        3.918859   -3.061857   -2.370903
    105          1           0        7.062505   -5.041041   -0.383821
    106          1           0        5.570781   -4.964781    0.397074
    107          1           0        6.699515   -3.554261    0.425679
    108          1           0        6.066740   -2.536371   -3.145147
    109          1           0        7.454528   -3.127765   -2.201896
    110          1           0        7.635848   -1.052456   -1.248964
    111          1           0        5.965886   -1.221486   -0.629481
    112          1           0        5.080586    0.020476   -2.452827
    113          1           0        6.379074   -0.347869   -3.519513
    114          1           0        7.326243    1.009669   -1.054043
    115          1           0        5.750093    2.951968   -2.947463
    116          1           0        6.504498    3.138632   -1.360792
    117          1           0        5.091833    2.116100   -1.554460
    118          1           0        8.261459    2.524822   -3.166705
    119          1           0        7.989698    0.997335   -3.987493
    120          1           0       10.267672    0.595203   -3.102536
    121          1           0        9.448717    0.419914   -1.512457
    122          1           0       10.022902    3.262268   -2.281826
    123          1           0       11.417923    2.175990   -2.242415
    124          1           0        9.687652    2.426837    0.066528
    125          1           0       12.111808    3.879924   -0.746451
    126          1           0       12.013354    3.593759    1.043584
    127          1           0       10.705344    4.375261    0.271923
    128          1           0       12.289877    1.241229    0.590330
    129          1           0       11.459951    0.243336   -0.521872
    130          1           0       10.870820   -0.709586    1.489445
    131          1           0        9.474801    0.109349    0.864587
    132          1           0        9.384620    1.173728    2.973935
    133          1           0       10.700975    2.123788    2.454913
    134          1           0       11.813048   -0.593781    3.318389
    135          1           0       10.301229    0.852692    5.429230
    136          1           0       11.200221   -0.765844    5.501946
    137          1           0        9.751113   -0.519279    4.532959
    138          1           0       13.007098    1.528790    3.043431
    139          1           0       13.233280    0.756064    4.605861
    140          1           0       12.076459    2.140647    4.453774
 ---------------------------------------------------------------------

 SCF Done:  E(RPBE1PBE) =  -3005.37630832     A.U. after   15 cycles

 Excitation energies and oscillator strengths:

 Excited State   1:      Singlet-A      1.9174 eV  646.63 nm  f=0.4048  <S**2>=0.000
     245 -> 248        0.17102
     246 -> 247        0.69325
     246 <- 247       -0.11093
 This state for optimization and/or second-order correction.
 Total Energy, E(TD-HF/TD-DFT) =  -3005.30584556
 Copying the excited state density for this state as the 1-particle RhoCI density.

 Excited State   2:      Singlet-A      2.2782 eV  544.22 nm  f=0.1291  <S**2>=0.000
     245 -> 247        0.65697
     246 -> 248       -0.25299

 Excited State   3:      Singlet-A      3.0569 eV  405.59 nm  f=0.0000  <S**2>=0.000
     243 -> 247        0.68002
     243 -> 249        0.13626
     243 -> 250       -0.11419

 Excited State   4:      Singlet-A      3.2591 eV  380.42 nm  f=0.0001  <S**2>=0.000
     241 -> 247        0.67281
     241 -> 249       -0.17330

 Excited State   5:      Singlet-A      3.2981 eV  375.93 nm  f=0.0040  <S**2>=0.000
     242 -> 247        0.68286

 The electronic state is 1-A.
 Alpha  occ. eigenvalues --  -46.91914 -19.27444 -19.26655 -19.20951 -19.19514
 Alpha  occ. eigenvalues --  -19.19052 -19.18875 -14.42021 -14.40851 -14.39217
 Alpha  occ. eigenvalues --  -14.38923 -10.37023 -10.36104 -10.32302 -10.31899
 Alpha  occ. eigenvalues --  -10.29856 -10.29214 -10.28678 -10.28298 -10.27820
 Alpha  occ. eigenvalues --  -10.27690 -10.27594 -10.27458 -10.27457 -10.27185
 Alpha  occ. eigenvalues --  -10.26494 -10.26011 -10.25999 -10.25840 -10.25713
 Alpha  occ. eigenvalues --  -10.25598 -10.25331 -10.25254 -10.25237 -10.25229
 Alpha  occ. eigenvalues --  -10.24852 -10.24738 -10.24669 -10.24571 -10.24487
 Alpha  occ. eigenvalues --  -10.24428 -10.23892 -10.23866 -10.23862 -10.23806
 Alpha  occ. eigenvalues --  -10.23521 -10.23394 -10.23207 -10.23172 -10.23144
 Alpha  occ. eigenvalues --  -10.23098 -10.23066 -10.23061 -10.22988 -10.22941
 Alpha  occ. eigenvalues --  -10.22930 -10.22894 -10.22808 -10.22771 -10.22618
 Alpha  occ. eigenvalues --  -10.22582 -10.22490 -10.22442 -10.22439 -10.21619
 Alpha  occ. eigenvalues --  -10.21441  -3.14166  -1.87003  -1.86527  -1.86417
 Alpha  occ. eigenvalues --   -1.12148  -1.10722  -1.06289  -1.05036  -1.03658
 Alpha  occ. eigenvalues --   -1.01091  -1.00762  -0.99422  -0.98681  -0.97857
 Alpha  occ. eigenvalues --   -0.86811  -0.85153  -0.84502  -0.83244  -0.83168
 Alpha  occ. eigenvalues --   -0.82653  -0.82438  -0.82069  -0.81844  -0.81716
 Alpha  occ. eigenvalues --   -0.81241  -0.79414  -0.78570  -0.77873  -0.77395
 Alpha  occ. eigenvalues --   -0.76816  -0.76081  -0.75494  -0.75046  -0.74285
 Alpha  occ. eigenvalues --   -0.74128  -0.72794  -0.72436  -0.71606  -0.70701
 Alpha  occ. eigenvalues --   -0.70209  -0.70012  -0.69604  -0.69303  -0.68650
 Alpha  occ. eigenvalues --   -0.67598  -0.67070  -0.65851  -0.64815  -0.63798
 Alpha  occ. eigenvalues --   -0.63272  -0.62777  -0.61647  -0.60991  -0.60325
 Alpha  occ. eigenvalues --   -0.60073  -0.59757  -0.59035  -0.58705  -0.58270
 Alpha  occ. eigenvalues --   -0.57826  -0.57756  -0.57464  -0.56666  -0.54982
 Alpha  occ. eigenvalues --   -0.54908  -0.54474  -0.54077  -0.53207  -0.52498
 Alpha  occ. eigenvalues --   -0.52099  -0.51685  -0.50891  -0.50578  -0.50434
 Alpha  occ. eigenvalues --   -0.49872  -0.49600  -0.49409  -0.48765  -0.48581
 Alpha  occ. eigenvalues --   -0.48453  -0.48383  -0.48010  -0.47650  -0.47167
 Alpha  occ. eigenvalues --   -0.46929  -0.46804  -0.46752  -0.46607  -0.46413
 Alpha  occ. eigenvalues --   -0.46397  -0.46104  -0.45617  -0.45564  -0.45083
 Alpha  occ. eigenvalues --   -0.45027  -0.44760  -0.44615  -0.44476  -0.44382
 Alpha  occ. eigenvalues --   -0.44013  -0.43857  -0.43754  -0.43653  -0.43330
 Alpha  occ. eigenvalues --   -0.43178  -0.43044  -0.42916  -0.42636  -0.42484
 Alpha  occ. eigenvalues --   -0.42297  -0.42029  -0.41935  -0.41501  -0.41478
 Alpha  occ. eigenvalues --   -0.41409  -0.41261  -0.41004  -0.40691  -0.40646
 Alpha  occ. eigenvalues --   -0.40507  -0.40406  -0.40231  -0.40077  -0.39929
 Alpha  occ. eigenvalues --   -0.39630  -0.39317  -0.39171  -0.39036  -0.38778
 Alpha  occ. eigenvalues --   -0.38704  -0.38424  -0.38210  -0.38134  -0.37888
 Alpha  occ. eigenvalues --   -0.37774  -0.37692  -0.37599  -0.37443  -0.37346
 Alpha  occ. eigenvalues --   -0.37194  -0.36897  -0.36751  -0.36453  -0.36170
 Alpha  occ. eigenvalues --   -0.35857  -0.35680  -0.35491  -0.35359  -0.34842
 Alpha  occ. eigenvalues --   -0.34697  -0.34637  -0.34349  -0.34345  -0.34268
 Alpha  occ. eigenvalues --   -0.33795  -0.33609  -0.33301  -0.33228  -0.33158
 Alpha  occ. eigenvalues --   -0.32472  -0.32190  -0.32068  -0.31954  -0.31911
 Alpha  occ. eigenvalues --   -0.31272  -0.30532  -0.30297  -0.29880  -0.29523
 Alpha  occ. eigenvalues --   -0.29417  -0.28811  -0.28225  -0.26855  -0.26491
 Alpha  occ. eigenvalues --   -0.26196  -0.25883  -0.25315  -0.25153  -0.20799
 Alpha  occ. eigenvalues --   -0.18668
 Alpha virt. eigenvalues --   -0.10902  -0.04442  -0.03297  -0.01818  -0.00348
 Alpha virt. eigenvalues --   -0.00282   0.00145   0.01169   0.01758   0.03355
 Alpha virt. eigenvalues --    0.03858   0.04581   0.04672   0.05204   0.05553

 Mulliken charges:
               1
     1  Mg   1.008377
     2  C   -0.034487
     3  C   -0.073119
     4  C   -0.035920
     5  C   -0.099493
     6  N   -0.396590
     7  C    0.022175
     8  C   -0.051578
     9  C   -0.143953
    10  C    0.117072
    11  C    0.020165
    12  C   -0.034843
    13  C    0.004044
    14  C    0.207792
    15  O   -0.252017
    16  O   -0.385854
    17  N   -0.483953
    18  C    0.116893
    19  C   -0.161967
    20  C   -0.073100
    21  C    0.161097
    22  C    0.053233
    23  C    0.050702
    24  O   -0.221151
    25  C   -0.043256
    26  N   -0.362268
    27  C    0.024121
    28  C   -0.139076
    29  C   -0.054649
    30  C    0.078351
    31  C   -0.007146
    32  C   -0.026440
    33  C   -0.083349
    34  N   -0.420931
    35  C    0.104664
    36  C   -0.212110
    37  C   -0.059938
    38  C    0.132160
    39  C    0.066859
    40  C    0.215799
    41  O   -0.171195
    42  C   -0.088055
    43  C    0.245320
    44  O   -0.308115
    45  O   -0.329925
    46  C    0.110967
    47  C    0.243036
    48  C   -0.129502
    49  C   -0.229996
    50  C    0.023088
    51  C    0.034275
    52  C   -0.087760
    53  C   -0.006266
    54  C   -0.254891
    55  C   -0.048703
    56  C    0.048069
    57  C   -0.052476
    58  C   -0.028190
    59  C   -0.223524
    60  C   -0.013970
    61  C   -0.006015
    62  C   -0.058280
    63  C   -0.010054
    64  C   -0.229524
    65  C   -0.012512
    66  C   -0.000957
    67  H   -0.003976
    68  H    0.016553
    69  H    0.002502
    70  H    0.039621
    71  H    0.043857
    72  H    0.041283
    73  H    0.053905
    74  H    0.044098
    75  H    0.095547
    76  H    0.067711
    77  H    0.049514
    78  H    0.055403
    79  H    0.060314
    80  H    0.037258
    81  H    0.053484
    82  H    0.061404
    83  H    0.051517
    84  H    0.047133
    85  H    0.061594
    86  H    0.041134
    87  H    0.045226
    88  H    0.041702
    89  H    0.050259
    90  H    0.054582
    91  H    0.048092
    92  H    0.042642
    93  H    0.048517
    94  H    0.036644
    95  H    0.047296
    96  H    0.053449
    97  H    0.059740
    98  H    0.059256
    99  H    0.054496
   100  H    0.075982
   101  H    0.077124
   102  H    0.078755
   103  H    0.051337
   104  H    0.022769
   105  H    0.053304
   106  H    0.029421
   107  H    0.042778
   108  H    0.039878
   109  H    0.026093
   110  H    0.044301
   111  H    0.046837
   112  H    0.032207
   113  H    0.022269
   114  H    0.047694
   115  H    0.044091
   116  H    0.031271
   117  H    0.028414
   118  H    0.024639
   119  H    0.029060
   120  H    0.034369
   121  H    0.048077
   122  H    0.036730
   123  H    0.024020
   124  H    0.032045
   125  H    0.039791
   126  H    0.041090
   127  H    0.032646
   128  H    0.020867
   129  H    0.023055
   130  H    0.030221
   131  H    0.022278
   132  H    0.020258
   133  H    0.028744
   134  H    0.032075
   135  H    0.029230
   136  H    0.038336
   137  H    0.024763
   138  H    0.030445
   139  H    0.027800
   140  H    0.032023
 Sum of Mulliken charges =  -0.00000

 Dipole moment (field-independent basis, Debye):
    X=              5.3368    Y=              2.1538    Z=              1.0357  Tot=              5.8475
 Quadrupole moment (field-independent basis, Debye-Ang):
   XX=           -375.0875   YY=           -437.7451   ZZ=           -407.9260
   XY=            -36.7472   XZ=              0.8555   YZ=             -5.6569

 Normal termination of Gaussian 16 at Wed May  4 10:06:00 2022.
