 Gaussian 16, Revision A.03,
 Gaussian 16:  ES64L-G16RevA.03 25-Dec-2016

 --------------------------------
 #p wB97XD/Def2SVP td=(nstates=5)
 --------------------------------

 -----------------------------------------------------
 step_1601_chromophore_15 TDDFT with wB97XD functional
 -----------------------------------------------------
 Symbolic Z-matrix:
 Charge =  0 Multiplicity = 1

                         Standard orientation:
 ---------------------------------------------------------------------
 Center     Atomic      Atomic             Coordinates (Angstroms)
 Number     Number       Type             X           Y           Z
 ---------------------------------------------------------------------
      1         12           0       -4.509167    0.907997    0.014282
      2          6           0       -4.423134   -2.433287    0.757734
      3          6           0       -1.108746    1.055702    0.376459
      4          6           0       -4.760745    4.207395   -0.149582
      5          6           0       -7.970296    0.789077    0.375145
      6          7           0       -2.993892   -0.522316    0.511907
      7          6           0       -3.138786   -1.821532    0.762423
      8          6           0       -1.732194   -2.584109    0.825679
      9          6           0       -0.778134   -1.336295    1.091079
     10          6           0       -1.659041   -0.172163    0.603727
     11          6           0       -0.324855   -1.145492    2.576412
     12          6           0       -1.484476   -3.459278   -0.498250
     13          6           0       -0.337661   -3.137164   -1.566306
     14          6           0        0.882560   -4.083640   -1.541467
     15          8           0        0.766530   -5.219262   -1.942813
     16          8           0        1.988429   -3.492105   -0.925062
     17          7           0       -3.130860    2.431893   -0.090210
     18          6           0       -1.754958    2.292219    0.005281
     19          6           0       -1.134308    3.581661   -0.286045
     20          6           0       -2.186877    4.506715   -0.378588
     21          6           0       -3.416133    3.726194   -0.192907
     22          6           0        0.363771    3.774138   -0.413262
     23          6           0       -2.140270    5.999161   -0.606850
     24          8           0       -3.073918    6.757946   -0.754025
     25          6           0       -0.749725    6.637458   -0.680983
     26          7           0       -6.132710    2.316927    0.208534
     27          6           0       -5.984654    3.594974    0.106099
     28          6           0       -7.290868    4.418404    0.051027
     29          6           0       -8.377992    3.322247    0.251442
     30          6           0       -7.453702    2.028093    0.423476
     31          6           0       -7.388451    5.510883    1.123421
     32          6           0       -9.552201    3.224083   -0.808833
     33          6           0      -11.009900    3.229941   -0.234346
     34          7           0       -5.952583   -0.529412    0.336586
     35          6           0       -7.299136   -0.498648    0.313006
     36          6           0       -7.843022   -1.849122    0.432718
     37          6           0       -6.759292   -2.647534    0.630531
     38          6           0       -5.649223   -1.766804    0.602096
     39          6           0       -9.280187   -2.162873    0.262084
     40          6           0       -6.316889   -4.017465    0.990203
     41          8           0       -6.904716   -5.033726    1.212886
     42          6           0       -4.796526   -3.895407    1.108533
     43          6           0       -4.181721   -4.892516    0.196622
     44          8           0       -4.573312   -4.952506   -0.999320
     45          8           0       -3.308661   -5.727606    0.780905
     46          6           0       -2.775837   -6.663680   -0.224129
     47          6           0        3.202449   -4.362060   -0.798822
     48          6           0        4.286182   -3.700216   -1.567822
     49          6           0        5.597728   -3.604107   -1.271359
     50          6           0        6.251583   -4.340946   -0.182202
     51          6           0        6.459193   -2.688035   -2.140158
     52          6           0        6.599665   -1.259833   -1.515430
     53          6           0        6.164465   -0.093750   -2.481456
     54          6           0        7.034149    1.173535   -2.091096
     55          6           0        6.021691    2.427770   -2.030548
     56          6           0        8.251882    1.443552   -3.028204
     57          6           0        9.623412    1.075098   -2.366097
     58          6           0       10.403632    2.324952   -1.873104
     59          6           0       10.697741    2.309020   -0.326070
     60          6           0       11.472736    3.621863    0.097689
     61          6           0       11.286553    1.009021    0.233881
     62          6           0       10.464333    0.281690    1.287697
     63          6           0       10.418972    1.087624    2.641059
     64          6           0       11.380363    0.351828    3.644605
     65          6           0       10.654172   -0.035779    4.904607
     66          6           0       12.503828    1.260932    3.972695
     67          1           0       -0.025803    1.184414    0.429136
     68          1           0       -4.936104    5.285550   -0.173688
     69          1           0       -9.061378    0.775514    0.397599
     70          1           0       -1.717641   -3.273460    1.669772
     71          1           0        0.154977   -1.313279    0.528721
     72          1           0        0.074794   -0.142498    2.722448
     73          1           0        0.447069   -1.871420    2.830163
     74          1           0       -1.249731   -1.233602    3.147015
     75          1           0       -2.373079   -3.552389   -1.122432
     76          1           0       -1.092141   -4.366033   -0.035590
     77          1           0       -0.003952   -2.103889   -1.665849
     78          1           0       -0.810457   -3.305853   -2.533982
     79          1           0        0.469695    4.010845   -1.471598
     80          1           0        0.939249    2.880555   -0.172538
     81          1           0        0.857287    4.574744    0.138065
     82          1           0       -0.209516    6.344828   -1.581432
     83          1           0       -0.194304    6.391488    0.223482
     84          1           0       -0.839829    7.722607   -0.630599
     85          1           0       -7.344418    4.877282   -0.936081
     86          1           0       -8.774239    3.441324    1.260222
     87          1           0       -6.551254    5.273648    1.780459
     88          1           0       -8.293945    5.543073    1.730541
     89          1           0       -7.241943    6.548635    0.824755
     90          1           0       -9.395080    2.320958   -1.398711
     91          1           0       -9.504601    4.127719   -1.417306
     92          1           0      -11.026596    3.538514    0.810815
     93          1           0      -11.497126    2.276205   -0.440581
     94          1           0      -11.665364    3.965174   -0.699910
     95          1           0       -9.647504   -1.473706   -0.498037
     96          1           0       -9.811168   -1.991248    1.198238
     97          1           0       -9.538759   -3.183822   -0.015739
     98          1           0       -4.336840   -4.160440    2.060858
     99          1           0       -1.764663   -6.885871    0.116536
    100          1           0       -2.574595   -6.243573   -1.209437
    101          1           0       -3.406755   -7.547971   -0.315896
    102          1           0        3.094035   -5.401801   -1.107443
    103          1           0        3.513453   -4.312138    0.244721
    104          1           0        3.918859   -3.061857   -2.370903
    105          1           0        7.062505   -5.041041   -0.383821
    106          1           0        5.570781   -4.964781    0.397074
    107          1           0        6.699515   -3.554261    0.425679
    108          1           0        6.066740   -2.536371   -3.145147
    109          1           0        7.454528   -3.127765   -2.201896
    110          1           0        7.635848   -1.052456   -1.248964
    111          1           0        5.965886   -1.221486   -0.629481
    112          1           0        5.080586    0.020476   -2.452827
    113          1           0        6.379074   -0.347869   -3.519513
    114          1           0        7.326243    1.009669   -1.054043
    115          1           0        5.750093    2.951968   -2.947463
    116          1           0        6.504498    3.138632   -1.360792
    117          1           0        5.091833    2.116100   -1.554460
    118          1           0        8.261459    2.524822   -3.166705
    119          1           0        7.989698    0.997335   -3.987493
    120          1           0       10.267672    0.595203   -3.102536
    121          1           0        9.448717    0.419914   -1.512457
    122          1           0       10.022902    3.262268   -2.281826
    123          1           0       11.417923    2.175990   -2.242415
    124          1           0        9.687652    2.426837    0.066528
    125          1           0       12.111808    3.879924   -0.746451
    126          1           0       12.013354    3.593759    1.043584
    127          1           0       10.705344    4.375261    0.271923
    128          1           0       12.289877    1.241229    0.590330
    129          1           0       11.459951    0.243336   -0.521872
    130          1           0       10.870820   -0.709586    1.489445
    131          1           0        9.474801    0.109349    0.864587
    132          1           0        9.384620    1.173728    2.973935
    133          1           0       10.700975    2.123788    2.454913
    134          1           0       11.813048   -0.593781    3.318389
    135          1           0       10.301229    0.852692    5.429230
    136          1           0       11.200221   -0.765844    5.501946
    137          1           0        9.751113   -0.519279    4.532959
    138          1           0       13.007098    1.528790    3.043431
    139          1           0       13.233280    0.756064    4.605861
    140          1           0       12.076459    2.140647    4.453774
 ---------------------------------------------------------------------

 SCF Done:  E(RwB97XD) =  -3007.88994862     A.U. after   16 cycles

 Excitation energies and oscillator strengths:

 Excited State   1:      Singlet-A      1.7018 eV  728.57 nm  f=0.4115  <S**2>=0.000
     245 -> 248        0.18201
     246 -> 247        0.68346
     245 <- 248        0.11539
 This state for optimization and/or second-order correction.
 Total Energy, E(TD-HF/TD-DFT) =  -3007.82741023
 Copying the excited state density for this state as the 1-particle RhoCI density.

 Excited State   2:      Singlet-A      2.2109 eV  560.79 nm  f=0.1326  <S**2>=0.000
     245 -> 247        0.64480
     246 -> 248       -0.27813

 Excited State   3:      Singlet-A      3.6241 eV  342.11 nm  f=0.1622  <S**2>=0.000
     242 -> 247        0.16950
     243 -> 247        0.53993
     245 -> 247        0.12525
     246 -> 248        0.35995

 Excited State   4:      Singlet-A      3.6581 eV  338.93 nm  f=0.0217  <S**2>=0.000
     242 -> 247        0.53135
     242 -> 249        0.29071
     242 -> 250       -0.26243
     243 -> 247       -0.13673
     246 -> 248       -0.11535

 Excited State   5:      Singlet-A      3.7138 eV  333.84 nm  f=0.4313  <S**2>=0.000
     241 -> 247        0.29534
     243 -> 247       -0.36932
     245 -> 247        0.20307
     246 -> 248        0.46627

 The electronic state is 1-A.
 Alpha  occ. eigenvalues --  -46.94851 -19.32045 -19.31181 -19.25616 -19.24377
 Alpha  occ. eigenvalues --  -19.23740 -19.23721 -14.47128 -14.45933 -14.44175
 Alpha  occ. eigenvalues --  -14.43899 -10.43798 -10.42916 -10.39184 -10.38769
 Alpha  occ. eigenvalues --  -10.36354 -10.35486 -10.35207 -10.34595 -10.34142
 Alpha  occ. eigenvalues --  -10.34071 -10.33832 -10.33765 -10.33712 -10.33452
 Alpha  occ. eigenvalues --  -10.33010 -10.32315 -10.32244 -10.32217 -10.32036
 Alpha  occ. eigenvalues --  -10.31786 -10.31755 -10.31654 -10.31648 -10.31472
 Alpha  occ. eigenvalues --  -10.31275 -10.31209 -10.31103 -10.30886 -10.30863
 Alpha  occ. eigenvalues --  -10.30685 -10.30267 -10.30254 -10.30232 -10.30167
 Alpha  occ. eigenvalues --  -10.29904 -10.29750 -10.29606 -10.29589 -10.29509
 Alpha  occ. eigenvalues --  -10.29470 -10.29458 -10.29407 -10.29352 -10.29304
 Alpha  occ. eigenvalues --  -10.29251 -10.29207 -10.29193 -10.29178 -10.29119
 Alpha  occ. eigenvalues --  -10.28952 -10.28877 -10.28864 -10.28858 -10.28059
 Alpha  occ. eigenvalues --  -10.27891  -3.20944  -1.94532  -1.94057  -1.93948
 Alpha  occ. eigenvalues --   -1.19559  -1.18093  -1.13788  -1.12541  -1.10986
 Alpha  occ. eigenvalues --   -1.08489  -1.08076  -1.06767  -1.06070  -1.05222
 Alpha  occ. eigenvalues --   -0.94441  -0.92835  -0.92175  -0.90914  -0.90777
 Alpha  occ. eigenvalues --   -0.90247  -0.90046  -0.89701  -0.89506  -0.89343
 Alpha  occ. eigenvalues --   -0.88875  -0.87070  -0.86231  -0.85496  -0.85039
 Alpha  occ. eigenvalues --   -0.84453  -0.83734  -0.83155  -0.82730  -0.81976
 Alpha  occ. eigenvalues --   -0.81806  -0.80492  -0.80092  -0.79216  -0.78299
 Alpha  occ. eigenvalues --   -0.77885  -0.77713  -0.77176  -0.76999  -0.76316
 Alpha  occ. eigenvalues --   -0.75167  -0.74652  -0.73425  -0.72386  -0.71334
 Alpha  occ. eigenvalues --   -0.70798  -0.70423  -0.69225  -0.68630  -0.67942
 Alpha  occ. eigenvalues --   -0.67609  -0.67242  -0.66488  -0.66147  -0.65934
 Alpha  occ. eigenvalues --   -0.65424  -0.65301  -0.64889  -0.64311  -0.62439
 Alpha  occ. eigenvalues --   -0.62434  -0.61921  -0.61491  -0.60591  -0.59918
 Alpha  occ. eigenvalues --   -0.59584  -0.59227  -0.58280  -0.58028  -0.57852
 Alpha  occ. eigenvalues --   -0.57306  -0.57027  -0.56886  -0.56187  -0.55953
 Alpha  occ. eigenvalues --   -0.55875  -0.55757  -0.55433  -0.54950  -0.54530
 Alpha  occ. eigenvalues --   -0.54405  -0.54267  -0.54166  -0.53933  -0.53816
 Alpha  occ. eigenvalues --   -0.53795  -0.53469  -0.52984  -0.52890  -0.52437
 Alpha  occ. eigenvalues --   -0.52368  -0.52104  -0.51942  -0.51798  -0.51755
 Alpha  occ. eigenvalues --   -0.51323  -0.51192  -0.51126  -0.50927  -0.50612
 Alpha  occ. eigenvalues --   -0.50537  -0.50379  -0.50244  -0.49933  -0.49809
 Alpha  occ. eigenvalues --   -0.49602  -0.49289  -0.49199  -0.48736  -0.48723
 Alpha  occ. eigenvalues --   -0.48661  -0.48488  -0.48188  -0.47945  -0.47867
 Alpha  occ. eigenvalues --   -0.47779  -0.47594  -0.47421  -0.47237  -0.47111
 Alpha  occ. eigenvalues --   -0.46741  -0.46516  -0.46302  -0.46164  -0.45928
 Alpha  occ. eigenvalues --   -0.45830  -0.45582  -0.45333  -0.45270  -0.45062
 Alpha  occ. eigenvalues --   -0.44949  -0.44908  -0.44804  -0.44518  -0.44458
 Alpha  occ. eigenvalues --   -0.44326  -0.44048  -0.43788  -0.43506  -0.43238
 Alpha  occ. eigenvalues --   -0.42892  -0.42756  -0.42549  -0.42399  -0.41848
 Alpha  occ. eigenvalues --   -0.41749  -0.41650  -0.41416  -0.41350  -0.41257
 Alpha  occ. eigenvalues --   -0.40748  -0.40660  -0.40284  -0.40173  -0.40150
 Alpha  occ. eigenvalues --   -0.39477  -0.39187  -0.39132  -0.38897  -0.38867
 Alpha  occ. eigenvalues --   -0.38227  -0.37506  -0.37190  -0.36701  -0.36469
 Alpha  occ. eigenvalues --   -0.36420  -0.35564  -0.35261  -0.33497  -0.33345
 Alpha  occ. eigenvalues --   -0.33059  -0.32508  -0.32466  -0.31856  -0.25797
 Alpha  occ. eigenvalues --   -0.22870
 Alpha virt. eigenvalues --   -0.06779   0.01019   0.03020   0.04711   0.05599
 Alpha virt. eigenvalues --    0.06517   0.06951   0.07891   0.08500   0.09443
 Alpha virt. eigenvalues --    0.10612   0.11142   0.11389   0.11879   0.12325

 Mulliken charges:
               1
     1  Mg   0.997765
     2  C   -0.040137
     3  C   -0.088302
     4  C   -0.055228
     5  C   -0.106670
     6  N   -0.360565
     7  C   -0.016241
     8  C   -0.032669
     9  C   -0.116014
    10  C    0.105161
    11  C    0.030687
    12  C   -0.022441
    13  C    0.020976
    14  C    0.199109
    15  O   -0.250985
    16  O   -0.385987
    17  N   -0.450578
    18  C    0.105956
    19  C   -0.150109
    20  C   -0.067430
    21  C    0.151574
    22  C    0.064868
    23  C    0.045250
    24  O   -0.214791
    25  C   -0.028887
    26  N   -0.327089
    27  C    0.013227
    28  C   -0.115112
    29  C   -0.029897
    30  C    0.061690
    31  C    0.001619
    32  C   -0.009784
    33  C   -0.067543
    34  N   -0.380123
    35  C    0.092869
    36  C   -0.202977
    37  C   -0.060810
    38  C    0.121082
    39  C    0.075382
    40  C    0.196351
    41  O   -0.161623
    42  C   -0.045868
    43  C    0.221853
    44  O   -0.304998
    45  O   -0.327557
    46  C    0.123646
    47  C    0.258052
    48  C   -0.143505
    49  C   -0.207657
    50  C    0.033602
    51  C    0.051264
    52  C   -0.063663
    53  C    0.002879
    54  C   -0.219944
    55  C   -0.033173
    56  C    0.061081
    57  C   -0.023778
    58  C   -0.014418
    59  C   -0.193238
    60  C   -0.000419
    61  C    0.010446
    62  C   -0.033179
    63  C    0.002115
    64  C   -0.198221
    65  C   -0.000372
    66  C    0.015544
    67  H   -0.012398
    68  H    0.009736
    69  H   -0.006649
    70  H    0.030910
    71  H    0.033688
    72  H    0.034943
    73  H    0.049116
    74  H    0.036778
    75  H    0.086940
    76  H    0.055549
    77  H    0.043035
    78  H    0.050071
    79  H    0.053856
    80  H    0.034072
    81  H    0.049007
    82  H    0.056321
    83  H    0.044059
    84  H    0.045740
    85  H    0.052432
    86  H    0.026983
    87  H    0.037545
    88  H    0.036479
    89  H    0.045838
    90  H    0.045905
    91  H    0.039987
    92  H    0.036157
    93  H    0.042851
    94  H    0.031171
    95  H    0.041209
    96  H    0.048626
    97  H    0.056731
    98  H    0.053474
    99  H    0.052288
   100  H    0.071414
   101  H    0.074733
   102  H    0.075806
   103  H    0.044992
   104  H    0.018307
   105  H    0.049207
   106  H    0.024051
   107  H    0.035886
   108  H    0.031779
   109  H    0.019349
   110  H    0.030051
   111  H    0.036460
   112  H    0.024708
   113  H    0.011634
   114  H    0.029616
   115  H    0.038491
   116  H    0.024004
   117  H    0.021536
   118  H    0.012726
   119  H    0.022377
   120  H    0.028606
   121  H    0.021755
   122  H    0.029671
   123  H    0.012638
   124  H    0.014896
   125  H    0.033681
   126  H    0.034902
   127  H    0.027107
   128  H    0.009437
   129  H    0.014759
   130  H    0.021400
   131  H    0.011308
   132  H    0.013863
   133  H    0.013358
   134  H    0.021038
   135  H    0.022383
   136  H    0.033787
   137  H    0.016423
   138  H    0.020507
   139  H    0.022532
   140  H    0.024304
 Sum of Mulliken charges =  -0.00000

 Dipole moment (field-independent basis, Debye):
    X=              5.5040    Y=              2.2048    Z=              1.0304  Tot=              6.0181
 Quadrupole moment (field-independent basis, Debye-Ang):
   XX=           -376.1116   YY=           -436.4807   ZZ=           -407.4881
   XY=            -35.9950   XZ=              0.9022   YZ=             -5.9463

 Normal termination of Gaussian 16 at Wed May  4 10:35:40 2022.
