 Gaussian 16, Revision A.03,
 Gaussian 16:  ES64L-G16RevA.03 25-Dec-2016

 --------------------
 #p ZINDO=(nstates=5)
 --------------------

 ------------------------------
 step_1601_chromophore_15 ZINDO
 ------------------------------
 Symbolic Z-matrix:
 Charge =  0 Multiplicity = 1

                         Standard orientation:
 ---------------------------------------------------------------------
 Center     Atomic      Atomic             Coordinates (Angstroms)
 Number     Number       Type             X           Y           Z
 ---------------------------------------------------------------------
      1         12           0       -4.509167    0.907997    0.014282
      2          6           0       -4.423134   -2.433287    0.757734
      3          6           0       -1.108746    1.055702    0.376459
      4          6           0       -4.760745    4.207395   -0.149582
      5          6           0       -7.970296    0.789077    0.375145
      6          7           0       -2.993892   -0.522316    0.511907
      7          6           0       -3.138786   -1.821532    0.762423
      8          6           0       -1.732194   -2.584109    0.825679
      9          6           0       -0.778134   -1.336295    1.091079
     10          6           0       -1.659041   -0.172163    0.603727
     11          6           0       -0.324855   -1.145492    2.576412
     12          6           0       -1.484476   -3.459278   -0.498250
     13          6           0       -0.337661   -3.137164   -1.566306
     14          6           0        0.882560   -4.083640   -1.541467
     15          8           0        0.766530   -5.219262   -1.942813
     16          8           0        1.988429   -3.492105   -0.925062
     17          7           0       -3.130860    2.431893   -0.090210
     18          6           0       -1.754958    2.292219    0.005281
     19          6           0       -1.134308    3.581661   -0.286045
     20          6           0       -2.186877    4.506715   -0.378588
     21          6           0       -3.416133    3.726194   -0.192907
     22          6           0        0.363771    3.774138   -0.413262
     23          6           0       -2.140270    5.999161   -0.606850
     24          8           0       -3.073918    6.757946   -0.754025
     25          6           0       -0.749725    6.637458   -0.680983
     26          7           0       -6.132710    2.316927    0.208534
     27          6           0       -5.984654    3.594974    0.106099
     28          6           0       -7.290868    4.418404    0.051027
     29          6           0       -8.377992    3.322247    0.251442
     30          6           0       -7.453702    2.028093    0.423476
     31          6           0       -7.388451    5.510883    1.123421
     32          6           0       -9.552201    3.224083   -0.808833
     33          6           0      -11.009900    3.229941   -0.234346
     34          7           0       -5.952583   -0.529412    0.336586
     35          6           0       -7.299136   -0.498648    0.313006
     36          6           0       -7.843022   -1.849122    0.432718
     37          6           0       -6.759292   -2.647534    0.630531
     38          6           0       -5.649223   -1.766804    0.602096
     39          6           0       -9.280187   -2.162873    0.262084
     40          6           0       -6.316889   -4.017465    0.990203
     41          8           0       -6.904716   -5.033726    1.212886
     42          6           0       -4.796526   -3.895407    1.108533
     43          6           0       -4.181721   -4.892516    0.196622
     44          8           0       -4.573312   -4.952506   -0.999320
     45          8           0       -3.308661   -5.727606    0.780905
     46          6           0       -2.775837   -6.663680   -0.224129
     47          6           0        3.202449   -4.362060   -0.798822
     48          6           0        4.286182   -3.700216   -1.567822
     49          6           0        5.597728   -3.604107   -1.271359
     50          6           0        6.251583   -4.340946   -0.182202
     51          6           0        6.459193   -2.688035   -2.140158
     52          6           0        6.599665   -1.259833   -1.515430
     53          6           0        6.164465   -0.093750   -2.481456
     54          6           0        7.034149    1.173535   -2.091096
     55          6           0        6.021691    2.427770   -2.030548
     56          6           0        8.251882    1.443552   -3.028204
     57          6           0        9.623412    1.075098   -2.366097
     58          6           0       10.403632    2.324952   -1.873104
     59          6           0       10.697741    2.309020   -0.326070
     60          6           0       11.472736    3.621863    0.097689
     61          6           0       11.286553    1.009021    0.233881
     62          6           0       10.464333    0.281690    1.287697
     63          6           0       10.418972    1.087624    2.641059
     64          6           0       11.380363    0.351828    3.644605
     65          6           0       10.654172   -0.035779    4.904607
     66          6           0       12.503828    1.260932    3.972695
     67          1           0       -0.025803    1.184414    0.429136
     68          1           0       -4.936104    5.285550   -0.173688
     69          1           0       -9.061378    0.775514    0.397599
     70          1           0       -1.717641   -3.273460    1.669772
     71          1           0        0.154977   -1.313279    0.528721
     72          1           0        0.074794   -0.142498    2.722448
     73          1           0        0.447069   -1.871420    2.830163
     74          1           0       -1.249731   -1.233602    3.147015
     75          1           0       -2.373079   -3.552389   -1.122432
     76          1           0       -1.092141   -4.366033   -0.035590
     77          1           0       -0.003952   -2.103889   -1.665849
     78          1           0       -0.810457   -3.305853   -2.533982
     79          1           0        0.469695    4.010845   -1.471598
     80          1           0        0.939249    2.880555   -0.172538
     81          1           0        0.857287    4.574744    0.138065
     82          1           0       -0.209516    6.344828   -1.581432
     83          1           0       -0.194304    6.391488    0.223482
     84          1           0       -0.839829    7.722607   -0.630599
     85          1           0       -7.344418    4.877282   -0.936081
     86          1           0       -8.774239    3.441324    1.260222
     87          1           0       -6.551254    5.273648    1.780459
     88          1           0       -8.293945    5.543073    1.730541
     89          1           0       -7.241943    6.548635    0.824755
     90          1           0       -9.395080    2.320958   -1.398711
     91          1           0       -9.504601    4.127719   -1.417306
     92          1           0      -11.026596    3.538514    0.810815
     93          1           0      -11.497126    2.276205   -0.440581
     94          1           0      -11.665364    3.965174   -0.699910
     95          1           0       -9.647504   -1.473706   -0.498037
     96          1           0       -9.811168   -1.991248    1.198238
     97          1           0       -9.538759   -3.183822   -0.015739
     98          1           0       -4.336840   -4.160440    2.060858
     99          1           0       -1.764663   -6.885871    0.116536
    100          1           0       -2.574595   -6.243573   -1.209437
    101          1           0       -3.406755   -7.547971   -0.315896
    102          1           0        3.094035   -5.401801   -1.107443
    103          1           0        3.513453   -4.312138    0.244721
    104          1           0        3.918859   -3.061857   -2.370903
    105          1           0        7.062505   -5.041041   -0.383821
    106          1           0        5.570781   -4.964781    0.397074
    107          1           0        6.699515   -3.554261    0.425679
    108          1           0        6.066740   -2.536371   -3.145147
    109          1           0        7.454528   -3.127765   -2.201896
    110          1           0        7.635848   -1.052456   -1.248964
    111          1           0        5.965886   -1.221486   -0.629481
    112          1           0        5.080586    0.020476   -2.452827
    113          1           0        6.379074   -0.347869   -3.519513
    114          1           0        7.326243    1.009669   -1.054043
    115          1           0        5.750093    2.951968   -2.947463
    116          1           0        6.504498    3.138632   -1.360792
    117          1           0        5.091833    2.116100   -1.554460
    118          1           0        8.261459    2.524822   -3.166705
    119          1           0        7.989698    0.997335   -3.987493
    120          1           0       10.267672    0.595203   -3.102536
    121          1           0        9.448717    0.419914   -1.512457
    122          1           0       10.022902    3.262268   -2.281826
    123          1           0       11.417923    2.175990   -2.242415
    124          1           0        9.687652    2.426837    0.066528
    125          1           0       12.111808    3.879924   -0.746451
    126          1           0       12.013354    3.593759    1.043584
    127          1           0       10.705344    4.375261    0.271923
    128          1           0       12.289877    1.241229    0.590330
    129          1           0       11.459951    0.243336   -0.521872
    130          1           0       10.870820   -0.709586    1.489445
    131          1           0        9.474801    0.109349    0.864587
    132          1           0        9.384620    1.173728    2.973935
    133          1           0       10.700975    2.123788    2.454913
    134          1           0       11.813048   -0.593781    3.318389
    135          1           0       10.301229    0.852692    5.429230
    136          1           0       11.200221   -0.765844    5.501946
    137          1           0        9.751113   -0.519279    4.532959
    138          1           0       13.007098    1.528790    3.043431
    139          1           0       13.233280    0.756064    4.605861
    140          1           0       12.076459    2.140647    4.453774
 ---------------------------------------------------------------------

 SCF Done:  E(RZINDO/S) =  -474.397086358     A.U. after   19 cycles

 Excitation energies and oscillator strengths:

 Excited State   1:      Singlet-A      1.2844 eV  965.32 nm  f=0.6359  <S**2>=0.000
     175 ->178        -0.19328
     176 ->177         0.66282
 This state for optimization and/or second-order correction.
 Total Energy, E(CIS/TDA) =  -474.349885864
 Copying the excited state density for this state as the 1-particle RhoCI density.

 Excited State   2:      Singlet-A      1.9336 eV  641.22 nm  f=0.0652  <S**2>=0.000
     175 ->177         0.56268
     176 ->178         0.40274

 Excited State   3:      Singlet-A      3.0033 eV  412.82 nm  f=0.0021  <S**2>=0.000
     168 ->177        -0.11369
     168 ->179         0.14262
     168 ->180         0.13075
     169 ->177         0.27624
     169 ->179        -0.31537
     169 ->180        -0.30432
     169 ->186        -0.16736
     169 ->187        -0.15890
     170 ->177        -0.10553
     170 ->179         0.11126
     170 ->180         0.11109

 Excited State   4:      Singlet-A      3.0854 eV  401.84 nm  f=1.0089  <S**2>=0.000
     175 ->177        -0.34594
     176 ->178         0.52204
     176 ->179         0.20859

 Excited State   5:      Singlet-A      3.1146 eV  398.07 nm  f=0.0204  <S**2>=0.000
     168 ->177         0.29368
     168 ->178         0.11930
     168 ->179         0.34467
     168 ->180        -0.24917
     168 ->183        -0.17362
     168 ->186         0.21211
     168 ->187        -0.10134
     168 ->200        -0.11380
     169 ->177         0.10982
     169 ->179         0.14141

 The electronic state is 1-A.
 Alpha  occ. eigenvalues --   -1.87646  -1.82483  -1.80567  -1.74645  -1.71886
 Alpha  occ. eigenvalues --   -1.69925  -1.66388  -1.61197  -1.61003  -1.59155
 Alpha  occ. eigenvalues --   -1.56491  -1.52036  -1.48318  -1.48172  -1.46294
 Alpha  occ. eigenvalues --   -1.43169  -1.41601  -1.40670  -1.39280  -1.38151
 Alpha  occ. eigenvalues --   -1.37019  -1.34819  -1.32668  -1.31626  -1.29161
 Alpha  occ. eigenvalues --   -1.28281  -1.24825  -1.21626  -1.20453  -1.18836
 Alpha  occ. eigenvalues --   -1.17738  -1.16328  -1.15274  -1.14197  -1.14124
 Alpha  occ. eigenvalues --   -1.12224  -1.11752  -1.09771  -1.04801  -1.04421
 Alpha  occ. eigenvalues --   -1.02259  -1.01193  -0.99261  -0.96881  -0.96615
 Alpha  occ. eigenvalues --   -0.96064  -0.95363  -0.93985  -0.93838  -0.92434
 Alpha  occ. eigenvalues --   -0.91491  -0.90109  -0.88872  -0.87438  -0.86503
 Alpha  occ. eigenvalues --   -0.85985  -0.84837  -0.82652  -0.81843  -0.81047
 Alpha  occ. eigenvalues --   -0.80301  -0.79815  -0.78359  -0.77224  -0.76868
 Alpha  occ. eigenvalues --   -0.76309  -0.75418  -0.74489  -0.74365  -0.73072
 Alpha  occ. eigenvalues --   -0.72921  -0.72347  -0.72255  -0.70800  -0.70403
 Alpha  occ. eigenvalues --   -0.70082  -0.69295  -0.68824  -0.68142  -0.67938
 Alpha  occ. eigenvalues --   -0.67735  -0.67042  -0.66882  -0.66684  -0.65941
 Alpha  occ. eigenvalues --   -0.65657  -0.65243  -0.64462  -0.64162  -0.63720
 Alpha  occ. eigenvalues --   -0.63474  -0.62991  -0.62584  -0.62158  -0.61762
 Alpha  occ. eigenvalues --   -0.61512  -0.61495  -0.60489  -0.60089  -0.59736
 Alpha  occ. eigenvalues --   -0.59367  -0.59294  -0.58888  -0.58362  -0.58333
 Alpha  occ. eigenvalues --   -0.58104  -0.58061  -0.57464  -0.56840  -0.56184
 Alpha  occ. eigenvalues --   -0.56104  -0.55333  -0.54982  -0.54536  -0.54400
 Alpha  occ. eigenvalues --   -0.54178  -0.53909  -0.53740  -0.53542  -0.53125
 Alpha  occ. eigenvalues --   -0.52658  -0.52118  -0.51949  -0.51854  -0.51621
 Alpha  occ. eigenvalues --   -0.51391  -0.51049  -0.50911  -0.50788  -0.50323
 Alpha  occ. eigenvalues --   -0.50171  -0.49729  -0.49602  -0.49441  -0.48974
 Alpha  occ. eigenvalues --   -0.48846  -0.48735  -0.48326  -0.48169  -0.47963
 Alpha  occ. eigenvalues --   -0.47897  -0.47685  -0.47509  -0.47189  -0.46838
 Alpha  occ. eigenvalues --   -0.46801  -0.46645  -0.46561  -0.45941  -0.45872
 Alpha  occ. eigenvalues --   -0.45677  -0.45439  -0.45335  -0.45082  -0.44648
 Alpha  occ. eigenvalues --   -0.43716  -0.43378  -0.42914  -0.42805  -0.42374
 Alpha  occ. eigenvalues --   -0.42047  -0.41991  -0.40699  -0.39097  -0.38845
 Alpha  occ. eigenvalues --   -0.37609  -0.37486  -0.35342  -0.35174  -0.34840
 Alpha  occ. eigenvalues --   -0.33683  -0.33292  -0.32570  -0.31925  -0.26597
 Alpha  occ. eigenvalues --   -0.21876
 Alpha virt. eigenvalues --   -0.08481  -0.01621   0.00018   0.01384   0.01697
 Alpha virt. eigenvalues --    0.01983   0.02514   0.02977   0.04664   0.05089
 Alpha virt. eigenvalues --    0.06448   0.07061   0.07314   0.07870   0.08074

 Mulliken charges:
               1
     1  Mg   0.427054
     2  C   -0.058898
     3  C   -0.074591
     4  C   -0.081537
     5  C   -0.055498
     6  N   -0.269945
     7  C    0.115159
     8  C    0.000513
     9  C   -0.003349
    10  C    0.117503
    11  C   -0.049630
    12  C   -0.026319
    13  C   -0.005880
    14  C    0.467817
    15  O   -0.505140
    16  O   -0.276080
    17  N   -0.309564
    18  C    0.085206
    19  C    0.016809
    20  C   -0.049297
    21  C    0.145891
    22  C   -0.043908
    23  C    0.327982
    24  O   -0.513090
    25  C   -0.036391
    26  N   -0.254370
    27  C    0.156764
    28  C    0.011945
    29  C   -0.010237
    30  C    0.090107
    31  C   -0.054333
    32  C   -0.028486
    33  C   -0.061291
    34  N   -0.291951
    35  C    0.081434
    36  C    0.043392
    37  C   -0.051782
    38  C    0.121359
    39  C   -0.036869
    40  C    0.355924
    41  O   -0.496040
    42  C    0.051454
    43  C    0.489851
    44  O   -0.552476
    45  O   -0.249099
    46  C    0.075131
    47  C    0.105810
    48  C   -0.093107
    49  C   -0.001031
    50  C   -0.038759
    51  C   -0.025653
    52  C   -0.038922
    53  C   -0.041887
    54  C   -0.020277
    55  C   -0.068448
    56  C   -0.035328
    57  C   -0.036077
    58  C   -0.040565
    59  C   -0.011715
    60  C   -0.062848
    61  C   -0.022632
    62  C   -0.036002
    63  C   -0.035785
    64  C   -0.006160
    65  C   -0.057616
    66  C   -0.051241
    67  H    0.024897
    68  H    0.032959
    69  H    0.018725
    70  H    0.031084
    71  H    0.027978
    72  H    0.022110
    73  H    0.024943
    74  H    0.024716
    75  H    0.055468
    76  H    0.033428
    77  H    0.032658
    78  H    0.035159
    79  H    0.030734
    80  H    0.022870
    81  H    0.032533
    82  H    0.040589
    83  H    0.028229
    84  H    0.031105
    85  H    0.036360
    86  H    0.028314
    87  H    0.018027
    88  H    0.020491
    89  H    0.023654
    90  H    0.030798
    91  H    0.021749
    92  H    0.023085
    93  H    0.022581
    94  H    0.015430
    95  H    0.024186
    96  H    0.030796
    97  H    0.034890
    98  H    0.047065
    99  H    0.023919
   100  H    0.052153
   101  H    0.052973
   102  H    0.065890
   103  H    0.037532
   104  H    0.026395
   105  H    0.030017
   106  H    0.018007
   107  H    0.025570
   108  H    0.028376
   109  H    0.016542
   110  H    0.022570
   111  H    0.022408
   112  H    0.024646
   113  H    0.016858
   114  H    0.024984
   115  H    0.026490
   116  H    0.009312
   117  H    0.012191
   118  H    0.016636
   119  H    0.028312
   120  H    0.018735
   121  H    0.028957
   122  H    0.032316
   123  H    0.007701
   124  H    0.009296
   125  H    0.024294
   126  H    0.023763
   127  H    0.014067
   128  H    0.015277
   129  H    0.009138
   130  H    0.017601
   131  H    0.014594
   132  H    0.017324
   133  H    0.023837
   134  H    0.024115
   135  H    0.021540
   136  H    0.022364
   137  H    0.004098
   138  H    0.010713
   139  H    0.012594
   140  H    0.021285
 Sum of Mulliken charges =  -0.00000

 Dipole moment (field-independent basis, Debye):
    X=              7.3865    Y=              4.1143    Z=              3.3072  Tot=              9.0788
 N-N= 4.411266172942D+03 E-N= 0.000000000000D+00  KE=-9.496456889801D+03
 Leave Link  601 at Wed May  4 10:47:48 2022, MaxMem=  6710886400 cpu:               1.2 elap:               0.1
 (Enter /sw/apps/gaussian-16.0/g16/l9999.exe)
 1\1\GINC-BP1-COMPUTE035\SP\RZINDO CIS\STO-3G\C55H74Mg1N4O6\OF15641\04-
 May-2022\0\\#p ZINDO=(nstates=5)\\step_1601_chromophore_15 ZINDO\\0,1\
 Mg,0,47.004,34.643,28.354\C,0,45.356,32.622,30.573\C,0,46.759,37.241,3
 0.569\C,0,48.081,36.639,25.939\C,0,46.562,32.172,25.941\N,0,46.153,34.
 869,30.307\C,0,45.546,33.948,31.052\C,0,45.297,34.453,32.551\C,0,45.40
 9,36.024,32.312\C,0,46.187,36.074,30.985\C,0,44.045,36.785,32.22\C,0,4
 6.327,33.767,33.575\C,0,47.463,34.577,34.358\C,0,47.196,34.818,35.86\O

 Normal termination of Gaussian 16 at Wed May  4 10:47:48 2022.
