 Gaussian 16, Revision A.03,
 Gaussian 16:  ES64L-G16RevA.03 25-Dec-2016

 ------------------------------
 #p blyp/Def2SVP td=(nstates=5)
 ------------------------------

 --------------------------------------------------
 step_1001_chromophore_8 TDDFT with blyp functional
 --------------------------------------------------
 Symbolic Z-matrix:
 Charge =  0 Multiplicity = 1

                         Standard orientation:
 ---------------------------------------------------------------------
 Center     Atomic      Atomic             Coordinates (Angstroms)
 Number     Number       Type             X           Y           Z
 ---------------------------------------------------------------------
      1         12           0       -4.589211    1.233593   -0.027400
      2          6           0       -4.357633   -1.999392   -1.107272
      3          6           0       -4.309393    0.199952    3.271792
      4          6           0       -4.641922    4.486653    0.946688
      5          6           0       -4.441634    2.262132   -3.354991
      6          7           0       -4.159059   -0.614040    0.959950
      7          6           0       -4.161166   -1.832978    0.305528
      8          6           0       -3.882563   -2.916598    1.315119
      9          6           0       -3.988040   -2.361980    2.709786
     10          6           0       -4.158680   -0.809784    2.311333
     11          6           0       -5.246108   -2.839537    3.488980
     12          6           0       -2.418527   -3.450187    1.146766
     13          6           0       -2.216808   -4.966511    1.247660
     14          6           0       -0.853075   -5.373167    1.894802
     15          8           0       -0.636364   -5.585437    3.061726
     16          8           0        0.157319   -5.301636    0.914579
     17          7           0       -4.634624    2.170760    1.895344
     18          6           0       -4.558149    1.566359    3.099973
     19          6           0       -4.583109    2.615928    4.149054
     20          6           0       -4.526293    3.899941    3.459839
     21          6           0       -4.621208    3.521999    2.031120
     22          6           0       -4.386381    2.312160    5.625684
     23          6           0       -4.491287    5.319699    4.272243
     24          8           0       -4.595180    5.441168    5.509478
     25          6           0       -4.437930    6.636826    3.475299
     26          7           0       -4.507155    3.087011   -1.029687
     27          6           0       -4.519095    4.290990   -0.431265
     28          6           0       -4.404985    5.512282   -1.377637
     29          6           0       -4.302709    4.776257   -2.786098
     30          6           0       -4.500653    3.255996   -2.406578
     31          6           0       -5.624513    6.448154   -1.239428
     32          6           0       -3.051631    4.958232   -3.728766
     33          6           0       -3.299943    5.914141   -4.877344
     34          7           0       -4.304330    0.364525   -1.880491
     35          6           0       -4.367432    0.867573   -3.198260
     36          6           0       -4.384166   -0.199260   -4.133216
     37          6           0       -4.370392   -1.337293   -3.329306
     38          6           0       -4.410039   -0.971332   -1.990028
     39          6           0       -4.244705   -0.093087   -5.639217
     40          6           0       -4.317277   -2.789858   -3.420187
     41          8           0       -4.317662   -3.544165   -4.346134
     42          6           0       -4.430367   -3.289981   -1.863537
     43          6           0       -5.642958   -4.123628   -1.580497
     44          8           0       -6.810764   -3.921749   -1.857011
     45          8           0       -5.233171   -5.201659   -0.878611
     46          6           0       -6.261987   -6.198337   -0.624461
     47          6           0        1.547103   -5.447661    1.274244
     48          6           0        2.244427   -4.266440    0.600286
     49          6           0        3.565580   -4.116765    0.420748
     50          6           0        4.577624   -5.056440    0.935678
     51          6           0        4.090168   -3.022335   -0.443164
     52          6           0        4.370695   -1.646922    0.201962
     53          6           0        5.023734   -0.842311   -0.873848
     54          6           0        5.999261    0.260977   -0.239492
     55          6           0        5.443108    1.703059   -0.478794
     56          6           0        7.458893    0.005537   -0.706076
     57          6           0        8.502623    0.537629    0.380447
     58          6           0        9.838597   -0.240892    0.252855
     59          6           0       11.013802    0.684942    0.122356
     60          6           0       10.983729    1.358437   -1.237817
     61          6           0       12.322321   -0.084290    0.355620
     62          6           0       13.371840    0.808858    0.935529
     63          6           0       14.635775    0.755218    0.033679
     64          6           0       15.261269    2.094823   -0.364297
     65          6           0       16.026375    2.630478    0.867255
     66          6           0       15.998635    2.066080   -1.732236
     67          1           0       -4.109681   -0.145107    4.288966
     68          1           0       -4.695683    5.551731    1.181021
     69          1           0       -4.520454    2.524345   -4.412985
     70          1           0       -4.595907   -3.737360    1.233984
     71          1           0       -3.091013   -2.500804    3.313043
     72          1           0       -5.286151   -3.925913    3.417243
     73          1           0       -6.148595   -2.426609    3.038770
     74          1           0       -5.204030   -2.577769    4.546318
     75          1           0       -1.813525   -2.932322    1.891099
     76          1           0       -1.991179   -3.172202    0.184201
     77          1           0       -2.303346   -5.391852    0.247559
     78          1           0       -3.049619   -5.249484    1.890331
     79          1           0       -3.330290    2.322929    5.895813
     80          1           0       -4.581679    1.247246    5.756017
     81          1           0       -5.050182    2.821561    6.324667
     82          1           0       -5.324625    6.647453    2.840853
     83          1           0       -3.663677    6.678823    2.708397
     84          1           0       -4.298554    7.539927    4.068794
     85          1           0       -3.469251    6.049322   -1.221178
     86          1           0       -5.203039    4.942630   -3.377904
     87          1           0       -6.524750    5.871723   -1.028140
     88          1           0       -5.764806    7.017671   -2.158835
     89          1           0       -5.306783    7.114009   -0.435850
     90          1           0       -2.683520    4.036043   -4.178655
     91          1           0       -2.277356    5.300206   -3.041929
     92          1           0       -4.350683    6.003125   -5.154586
     93          1           0       -2.757130    5.428018   -5.688430
     94          1           0       -2.896725    6.810654   -4.406915
     95          1           0       -3.913489    0.887193   -5.981450
     96          1           0       -5.240363   -0.297713   -6.033421
     97          1           0       -3.489697   -0.816301   -5.945730
     98          1           0       -3.580933   -3.924942   -1.611928
     99          1           0       -6.822887   -6.422072   -1.530549
    100          1           0       -6.860843   -5.848337    0.216489
    101          1           0       -5.738427   -7.114367   -0.348997
    102          1           0        1.849098   -6.381606    0.799955
    103          1           0        1.819027   -5.621754    2.315299
    104          1           0        1.581157   -3.596934    0.050911
    105          1           0        4.210850   -5.931971    1.472888
    106          1           0        5.347428   -4.571824    1.537338
    107          1           0        5.118725   -5.441865    0.071695
    108          1           0        3.348849   -2.888016   -1.229778
    109          1           0        4.929761   -3.417058   -1.014730
    110          1           0        4.988431   -1.750941    1.094340
    111          1           0        3.377143   -1.243637    0.402124
    112          1           0        4.239797   -0.372804   -1.467552
    113          1           0        5.535514   -1.345537   -1.694653
    114          1           0        6.002174    0.179848    0.846852
    115          1           0        6.064389    2.132726   -1.264126
    116          1           0        5.500480    2.203652    0.486950
    117          1           0        4.414382    1.767795   -0.832117
    118          1           0        7.652260    0.510917   -1.651975
    119          1           0        7.625641   -1.048448   -0.927445
    120          1           0        8.126816    0.356825    1.387715
    121          1           0        8.626602    1.612444    0.247733
    122          1           0        9.721964   -0.899139   -0.608930
    123          1           0        9.975668   -0.885127    1.121421
    124          1           0       10.871856    1.411166    0.922184
    125          1           0        9.975753    1.656231   -1.524864
    126          1           0       11.270152    0.692569   -2.052024
    127          1           0       11.545675    2.283358   -1.111830
    128          1           0       12.495136   -0.714434   -0.517383
    129          1           0       12.081165   -0.829129    1.114307
    130          1           0       13.714867    0.537457    1.934364
    131          1           0       13.063013    1.854030    0.960568
    132          1           0       14.467263    0.266268   -0.925493
    133          1           0       15.299380    0.058968    0.546632
    134          1           0       14.490702    2.860726   -0.450859
    135          1           0       16.963863    3.013535    0.465542
    136          1           0       16.128717    1.880404    1.650516
    137          1           0       15.589015    3.564251    1.221544
    138          1           0       16.454755    1.078913   -1.806144
    139          1           0       16.828598    2.762329   -1.858989
    140          1           0       15.259295    2.145202   -2.528352
 ---------------------------------------------------------------------

 SCF Done:  E(RB-LYP) =  -3007.38940275     A.U. after   21 cycles

 Excitation energies and oscillator strengths:

 Excited State   1:      Singlet-A      1.8416 eV  673.24 nm  f=0.3046  <S**2>=0.000
     245 -> 248        0.19968
     246 -> 247        0.68633
     246 <- 247       -0.14708
 This state for optimization and/or second-order correction.
 Total Energy, E(TD-HF/TD-DFT) =  -3007.32172494
 Copying the excited state density for this state as the 1-particle RhoCI density.

 Excited State   2:      Singlet-A      1.9894 eV  623.23 nm  f=0.0589  <S**2>=0.000
     244 -> 247       -0.38172
     245 -> 247        0.55239
     246 -> 248       -0.18198

 Excited State   3:      Singlet-A      2.0486 eV  605.22 nm  f=0.0004  <S**2>=0.000
     243 -> 247        0.69617
     244 -> 247       -0.11415

 Excited State   4:      Singlet-A      2.1005 eV  590.27 nm  f=0.0280  <S**2>=0.000
     244 -> 247        0.57783
     245 -> 247        0.34052
     246 -> 248       -0.17758

 Excited State   5:      Singlet-A      2.1355 eV  580.57 nm  f=0.0002  <S**2>=0.000
     242 -> 247        0.70627

 The electronic state is 1-A.
 Alpha  occ. eigenvalues --  -46.26948 -18.82583 -18.81534 -18.77405 -18.76587
 Alpha  occ. eigenvalues --  -18.76539 -18.76439 -14.04058 -14.03496 -14.01441
 Alpha  occ. eigenvalues --  -14.00527 -10.04449 -10.03852 -10.01555  -9.99931
 Alpha  occ. eigenvalues --   -9.98004  -9.97738  -9.97260  -9.97023  -9.96889
 Alpha  occ. eigenvalues --   -9.96673  -9.96596  -9.95789  -9.95379  -9.94852
 Alpha  occ. eigenvalues --   -9.94447  -9.94099  -9.94062  -9.93999  -9.93857
 Alpha  occ. eigenvalues --   -9.93837  -9.93806  -9.93672  -9.93655  -9.93606
 Alpha  occ. eigenvalues --   -9.93313  -9.93282  -9.93060  -9.92981  -9.92900
 Alpha  occ. eigenvalues --   -9.92868  -9.92770  -9.92616  -9.92499  -9.92155
 Alpha  occ. eigenvalues --   -9.91985  -9.91846  -9.91844  -9.91794  -9.91722
 Alpha  occ. eigenvalues --   -9.91447  -9.91432  -9.91274  -9.91197  -9.91120
 Alpha  occ. eigenvalues --   -9.91041  -9.91019  -9.90953  -9.90921  -9.90839
 Alpha  occ. eigenvalues --   -9.90836  -9.90699  -9.90417  -9.90323  -9.90322
 Alpha  occ. eigenvalues --   -9.90307  -2.91634  -1.72069  -1.71502  -1.71351
 Alpha  occ. eigenvalues --   -0.99040  -0.97218  -0.93119  -0.90628  -0.90458
 Alpha  occ. eigenvalues --   -0.90023  -0.86778  -0.85943  -0.85930  -0.85092
 Alpha  occ. eigenvalues --   -0.75967  -0.73960  -0.73707  -0.73556  -0.72461
 Alpha  occ. eigenvalues --   -0.71950  -0.71747  -0.71046  -0.70993  -0.70378
 Alpha  occ. eigenvalues --   -0.69368  -0.68729  -0.68498  -0.68217  -0.67606
 Alpha  occ. eigenvalues --   -0.66661  -0.66316  -0.65331  -0.65136  -0.64634
 Alpha  occ. eigenvalues --   -0.63742  -0.62685  -0.62201  -0.61469  -0.60669
 Alpha  occ. eigenvalues --   -0.60478  -0.60291  -0.60015  -0.59847  -0.58718
 Alpha  occ. eigenvalues --   -0.58083  -0.57486  -0.56976  -0.55137  -0.54316
 Alpha  occ. eigenvalues --   -0.54057  -0.53947  -0.52388  -0.52253  -0.51744
 Alpha  occ. eigenvalues --   -0.51298  -0.50934  -0.50824  -0.50660  -0.50117
 Alpha  occ. eigenvalues --   -0.49867  -0.49324  -0.48710  -0.48313  -0.46995
 Alpha  occ. eigenvalues --   -0.46432  -0.46213  -0.45805  -0.45381  -0.44738
 Alpha  occ. eigenvalues --   -0.44301  -0.43690  -0.43013  -0.42855  -0.42363
 Alpha  occ. eigenvalues --   -0.42246  -0.42191  -0.41708  -0.41606  -0.41426
 Alpha  occ. eigenvalues --   -0.41191  -0.40957  -0.40773  -0.40445  -0.40235
 Alpha  occ. eigenvalues --   -0.40003  -0.39677  -0.39483  -0.39257  -0.39179
 Alpha  occ. eigenvalues --   -0.38966  -0.38804  -0.38710  -0.38342  -0.38301
 Alpha  occ. eigenvalues --   -0.37952  -0.37935  -0.37680  -0.37638  -0.37391
 Alpha  occ. eigenvalues --   -0.37254  -0.37134  -0.36765  -0.36662  -0.36482
 Alpha  occ. eigenvalues --   -0.36394  -0.35883  -0.35849  -0.35736  -0.35593
 Alpha  occ. eigenvalues --   -0.35522  -0.35260  -0.35166  -0.35010  -0.34990
 Alpha  occ. eigenvalues --   -0.34733  -0.34691  -0.34371  -0.34248  -0.34201
 Alpha  occ. eigenvalues --   -0.34045  -0.34003  -0.33742  -0.33451  -0.33375
 Alpha  occ. eigenvalues --   -0.33131  -0.32910  -0.32766  -0.32579  -0.32246
 Alpha  occ. eigenvalues --   -0.32192  -0.32027  -0.31807  -0.31731  -0.31538
 Alpha  occ. eigenvalues --   -0.31509  -0.31467  -0.31274  -0.30958  -0.30855
 Alpha  occ. eigenvalues --   -0.30611  -0.30590  -0.30335  -0.30243  -0.30085
 Alpha  occ. eigenvalues --   -0.30043  -0.29836  -0.29577  -0.29514  -0.29375
 Alpha  occ. eigenvalues --   -0.29165  -0.28666  -0.28442  -0.28287  -0.27760
 Alpha  occ. eigenvalues --   -0.27620  -0.27572  -0.26998  -0.26871  -0.26715
 Alpha  occ. eigenvalues --   -0.26466  -0.26279  -0.25904  -0.25882  -0.25636
 Alpha  occ. eigenvalues --   -0.25288  -0.24847  -0.24338  -0.23889  -0.23820
 Alpha  occ. eigenvalues --   -0.22771  -0.22505  -0.22219  -0.21681  -0.20877
 Alpha  occ. eigenvalues --   -0.20409  -0.19602  -0.19208  -0.19196  -0.17546
 Alpha  occ. eigenvalues --   -0.16133
 Alpha virt. eigenvalues --   -0.11754  -0.07000  -0.06348  -0.04828  -0.03084
 Alpha virt. eigenvalues --   -0.02576  -0.02067  -0.01596  -0.01473  -0.00160
 Alpha virt. eigenvalues --    0.00978   0.01300   0.01935   0.02396   0.02544

 Mulliken charges:
               1
     1  Mg   0.690741
     2  C   -0.013182
     3  C   -0.051093
     4  C   -0.027693
     5  C   -0.075387
     6  N   -0.231869
     7  C   -0.046043
     8  C    0.041919
     9  C    0.002194
    10  C   -0.009432
    11  C    0.121593
    12  C    0.070757
    13  C    0.161446
    14  C    0.075546
    15  O   -0.161455
    16  O   -0.299925
    17  N   -0.242828
    18  C    0.138558
    19  C   -0.142855
    20  C   -0.039903
    21  C    0.137444
    22  C    0.181273
    23  C    0.003546
    24  O   -0.172760
    25  C    0.111278
    26  N   -0.224376
    27  C   -0.017036
    28  C    0.017056
    29  C    0.035792
    30  C    0.036487
    31  C    0.126433
    32  C    0.062573
    33  C    0.083422
    34  N   -0.292682
    35  C    0.085334
    36  C   -0.175815
    37  C    0.072041
    38  C    0.122362
    39  C    0.179221
    40  C   -0.039275
    41  O   -0.086784
    42  C    0.037715
    43  C    0.094195
    44  O   -0.171164
    45  O   -0.265334
    46  C    0.220436
    47  C    0.308940
    48  C   -0.107147
    49  C   -0.116466
    50  C    0.158698
    51  C    0.074637
    52  C    0.139102
    53  C    0.104409
    54  C   -0.081057
    55  C    0.103497
    56  C    0.075193
    57  C    0.067894
    58  C    0.104821
    59  C   -0.105354
    60  C    0.133037
    61  C    0.145942
    62  C    0.126645
    63  C    0.060350
    64  C   -0.106754
    65  C    0.119314
    66  C    0.111877
    67  H   -0.059480
    68  H   -0.112003
    69  H   -0.069854
    70  H   -0.028572
    71  H   -0.007204
    72  H   -0.008608
    73  H   -0.001063
    74  H   -0.002412
    75  H   -0.017329
    76  H   -0.012487
    77  H    0.008431
    78  H   -0.019266
    79  H    0.004656
    80  H   -0.039140
    81  H    0.018430
    82  H    0.022716
    83  H    0.000792
    84  H   -0.000858
    85  H   -0.020131
    86  H   -0.034422
    87  H    0.005946
    88  H   -0.004122
    89  H    0.006134
    90  H   -0.015930
    91  H   -0.027322
    92  H   -0.003483
    93  H   -0.003186
    94  H    0.002240
    95  H   -0.016382
    96  H    0.013587
    97  H    0.016869
    98  H   -0.015851
    99  H    0.026674
   100  H    0.015118
   101  H    0.008223
   102  H   -0.008857
   103  H    0.010074
   104  H   -0.037576
   105  H   -0.021167
   106  H   -0.007124
   107  H   -0.012210
   108  H   -0.039460
   109  H   -0.042594
   110  H   -0.019050
   111  H   -0.023877
   112  H   -0.052612
   113  H   -0.039669
   114  H   -0.032487
   115  H   -0.018718
   116  H   -0.011984
   117  H   -0.016195
   118  H   -0.031010
   119  H   -0.023658
   120  H   -0.035263
   121  H   -0.019574
   122  H   -0.044630
   123  H   -0.045480
   124  H   -0.043284
   125  H   -0.032347
   126  H   -0.019433
   127  H   -0.016182
   128  H   -0.034735
   129  H   -0.061147
   130  H   -0.028925
   131  H   -0.027518
   132  H   -0.047172
   133  H   -0.034837
   134  H   -0.038693
   135  H   -0.039150
   136  H   -0.005321
   137  H   -0.025816
   138  H   -0.021410
   139  H   -0.016595
   140  H   -0.005077
 Sum of Mulliken charges =  -0.00000

 Dipole moment (field-independent basis, Debye):
    X=              2.0799    Y=              1.9050    Z=             -1.9954  Tot=              3.4549
 Quadrupole moment (field-independent basis, Debye-Ang):
   XX=           -412.0770   YY=           -392.7450   ZZ=           -435.1890
   XY=            -10.3935   XZ=              1.5909   YZ=            -36.4614

 Normal termination of Gaussian 16 at Wed Apr 27 00:07:00 2022.
