 Gaussian 16, Revision A.03,
 Gaussian 16:  ES64L-G16RevA.03 25-Dec-2016

 -----------------------------------
 #p cam-b3lyp/Def2SVP td=(nstates=5)
 -----------------------------------

 -------------------------------------------------------
 step_1001_chromophore_8 TDDFT with cam-b3lyp functional
 -------------------------------------------------------
 Symbolic Z-matrix:
 Charge =  0 Multiplicity = 1

                         Standard orientation:
 ---------------------------------------------------------------------
 Center     Atomic      Atomic             Coordinates (Angstroms)
 Number     Number       Type             X           Y           Z
 ---------------------------------------------------------------------
      1         12           0       -4.589211    1.233593   -0.027400
      2          6           0       -4.357633   -1.999392   -1.107272
      3          6           0       -4.309393    0.199952    3.271792
      4          6           0       -4.641922    4.486653    0.946688
      5          6           0       -4.441634    2.262132   -3.354991
      6          7           0       -4.159059   -0.614040    0.959950
      7          6           0       -4.161166   -1.832978    0.305528
      8          6           0       -3.882563   -2.916598    1.315119
      9          6           0       -3.988040   -2.361980    2.709786
     10          6           0       -4.158680   -0.809784    2.311333
     11          6           0       -5.246108   -2.839537    3.488980
     12          6           0       -2.418527   -3.450187    1.146766
     13          6           0       -2.216808   -4.966511    1.247660
     14          6           0       -0.853075   -5.373167    1.894802
     15          8           0       -0.636364   -5.585437    3.061726
     16          8           0        0.157319   -5.301636    0.914579
     17          7           0       -4.634624    2.170760    1.895344
     18          6           0       -4.558149    1.566359    3.099973
     19          6           0       -4.583109    2.615928    4.149054
     20          6           0       -4.526293    3.899941    3.459839
     21          6           0       -4.621208    3.521999    2.031120
     22          6           0       -4.386381    2.312160    5.625684
     23          6           0       -4.491287    5.319699    4.272243
     24          8           0       -4.595180    5.441168    5.509478
     25          6           0       -4.437930    6.636826    3.475299
     26          7           0       -4.507155    3.087011   -1.029687
     27          6           0       -4.519095    4.290990   -0.431265
     28          6           0       -4.404985    5.512282   -1.377637
     29          6           0       -4.302709    4.776257   -2.786098
     30          6           0       -4.500653    3.255996   -2.406578
     31          6           0       -5.624513    6.448154   -1.239428
     32          6           0       -3.051631    4.958232   -3.728766
     33          6           0       -3.299943    5.914141   -4.877344
     34          7           0       -4.304330    0.364525   -1.880491
     35          6           0       -4.367432    0.867573   -3.198260
     36          6           0       -4.384166   -0.199260   -4.133216
     37          6           0       -4.370392   -1.337293   -3.329306
     38          6           0       -4.410039   -0.971332   -1.990028
     39          6           0       -4.244705   -0.093087   -5.639217
     40          6           0       -4.317277   -2.789858   -3.420187
     41          8           0       -4.317662   -3.544165   -4.346134
     42          6           0       -4.430367   -3.289981   -1.863537
     43          6           0       -5.642958   -4.123628   -1.580497
     44          8           0       -6.810764   -3.921749   -1.857011
     45          8           0       -5.233171   -5.201659   -0.878611
     46          6           0       -6.261987   -6.198337   -0.624461
     47          6           0        1.547103   -5.447661    1.274244
     48          6           0        2.244427   -4.266440    0.600286
     49          6           0        3.565580   -4.116765    0.420748
     50          6           0        4.577624   -5.056440    0.935678
     51          6           0        4.090168   -3.022335   -0.443164
     52          6           0        4.370695   -1.646922    0.201962
     53          6           0        5.023734   -0.842311   -0.873848
     54          6           0        5.999261    0.260977   -0.239492
     55          6           0        5.443108    1.703059   -0.478794
     56          6           0        7.458893    0.005537   -0.706076
     57          6           0        8.502623    0.537629    0.380447
     58          6           0        9.838597   -0.240892    0.252855
     59          6           0       11.013802    0.684942    0.122356
     60          6           0       10.983729    1.358437   -1.237817
     61          6           0       12.322321   -0.084290    0.355620
     62          6           0       13.371840    0.808858    0.935529
     63          6           0       14.635775    0.755218    0.033679
     64          6           0       15.261269    2.094823   -0.364297
     65          6           0       16.026375    2.630478    0.867255
     66          6           0       15.998635    2.066080   -1.732236
     67          1           0       -4.109681   -0.145107    4.288966
     68          1           0       -4.695683    5.551731    1.181021
     69          1           0       -4.520454    2.524345   -4.412985
     70          1           0       -4.595907   -3.737360    1.233984
     71          1           0       -3.091013   -2.500804    3.313043
     72          1           0       -5.286151   -3.925913    3.417243
     73          1           0       -6.148595   -2.426609    3.038770
     74          1           0       -5.204030   -2.577769    4.546318
     75          1           0       -1.813525   -2.932322    1.891099
     76          1           0       -1.991179   -3.172202    0.184201
     77          1           0       -2.303346   -5.391852    0.247559
     78          1           0       -3.049619   -5.249484    1.890331
     79          1           0       -3.330290    2.322929    5.895813
     80          1           0       -4.581679    1.247246    5.756017
     81          1           0       -5.050182    2.821561    6.324667
     82          1           0       -5.324625    6.647453    2.840853
     83          1           0       -3.663677    6.678823    2.708397
     84          1           0       -4.298554    7.539927    4.068794
     85          1           0       -3.469251    6.049322   -1.221178
     86          1           0       -5.203039    4.942630   -3.377904
     87          1           0       -6.524750    5.871723   -1.028140
     88          1           0       -5.764806    7.017671   -2.158835
     89          1           0       -5.306783    7.114009   -0.435850
     90          1           0       -2.683520    4.036043   -4.178655
     91          1           0       -2.277356    5.300206   -3.041929
     92          1           0       -4.350683    6.003125   -5.154586
     93          1           0       -2.757130    5.428018   -5.688430
     94          1           0       -2.896725    6.810654   -4.406915
     95          1           0       -3.913489    0.887193   -5.981450
     96          1           0       -5.240363   -0.297713   -6.033421
     97          1           0       -3.489697   -0.816301   -5.945730
     98          1           0       -3.580933   -3.924942   -1.611928
     99          1           0       -6.822887   -6.422072   -1.530549
    100          1           0       -6.860843   -5.848337    0.216489
    101          1           0       -5.738427   -7.114367   -0.348997
    102          1           0        1.849098   -6.381606    0.799955
    103          1           0        1.819027   -5.621754    2.315299
    104          1           0        1.581157   -3.596934    0.050911
    105          1           0        4.210850   -5.931971    1.472888
    106          1           0        5.347428   -4.571824    1.537338
    107          1           0        5.118725   -5.441865    0.071695
    108          1           0        3.348849   -2.888016   -1.229778
    109          1           0        4.929761   -3.417058   -1.014730
    110          1           0        4.988431   -1.750941    1.094340
    111          1           0        3.377143   -1.243637    0.402124
    112          1           0        4.239797   -0.372804   -1.467552
    113          1           0        5.535514   -1.345537   -1.694653
    114          1           0        6.002174    0.179848    0.846852
    115          1           0        6.064389    2.132726   -1.264126
    116          1           0        5.500480    2.203652    0.486950
    117          1           0        4.414382    1.767795   -0.832117
    118          1           0        7.652260    0.510917   -1.651975
    119          1           0        7.625641   -1.048448   -0.927445
    120          1           0        8.126816    0.356825    1.387715
    121          1           0        8.626602    1.612444    0.247733
    122          1           0        9.721964   -0.899139   -0.608930
    123          1           0        9.975668   -0.885127    1.121421
    124          1           0       10.871856    1.411166    0.922184
    125          1           0        9.975753    1.656231   -1.524864
    126          1           0       11.270152    0.692569   -2.052024
    127          1           0       11.545675    2.283358   -1.111830
    128          1           0       12.495136   -0.714434   -0.517383
    129          1           0       12.081165   -0.829129    1.114307
    130          1           0       13.714867    0.537457    1.934364
    131          1           0       13.063013    1.854030    0.960568
    132          1           0       14.467263    0.266268   -0.925493
    133          1           0       15.299380    0.058968    0.546632
    134          1           0       14.490702    2.860726   -0.450859
    135          1           0       16.963863    3.013535    0.465542
    136          1           0       16.128717    1.880404    1.650516
    137          1           0       15.589015    3.564251    1.221544
    138          1           0       16.454755    1.078913   -1.806144
    139          1           0       16.828598    2.762329   -1.858989
    140          1           0       15.259295    2.145202   -2.528352
 ---------------------------------------------------------------------

 SCF Done:  E(RCAM-B3LYP) =  -3007.18409487     A.U. after   18 cycles

 Excitation energies and oscillator strengths:

 Excited State   1:      Singlet-A      1.7348 eV  714.69 nm  f=0.3804  <S**2>=0.000
     245 -> 248        0.18345
     246 -> 247        0.68558
     245 <- 248        0.10921
 This state for optimization and/or second-order correction.
 Total Energy, E(TD-HF/TD-DFT) =  -3007.12034209
 Copying the excited state density for this state as the 1-particle RhoCI density.

 Excited State   2:      Singlet-A      2.2624 eV  548.03 nm  f=0.1051  <S**2>=0.000
     245 -> 247        0.63528
     246 -> 248       -0.29990

 Excited State   3:      Singlet-A      3.3557 eV  369.47 nm  f=0.0013  <S**2>=0.000
     242 -> 247        0.18830
     243 -> 247        0.66683

 Excited State   4:      Singlet-A      3.5044 eV  353.80 nm  f=0.1222  <S**2>=0.000
     241 -> 247       -0.11840
     242 -> 247        0.53594
     243 -> 247       -0.16063
     245 -> 247        0.12360
     246 -> 248        0.38219

 Excited State   5:      Singlet-A      3.5593 eV  348.34 nm  f=0.0873  <S**2>=0.000
     239 -> 247        0.14514
     241 -> 247        0.48840
     241 -> 249       -0.20246
     241 -> 250       -0.18707
     242 -> 247        0.25798
     245 -> 247       -0.10625
     246 -> 248       -0.18871

 The electronic state is 1-A.
 Alpha  occ. eigenvalues --  -46.88489 -19.25599 -19.24337 -19.20485 -19.19877
 Alpha  occ. eigenvalues --  -19.19717 -19.19539 -14.43118 -14.42292 -14.40061
 Alpha  occ. eigenvalues --  -14.38850 -10.39874 -10.39274 -10.37069 -10.35228
 Alpha  occ. eigenvalues --  -10.32037 -10.31753 -10.31732 -10.31699 -10.31678
 Alpha  occ. eigenvalues --  -10.31295 -10.30893 -10.30368 -10.29415 -10.28984
 Alpha  occ. eigenvalues --  -10.28885 -10.28588 -10.28462 -10.28179 -10.28090
 Alpha  occ. eigenvalues --  -10.28075 -10.28058 -10.27875 -10.27848 -10.27775
 Alpha  occ. eigenvalues --  -10.27356 -10.27229 -10.27124 -10.27034 -10.26649
 Alpha  occ. eigenvalues --  -10.26579 -10.26543 -10.26519 -10.26488 -10.25869
 Alpha  occ. eigenvalues --  -10.25832 -10.25703 -10.25568 -10.25543 -10.25280
 Alpha  occ. eigenvalues --  -10.25133 -10.25130 -10.25025 -10.24953 -10.24924
 Alpha  occ. eigenvalues --  -10.24886 -10.24658 -10.24571 -10.24520 -10.24464
 Alpha  occ. eigenvalues --  -10.24396 -10.24257 -10.24012 -10.23964 -10.23951
 Alpha  occ. eigenvalues --  -10.23879  -3.17082  -1.91994  -1.91533  -1.91389
 Alpha  occ. eigenvalues --   -1.17663  -1.15704  -1.11519  -1.09092  -1.08339
 Alpha  occ. eigenvalues --   -1.08037  -1.04548  -1.03636  -1.03588  -1.02659
 Alpha  occ. eigenvalues --   -0.93089  -0.90833  -0.90560  -0.90405  -0.89091
 Alpha  occ. eigenvalues --   -0.88654  -0.88423  -0.87663  -0.87590  -0.86806
 Alpha  occ. eigenvalues --   -0.85792  -0.85449  -0.84727  -0.84482  -0.83783
 Alpha  occ. eigenvalues --   -0.82699  -0.82378  -0.81262  -0.81170  -0.80483
 Alpha  occ. eigenvalues --   -0.79484  -0.78299  -0.77748  -0.77146  -0.76118
 Alpha  occ. eigenvalues --   -0.75802  -0.75665  -0.75354  -0.75159  -0.73919
 Alpha  occ. eigenvalues --   -0.73128  -0.72444  -0.71898  -0.69941  -0.68883
 Alpha  occ. eigenvalues --   -0.68657  -0.68461  -0.66724  -0.66709  -0.65867
 Alpha  occ. eigenvalues --   -0.65416  -0.65208  -0.64989  -0.64681  -0.64118
 Alpha  occ. eigenvalues --   -0.63661  -0.63264  -0.62502  -0.62173  -0.60725
 Alpha  occ. eigenvalues --   -0.60140  -0.59690  -0.59219  -0.58847  -0.58393
 Alpha  occ. eigenvalues --   -0.57812  -0.57088  -0.56254  -0.56123  -0.55708
 Alpha  occ. eigenvalues --   -0.55472  -0.55293  -0.54633  -0.54341  -0.54261
 Alpha  occ. eigenvalues --   -0.54104  -0.53658  -0.53627  -0.53088  -0.53055
 Alpha  occ. eigenvalues --   -0.52714  -0.52575  -0.52286  -0.51900  -0.51803
 Alpha  occ. eigenvalues --   -0.51700  -0.51506  -0.51176  -0.50940  -0.50604
 Alpha  occ. eigenvalues --   -0.50297  -0.50215  -0.50006  -0.49940  -0.49777
 Alpha  occ. eigenvalues --   -0.49748  -0.49506  -0.49461  -0.48882  -0.48826
 Alpha  occ. eigenvalues --   -0.48710  -0.48425  -0.48039  -0.47858  -0.47725
 Alpha  occ. eigenvalues --   -0.47562  -0.47410  -0.47183  -0.47056  -0.46980
 Alpha  occ. eigenvalues --   -0.46893  -0.46710  -0.46302  -0.46093  -0.45910
 Alpha  occ. eigenvalues --   -0.45842  -0.45629  -0.45392  -0.45286  -0.45183
 Alpha  occ. eigenvalues --   -0.45012  -0.44535  -0.44490  -0.44241  -0.43994
 Alpha  occ. eigenvalues --   -0.43790  -0.43499  -0.43436  -0.43348  -0.43183
 Alpha  occ. eigenvalues --   -0.42866  -0.42815  -0.42739  -0.42610  -0.42457
 Alpha  occ. eigenvalues --   -0.41974  -0.41903  -0.41845  -0.41636  -0.41487
 Alpha  occ. eigenvalues --   -0.41417  -0.41309  -0.40917  -0.40631  -0.40613
 Alpha  occ. eigenvalues --   -0.40255  -0.39892  -0.39361  -0.39267  -0.38739
 Alpha  occ. eigenvalues --   -0.38409  -0.38401  -0.37812  -0.37804  -0.37599
 Alpha  occ. eigenvalues --   -0.37478  -0.37202  -0.37025  -0.36846  -0.36602
 Alpha  occ. eigenvalues --   -0.36461  -0.35624  -0.34812  -0.34738  -0.34482
 Alpha  occ. eigenvalues --   -0.34276  -0.33581  -0.32809  -0.31535  -0.31474
 Alpha  occ. eigenvalues --   -0.30723  -0.30163  -0.29893  -0.29116  -0.24420
 Alpha  occ. eigenvalues --   -0.21463
 Alpha virt. eigenvalues --   -0.08871  -0.01925   0.00328   0.02230   0.02807
 Alpha virt. eigenvalues --    0.04473   0.05216   0.05512   0.05937   0.06605
 Alpha virt. eigenvalues --    0.07569   0.08083   0.08336   0.08708   0.08879

 Mulliken charges:
               1
     1  Mg   0.824793
     2  C   -0.046887
     3  C   -0.065096
     4  C   -0.053839
     5  C   -0.087910
     6  N   -0.300919
     7  C   -0.003187
     8  C   -0.017027
     9  C   -0.048880
    10  C    0.009583
    11  C    0.066887
    12  C    0.024475
    13  C    0.094887
    14  C    0.158308
    15  O   -0.201873
    16  O   -0.366239
    17  N   -0.331456
    18  C    0.144898
    19  C   -0.146442
    20  C   -0.097689
    21  C    0.168847
    22  C    0.124163
    23  C    0.079306
    24  O   -0.211104
    25  C    0.029579
    26  N   -0.300199
    27  C    0.009941
    28  C   -0.038738
    29  C   -0.016575
    30  C    0.059805
    31  C    0.068524
    32  C    0.007193
    33  C    0.020741
    34  N   -0.379324
    35  C    0.088122
    36  C   -0.171846
    37  C   -0.008195
    38  C    0.157552
    39  C    0.129544
    40  C    0.062524
    41  O   -0.127110
    42  C   -0.036498
    43  C    0.186794
    44  O   -0.209110
    45  O   -0.329475
    46  C    0.179686
    47  C    0.276348
    48  C   -0.125068
    49  C   -0.140655
    50  C    0.094542
    51  C    0.016546
    52  C    0.083909
    53  C    0.048540
    54  C   -0.137300
    55  C    0.049860
    56  C    0.027116
    57  C    0.012116
    58  C    0.052002
    59  C   -0.163223
    60  C    0.076816
    61  C    0.083578
    62  C    0.072937
    63  C    0.003382
    64  C   -0.161847
    65  C    0.058268
    66  C    0.051023
    67  H   -0.023610
    68  H   -0.077058
    69  H   -0.034977
    70  H    0.006173
    71  H    0.027611
    72  H    0.014588
    73  H    0.024176
    74  H    0.022116
    75  H    0.013275
    76  H    0.017819
    77  H    0.039798
    78  H    0.011091
    79  H    0.032894
    80  H   -0.012899
    81  H    0.048168
    82  H    0.046093
    83  H    0.028355
    84  H    0.034617
    85  H    0.014339
    86  H    0.000176
    87  H    0.031658
    88  H    0.021558
    89  H    0.026669
    90  H    0.014862
    91  H    0.000041
    92  H    0.018802
    93  H    0.020052
    94  H    0.024064
    95  H    0.007547
    96  H    0.039159
    97  H    0.041304
    98  H    0.027148
    99  H    0.051098
   100  H    0.036962
   101  H    0.031834
   102  H    0.018056
   103  H    0.040246
   104  H   -0.003671
   105  H    0.003742
   106  H    0.017397
   107  H    0.012584
   108  H   -0.008130
   109  H   -0.013038
   110  H    0.007198
   111  H    0.004525
   112  H   -0.021716
   113  H   -0.010580
   114  H   -0.002283
   115  H    0.003458
   116  H    0.010844
   117  H    0.008263
   118  H   -0.005588
   119  H    0.003963
   120  H   -0.005604
   121  H    0.006909
   122  H   -0.016569
   123  H   -0.014336
   124  H   -0.010504
   125  H   -0.008481
   126  H    0.004694
   127  H    0.007130
   128  H   -0.005459
   129  H   -0.027695
   130  H    0.000410
   131  H   -0.000870
   132  H   -0.017692
   133  H   -0.005822
   134  H   -0.007891
   135  H   -0.013562
   136  H    0.017353
   137  H   -0.000716
   138  H    0.002048
   139  H    0.008422
   140  H    0.018044
 Sum of Mulliken charges =  -0.00000

 Dipole moment (field-independent basis, Debye):
    X=              2.0050    Y=              2.1247    Z=             -1.5088  Tot=              3.2880
 Quadrupole moment (field-independent basis, Debye-Ang):
   XX=           -412.2169   YY=           -388.2676   ZZ=           -434.5367
   XY=            -11.2588   XZ=             -1.2322   YZ=            -36.5116

 Normal termination of Gaussian 16 at Tue Apr 26 23:02:57 2022.
