 Gaussian 16, Revision A.03,
 Gaussian 16:  ES64L-G16RevA.03 25-Dec-2016

 ---------------------------------
 #p PBE1PBE/Def2SVP td=(nstates=5)
 ---------------------------------

 -----------------------------------------------------
 step_1001_chromophore_8 TDDFT with PBE1PBE functional
 -----------------------------------------------------
 Symbolic Z-matrix:
 Charge =  0 Multiplicity = 1

                         Standard orientation:
 ---------------------------------------------------------------------
 Center     Atomic      Atomic             Coordinates (Angstroms)
 Number     Number       Type             X           Y           Z
 ---------------------------------------------------------------------
      1         12           0       -4.589211    1.233593   -0.027400
      2          6           0       -4.357633   -1.999392   -1.107272
      3          6           0       -4.309393    0.199952    3.271792
      4          6           0       -4.641922    4.486653    0.946688
      5          6           0       -4.441634    2.262132   -3.354991
      6          7           0       -4.159059   -0.614040    0.959950
      7          6           0       -4.161166   -1.832978    0.305528
      8          6           0       -3.882563   -2.916598    1.315119
      9          6           0       -3.988040   -2.361980    2.709786
     10          6           0       -4.158680   -0.809784    2.311333
     11          6           0       -5.246108   -2.839537    3.488980
     12          6           0       -2.418527   -3.450187    1.146766
     13          6           0       -2.216808   -4.966511    1.247660
     14          6           0       -0.853075   -5.373167    1.894802
     15          8           0       -0.636364   -5.585437    3.061726
     16          8           0        0.157319   -5.301636    0.914579
     17          7           0       -4.634624    2.170760    1.895344
     18          6           0       -4.558149    1.566359    3.099973
     19          6           0       -4.583109    2.615928    4.149054
     20          6           0       -4.526293    3.899941    3.459839
     21          6           0       -4.621208    3.521999    2.031120
     22          6           0       -4.386381    2.312160    5.625684
     23          6           0       -4.491287    5.319699    4.272243
     24          8           0       -4.595180    5.441168    5.509478
     25          6           0       -4.437930    6.636826    3.475299
     26          7           0       -4.507155    3.087011   -1.029687
     27          6           0       -4.519095    4.290990   -0.431265
     28          6           0       -4.404985    5.512282   -1.377637
     29          6           0       -4.302709    4.776257   -2.786098
     30          6           0       -4.500653    3.255996   -2.406578
     31          6           0       -5.624513    6.448154   -1.239428
     32          6           0       -3.051631    4.958232   -3.728766
     33          6           0       -3.299943    5.914141   -4.877344
     34          7           0       -4.304330    0.364525   -1.880491
     35          6           0       -4.367432    0.867573   -3.198260
     36          6           0       -4.384166   -0.199260   -4.133216
     37          6           0       -4.370392   -1.337293   -3.329306
     38          6           0       -4.410039   -0.971332   -1.990028
     39          6           0       -4.244705   -0.093087   -5.639217
     40          6           0       -4.317277   -2.789858   -3.420187
     41          8           0       -4.317662   -3.544165   -4.346134
     42          6           0       -4.430367   -3.289981   -1.863537
     43          6           0       -5.642958   -4.123628   -1.580497
     44          8           0       -6.810764   -3.921749   -1.857011
     45          8           0       -5.233171   -5.201659   -0.878611
     46          6           0       -6.261987   -6.198337   -0.624461
     47          6           0        1.547103   -5.447661    1.274244
     48          6           0        2.244427   -4.266440    0.600286
     49          6           0        3.565580   -4.116765    0.420748
     50          6           0        4.577624   -5.056440    0.935678
     51          6           0        4.090168   -3.022335   -0.443164
     52          6           0        4.370695   -1.646922    0.201962
     53          6           0        5.023734   -0.842311   -0.873848
     54          6           0        5.999261    0.260977   -0.239492
     55          6           0        5.443108    1.703059   -0.478794
     56          6           0        7.458893    0.005537   -0.706076
     57          6           0        8.502623    0.537629    0.380447
     58          6           0        9.838597   -0.240892    0.252855
     59          6           0       11.013802    0.684942    0.122356
     60          6           0       10.983729    1.358437   -1.237817
     61          6           0       12.322321   -0.084290    0.355620
     62          6           0       13.371840    0.808858    0.935529
     63          6           0       14.635775    0.755218    0.033679
     64          6           0       15.261269    2.094823   -0.364297
     65          6           0       16.026375    2.630478    0.867255
     66          6           0       15.998635    2.066080   -1.732236
     67          1           0       -4.109681   -0.145107    4.288966
     68          1           0       -4.695683    5.551731    1.181021
     69          1           0       -4.520454    2.524345   -4.412985
     70          1           0       -4.595907   -3.737360    1.233984
     71          1           0       -3.091013   -2.500804    3.313043
     72          1           0       -5.286151   -3.925913    3.417243
     73          1           0       -6.148595   -2.426609    3.038770
     74          1           0       -5.204030   -2.577769    4.546318
     75          1           0       -1.813525   -2.932322    1.891099
     76          1           0       -1.991179   -3.172202    0.184201
     77          1           0       -2.303346   -5.391852    0.247559
     78          1           0       -3.049619   -5.249484    1.890331
     79          1           0       -3.330290    2.322929    5.895813
     80          1           0       -4.581679    1.247246    5.756017
     81          1           0       -5.050182    2.821561    6.324667
     82          1           0       -5.324625    6.647453    2.840853
     83          1           0       -3.663677    6.678823    2.708397
     84          1           0       -4.298554    7.539927    4.068794
     85          1           0       -3.469251    6.049322   -1.221178
     86          1           0       -5.203039    4.942630   -3.377904
     87          1           0       -6.524750    5.871723   -1.028140
     88          1           0       -5.764806    7.017671   -2.158835
     89          1           0       -5.306783    7.114009   -0.435850
     90          1           0       -2.683520    4.036043   -4.178655
     91          1           0       -2.277356    5.300206   -3.041929
     92          1           0       -4.350683    6.003125   -5.154586
     93          1           0       -2.757130    5.428018   -5.688430
     94          1           0       -2.896725    6.810654   -4.406915
     95          1           0       -3.913489    0.887193   -5.981450
     96          1           0       -5.240363   -0.297713   -6.033421
     97          1           0       -3.489697   -0.816301   -5.945730
     98          1           0       -3.580933   -3.924942   -1.611928
     99          1           0       -6.822887   -6.422072   -1.530549
    100          1           0       -6.860843   -5.848337    0.216489
    101          1           0       -5.738427   -7.114367   -0.348997
    102          1           0        1.849098   -6.381606    0.799955
    103          1           0        1.819027   -5.621754    2.315299
    104          1           0        1.581157   -3.596934    0.050911
    105          1           0        4.210850   -5.931971    1.472888
    106          1           0        5.347428   -4.571824    1.537338
    107          1           0        5.118725   -5.441865    0.071695
    108          1           0        3.348849   -2.888016   -1.229778
    109          1           0        4.929761   -3.417058   -1.014730
    110          1           0        4.988431   -1.750941    1.094340
    111          1           0        3.377143   -1.243637    0.402124
    112          1           0        4.239797   -0.372804   -1.467552
    113          1           0        5.535514   -1.345537   -1.694653
    114          1           0        6.002174    0.179848    0.846852
    115          1           0        6.064389    2.132726   -1.264126
    116          1           0        5.500480    2.203652    0.486950
    117          1           0        4.414382    1.767795   -0.832117
    118          1           0        7.652260    0.510917   -1.651975
    119          1           0        7.625641   -1.048448   -0.927445
    120          1           0        8.126816    0.356825    1.387715
    121          1           0        8.626602    1.612444    0.247733
    122          1           0        9.721964   -0.899139   -0.608930
    123          1           0        9.975668   -0.885127    1.121421
    124          1           0       10.871856    1.411166    0.922184
    125          1           0        9.975753    1.656231   -1.524864
    126          1           0       11.270152    0.692569   -2.052024
    127          1           0       11.545675    2.283358   -1.111830
    128          1           0       12.495136   -0.714434   -0.517383
    129          1           0       12.081165   -0.829129    1.114307
    130          1           0       13.714867    0.537457    1.934364
    131          1           0       13.063013    1.854030    0.960568
    132          1           0       14.467263    0.266268   -0.925493
    133          1           0       15.299380    0.058968    0.546632
    134          1           0       14.490702    2.860726   -0.450859
    135          1           0       16.963863    3.013535    0.465542
    136          1           0       16.128717    1.880404    1.650516
    137          1           0       15.589015    3.564251    1.221544
    138          1           0       16.454755    1.078913   -1.806144
    139          1           0       16.828598    2.762329   -1.858989
    140          1           0       15.259295    2.145202   -2.528352
 ---------------------------------------------------------------------

 SCF Done:  E(RPBE1PBE) =  -3005.37261291     A.U. after   15 cycles

 Excitation energies and oscillator strengths:

 Excited State   1:      Singlet-A      1.8892 eV  656.29 nm  f=0.3702  <S**2>=0.000
     245 -> 248        0.17882
     246 -> 247        0.69217
     246 <- 247       -0.10566
 This state for optimization and/or second-order correction.
 Total Energy, E(TD-HF/TD-DFT) =  -3005.30318773
 Copying the excited state density for this state as the 1-particle RhoCI density.

 Excited State   2:      Singlet-A      2.2652 eV  547.34 nm  f=0.1049  <S**2>=0.000
     245 -> 247        0.64781
     246 -> 248       -0.27310

 Excited State   3:      Singlet-A      3.0183 eV  410.77 nm  f=0.0029  <S**2>=0.000
     243 -> 247        0.69727

 Excited State   4:      Singlet-A      3.0496 eV  406.56 nm  f=0.0032  <S**2>=0.000
     241 -> 247        0.36149
     242 -> 247        0.56753

 Excited State   5:      Singlet-A      3.1777 eV  390.18 nm  f=0.0005  <S**2>=0.000
     240 -> 247        0.13216
     241 -> 247        0.48759
     242 -> 247       -0.34588
     244 -> 247        0.28891
     246 -> 248       -0.16900

 The electronic state is 1-A.
 Alpha  occ. eigenvalues --  -46.91889 -19.26236 -19.25089 -19.20745 -19.20028
 Alpha  occ. eigenvalues --  -19.19934 -19.19838 -14.42588 -14.41870 -14.39615
 Alpha  occ. eigenvalues --  -14.38602 -10.36931 -10.36267 -10.34197 -10.32443
 Alpha  occ. eigenvalues --  -10.29605 -10.29393 -10.29251 -10.29202 -10.29097
 Alpha  occ. eigenvalues --  -10.28912 -10.28773 -10.27888 -10.27294 -10.26688
 Alpha  occ. eigenvalues --  -10.26518 -10.26357 -10.26101 -10.25981 -10.25947
 Alpha  occ. eigenvalues --  -10.25837 -10.25741 -10.25698 -10.25628 -10.25348
 Alpha  occ. eigenvalues --  -10.24893 -10.24884 -10.24814 -10.24513 -10.24256
 Alpha  occ. eigenvalues --  -10.24233 -10.24023 -10.24022 -10.23928 -10.23482
 Alpha  occ. eigenvalues --  -10.23292 -10.23181 -10.23153 -10.22936 -10.22806
 Alpha  occ. eigenvalues --  -10.22797 -10.22787 -10.22723 -10.22585 -10.22479
 Alpha  occ. eigenvalues --  -10.22465 -10.22332 -10.22090 -10.22058 -10.21901
 Alpha  occ. eigenvalues --  -10.21791 -10.21630 -10.21569 -10.21518 -10.21511
 Alpha  occ. eigenvalues --  -10.21252  -3.14060  -1.86914  -1.86431  -1.86289
 Alpha  occ. eigenvalues --   -1.12445  -1.10523  -1.06370  -1.03751  -1.03242
 Alpha  occ. eigenvalues --   -1.02849  -0.99165  -0.98264  -0.98222  -0.97316
 Alpha  occ. eigenvalues --   -0.87495  -0.84983  -0.84726  -0.84581  -0.83391
 Alpha  occ. eigenvalues --   -0.82963  -0.82523  -0.81983  -0.81719  -0.81239
 Alpha  occ. eigenvalues --   -0.80011  -0.79609  -0.79047  -0.78644  -0.78056
 Alpha  occ. eigenvalues --   -0.76918  -0.76599  -0.75518  -0.75404  -0.74791
 Alpha  occ. eigenvalues --   -0.73639  -0.72621  -0.72083  -0.71399  -0.70441
 Alpha  occ. eigenvalues --   -0.69989  -0.69742  -0.69687  -0.69253  -0.68099
 Alpha  occ. eigenvalues --   -0.67591  -0.66779  -0.66354  -0.64221  -0.63278
 Alpha  occ. eigenvalues --   -0.63005  -0.62850  -0.61088  -0.60913  -0.60287
 Alpha  occ. eigenvalues --   -0.59867  -0.59700  -0.59250  -0.59204  -0.58308
 Alpha  occ. eigenvalues --   -0.58071  -0.57443  -0.57080  -0.56363  -0.55241
 Alpha  occ. eigenvalues --   -0.54673  -0.54207  -0.53772  -0.53442  -0.52896
 Alpha  occ. eigenvalues --   -0.52352  -0.51555  -0.50792  -0.50565  -0.50280
 Alpha  occ. eigenvalues --   -0.50083  -0.49700  -0.49136  -0.48899  -0.48686
 Alpha  occ. eigenvalues --   -0.48570  -0.48293  -0.48026  -0.47761  -0.47650
 Alpha  occ. eigenvalues --   -0.47260  -0.47086  -0.46756  -0.46457  -0.46339
 Alpha  occ. eigenvalues --   -0.46211  -0.46061  -0.45853  -0.45383  -0.45129
 Alpha  occ. eigenvalues --   -0.44881  -0.44682  -0.44646  -0.44518  -0.44336
 Alpha  occ. eigenvalues --   -0.44317  -0.44127  -0.44027  -0.43496  -0.43373
 Alpha  occ. eigenvalues --   -0.43271  -0.43003  -0.42736  -0.42468  -0.42357
 Alpha  occ. eigenvalues --   -0.42162  -0.42046  -0.41875  -0.41705  -0.41662
 Alpha  occ. eigenvalues --   -0.41581  -0.41388  -0.41022  -0.40878  -0.40653
 Alpha  occ. eigenvalues --   -0.40524  -0.40242  -0.40035  -0.40028  -0.39959
 Alpha  occ. eigenvalues --   -0.39775  -0.39369  -0.39112  -0.39076  -0.38789
 Alpha  occ. eigenvalues --   -0.38570  -0.38292  -0.38178  -0.38134  -0.37964
 Alpha  occ. eigenvalues --   -0.37620  -0.37599  -0.37478  -0.37419  -0.37300
 Alpha  occ. eigenvalues --   -0.36867  -0.36721  -0.36567  -0.36509  -0.36306
 Alpha  occ. eigenvalues --   -0.36157  -0.36137  -0.35705  -0.35499  -0.35357
 Alpha  occ. eigenvalues --   -0.34994  -0.34821  -0.34268  -0.34177  -0.33735
 Alpha  occ. eigenvalues --   -0.33232  -0.33167  -0.32833  -0.32634  -0.32587
 Alpha  occ. eigenvalues --   -0.32226  -0.32155  -0.31902  -0.31823  -0.31441
 Alpha  occ. eigenvalues --   -0.31354  -0.30504  -0.30013  -0.29756  -0.29446
 Alpha  occ. eigenvalues --   -0.29220  -0.28933  -0.27786  -0.27115  -0.26230
 Alpha  occ. eigenvalues --   -0.25948  -0.25723  -0.25409  -0.24420  -0.21326
 Alpha  occ. eigenvalues --   -0.19099
 Alpha virt. eigenvalues --   -0.11360  -0.05407  -0.03962  -0.02233  -0.00248
 Alpha virt. eigenvalues --    0.00353   0.00572   0.01231   0.01559   0.02738
 Alpha virt. eigenvalues --    0.03777   0.04230   0.04792   0.05219   0.05517

 Mulliken charges:
               1
     1  Mg   0.975181
     2  C   -0.068931
     3  C   -0.063057
     4  C   -0.045074
     5  C   -0.088816
     6  N   -0.407486
     7  C    0.075156
     8  C   -0.097168
     9  C   -0.125654
    10  C    0.051526
    11  C    0.009334
    12  C   -0.015795
    13  C    0.011730
    14  C    0.225357
    15  O   -0.236391
    16  O   -0.395841
    17  N   -0.449273
    18  C    0.169194
    19  C   -0.171010
    20  C   -0.126671
    21  C    0.187183
    22  C    0.063670
    23  C    0.122794
    24  O   -0.245217
    25  C   -0.046922
    26  N   -0.406737
    27  C    0.049451
    28  C   -0.120238
    29  C   -0.079600
    30  C    0.097059
    31  C    0.008014
    32  C   -0.055572
    33  C   -0.052176
    34  N   -0.501620
    35  C    0.111320
    36  C   -0.187558
    37  C   -0.064188
    38  C    0.214355
    39  C    0.075910
    40  C    0.165859
    41  O   -0.174267
    42  C   -0.144545
    43  C    0.280508
    44  O   -0.246701
    45  O   -0.362565
    46  C    0.124540
    47  C    0.240246
    48  C   -0.132254
    49  C   -0.188897
    50  C    0.033085
    51  C   -0.047167
    52  C    0.014196
    53  C   -0.000818
    54  C   -0.222893
    55  C   -0.006519
    56  C   -0.026481
    57  C   -0.050737
    58  C    0.000230
    59  C   -0.259611
    60  C    0.022196
    61  C    0.028331
    62  C    0.012626
    63  C   -0.053666
    64  C   -0.250747
    65  C   -0.000678
    66  C   -0.015549
    67  H    0.007299
    68  H   -0.041582
    69  H   -0.000700
    70  H    0.047626
    71  H    0.061579
    72  H    0.042802
    73  H    0.052090
    74  H    0.049566
    75  H    0.045963
    76  H    0.051058
    77  H    0.071791
    78  H    0.045402
    79  H    0.060293
    80  H    0.015282
    81  H    0.073994
    82  H    0.072471
    83  H    0.054745
    84  H    0.061921
    85  H    0.050486
    86  H    0.038462
    87  H    0.059476
    88  H    0.050166
    89  H    0.053913
    90  H    0.046958
    91  H    0.033897
    92  H    0.045700
    93  H    0.047391
    94  H    0.052176
    95  H    0.034291
    96  H    0.067780
    97  H    0.068713
    98  H    0.068354
    99  H    0.072384
   100  H    0.058667
   101  H    0.053772
   102  H    0.045816
   103  H    0.064849
   104  H    0.026013
   105  H    0.030387
   106  H    0.045446
   107  H    0.040761
   108  H    0.025023
   109  H    0.018829
   110  H    0.039793
   111  H    0.038872
   112  H    0.011223
   113  H    0.019470
   114  H    0.035652
   115  H    0.030425
   116  H    0.037697
   117  H    0.035008
   118  H    0.027069
   119  H    0.036036
   120  H    0.027559
   121  H    0.038571
   122  H    0.016528
   123  H    0.018412
   124  H    0.028384
   125  H    0.020612
   126  H    0.031218
   127  H    0.035734
   128  H    0.024836
   129  H    0.007040
   130  H    0.032449
   131  H    0.030946
   132  H    0.015946
   133  H    0.027201
   134  H    0.030970
   135  H    0.014929
   136  H    0.043754
   137  H    0.026673
   138  H    0.030474
   139  H    0.035490
   140  H    0.045753
 Sum of Mulliken charges =  -0.00000

 Dipole moment (field-independent basis, Debye):
    X=              2.0764    Y=              2.0926    Z=             -1.8511  Tot=              3.4810
 Quadrupole moment (field-independent basis, Debye-Ang):
   XX=           -410.1777   YY=           -384.7919   ZZ=           -430.5831
   XY=            -11.3812   XZ=              0.1339   YZ=            -38.1329

 Normal termination of Gaussian 16 at Tue Apr 26 23:27:39 2022.
