 Gaussian 16, Revision A.03,
 Gaussian 16:  ES64L-G16RevA.03 25-Dec-2016

 --------------------------------
 #p wB97XD/Def2SVP td=(nstates=5)
 --------------------------------

 ----------------------------------------------------
 step_1001_chromophore_8 TDDFT with wB97XD functional
 ----------------------------------------------------
 Symbolic Z-matrix:
 Charge =  0 Multiplicity = 1

                         Standard orientation:
 ---------------------------------------------------------------------
 Center     Atomic      Atomic             Coordinates (Angstroms)
 Number     Number       Type             X           Y           Z
 ---------------------------------------------------------------------
      1         12           0       -4.589211    1.233593   -0.027400
      2          6           0       -4.357633   -1.999392   -1.107272
      3          6           0       -4.309393    0.199952    3.271792
      4          6           0       -4.641922    4.486653    0.946688
      5          6           0       -4.441634    2.262132   -3.354991
      6          7           0       -4.159059   -0.614040    0.959950
      7          6           0       -4.161166   -1.832978    0.305528
      8          6           0       -3.882563   -2.916598    1.315119
      9          6           0       -3.988040   -2.361980    2.709786
     10          6           0       -4.158680   -0.809784    2.311333
     11          6           0       -5.246108   -2.839537    3.488980
     12          6           0       -2.418527   -3.450187    1.146766
     13          6           0       -2.216808   -4.966511    1.247660
     14          6           0       -0.853075   -5.373167    1.894802
     15          8           0       -0.636364   -5.585437    3.061726
     16          8           0        0.157319   -5.301636    0.914579
     17          7           0       -4.634624    2.170760    1.895344
     18          6           0       -4.558149    1.566359    3.099973
     19          6           0       -4.583109    2.615928    4.149054
     20          6           0       -4.526293    3.899941    3.459839
     21          6           0       -4.621208    3.521999    2.031120
     22          6           0       -4.386381    2.312160    5.625684
     23          6           0       -4.491287    5.319699    4.272243
     24          8           0       -4.595180    5.441168    5.509478
     25          6           0       -4.437930    6.636826    3.475299
     26          7           0       -4.507155    3.087011   -1.029687
     27          6           0       -4.519095    4.290990   -0.431265
     28          6           0       -4.404985    5.512282   -1.377637
     29          6           0       -4.302709    4.776257   -2.786098
     30          6           0       -4.500653    3.255996   -2.406578
     31          6           0       -5.624513    6.448154   -1.239428
     32          6           0       -3.051631    4.958232   -3.728766
     33          6           0       -3.299943    5.914141   -4.877344
     34          7           0       -4.304330    0.364525   -1.880491
     35          6           0       -4.367432    0.867573   -3.198260
     36          6           0       -4.384166   -0.199260   -4.133216
     37          6           0       -4.370392   -1.337293   -3.329306
     38          6           0       -4.410039   -0.971332   -1.990028
     39          6           0       -4.244705   -0.093087   -5.639217
     40          6           0       -4.317277   -2.789858   -3.420187
     41          8           0       -4.317662   -3.544165   -4.346134
     42          6           0       -4.430367   -3.289981   -1.863537
     43          6           0       -5.642958   -4.123628   -1.580497
     44          8           0       -6.810764   -3.921749   -1.857011
     45          8           0       -5.233171   -5.201659   -0.878611
     46          6           0       -6.261987   -6.198337   -0.624461
     47          6           0        1.547103   -5.447661    1.274244
     48          6           0        2.244427   -4.266440    0.600286
     49          6           0        3.565580   -4.116765    0.420748
     50          6           0        4.577624   -5.056440    0.935678
     51          6           0        4.090168   -3.022335   -0.443164
     52          6           0        4.370695   -1.646922    0.201962
     53          6           0        5.023734   -0.842311   -0.873848
     54          6           0        5.999261    0.260977   -0.239492
     55          6           0        5.443108    1.703059   -0.478794
     56          6           0        7.458893    0.005537   -0.706076
     57          6           0        8.502623    0.537629    0.380447
     58          6           0        9.838597   -0.240892    0.252855
     59          6           0       11.013802    0.684942    0.122356
     60          6           0       10.983729    1.358437   -1.237817
     61          6           0       12.322321   -0.084290    0.355620
     62          6           0       13.371840    0.808858    0.935529
     63          6           0       14.635775    0.755218    0.033679
     64          6           0       15.261269    2.094823   -0.364297
     65          6           0       16.026375    2.630478    0.867255
     66          6           0       15.998635    2.066080   -1.732236
     67          1           0       -4.109681   -0.145107    4.288966
     68          1           0       -4.695683    5.551731    1.181021
     69          1           0       -4.520454    2.524345   -4.412985
     70          1           0       -4.595907   -3.737360    1.233984
     71          1           0       -3.091013   -2.500804    3.313043
     72          1           0       -5.286151   -3.925913    3.417243
     73          1           0       -6.148595   -2.426609    3.038770
     74          1           0       -5.204030   -2.577769    4.546318
     75          1           0       -1.813525   -2.932322    1.891099
     76          1           0       -1.991179   -3.172202    0.184201
     77          1           0       -2.303346   -5.391852    0.247559
     78          1           0       -3.049619   -5.249484    1.890331
     79          1           0       -3.330290    2.322929    5.895813
     80          1           0       -4.581679    1.247246    5.756017
     81          1           0       -5.050182    2.821561    6.324667
     82          1           0       -5.324625    6.647453    2.840853
     83          1           0       -3.663677    6.678823    2.708397
     84          1           0       -4.298554    7.539927    4.068794
     85          1           0       -3.469251    6.049322   -1.221178
     86          1           0       -5.203039    4.942630   -3.377904
     87          1           0       -6.524750    5.871723   -1.028140
     88          1           0       -5.764806    7.017671   -2.158835
     89          1           0       -5.306783    7.114009   -0.435850
     90          1           0       -2.683520    4.036043   -4.178655
     91          1           0       -2.277356    5.300206   -3.041929
     92          1           0       -4.350683    6.003125   -5.154586
     93          1           0       -2.757130    5.428018   -5.688430
     94          1           0       -2.896725    6.810654   -4.406915
     95          1           0       -3.913489    0.887193   -5.981450
     96          1           0       -5.240363   -0.297713   -6.033421
     97          1           0       -3.489697   -0.816301   -5.945730
     98          1           0       -3.580933   -3.924942   -1.611928
     99          1           0       -6.822887   -6.422072   -1.530549
    100          1           0       -6.860843   -5.848337    0.216489
    101          1           0       -5.738427   -7.114367   -0.348997
    102          1           0        1.849098   -6.381606    0.799955
    103          1           0        1.819027   -5.621754    2.315299
    104          1           0        1.581157   -3.596934    0.050911
    105          1           0        4.210850   -5.931971    1.472888
    106          1           0        5.347428   -4.571824    1.537338
    107          1           0        5.118725   -5.441865    0.071695
    108          1           0        3.348849   -2.888016   -1.229778
    109          1           0        4.929761   -3.417058   -1.014730
    110          1           0        4.988431   -1.750941    1.094340
    111          1           0        3.377143   -1.243637    0.402124
    112          1           0        4.239797   -0.372804   -1.467552
    113          1           0        5.535514   -1.345537   -1.694653
    114          1           0        6.002174    0.179848    0.846852
    115          1           0        6.064389    2.132726   -1.264126
    116          1           0        5.500480    2.203652    0.486950
    117          1           0        4.414382    1.767795   -0.832117
    118          1           0        7.652260    0.510917   -1.651975
    119          1           0        7.625641   -1.048448   -0.927445
    120          1           0        8.126816    0.356825    1.387715
    121          1           0        8.626602    1.612444    0.247733
    122          1           0        9.721964   -0.899139   -0.608930
    123          1           0        9.975668   -0.885127    1.121421
    124          1           0       10.871856    1.411166    0.922184
    125          1           0        9.975753    1.656231   -1.524864
    126          1           0       11.270152    0.692569   -2.052024
    127          1           0       11.545675    2.283358   -1.111830
    128          1           0       12.495136   -0.714434   -0.517383
    129          1           0       12.081165   -0.829129    1.114307
    130          1           0       13.714867    0.537457    1.934364
    131          1           0       13.063013    1.854030    0.960568
    132          1           0       14.467263    0.266268   -0.925493
    133          1           0       15.299380    0.058968    0.546632
    134          1           0       14.490702    2.860726   -0.450859
    135          1           0       16.963863    3.013535    0.465542
    136          1           0       16.128717    1.880404    1.650516
    137          1           0       15.589015    3.564251    1.221544
    138          1           0       16.454755    1.078913   -1.806144
    139          1           0       16.828598    2.762329   -1.858989
    140          1           0       15.259295    2.145202   -2.528352
 ---------------------------------------------------------------------

 SCF Done:  E(RwB97XD) =  -3007.88082689     A.U. after   17 cycles

 Excitation energies and oscillator strengths:

 Excited State   1:      Singlet-A      1.6805 eV  737.76 nm  f=0.3793  <S**2>=0.000
     245 -> 248        0.18819
     246 -> 247        0.68355
     245 <- 248        0.11789
 This state for optimization and/or second-order correction.
 Total Energy, E(TD-HF/TD-DFT) =  -3007.81906783
 Copying the excited state density for this state as the 1-particle RhoCI density.

 Excited State   2:      Singlet-A      2.2078 eV  561.57 nm  f=0.1017  <S**2>=0.000
     245 -> 247        0.63322
     246 -> 248       -0.30193

 Excited State   3:      Singlet-A      3.3829 eV  366.51 nm  f=0.0009  <S**2>=0.000
     242 -> 247       -0.29115
     243 -> 247        0.62230

 Excited State   4:      Singlet-A      3.5209 eV  352.14 nm  f=0.1839  <S**2>=0.000
     241 -> 247       -0.15280
     242 -> 247        0.45134
     243 -> 247        0.22658
     245 -> 247        0.14799
     246 -> 248        0.43118

 Excited State   5:      Singlet-A      3.6067 eV  343.76 nm  f=0.0994  <S**2>=0.000
     241 -> 247        0.44532
     241 -> 249       -0.21894
     241 -> 250        0.20742
     242 -> 247        0.30014
     243 -> 247        0.15714
     245 -> 247       -0.11432
     246 -> 248       -0.18266

 The electronic state is 1-A.
 Alpha  occ. eigenvalues --  -46.94857 -19.30808 -19.29616 -19.25437 -19.24954
 Alpha  occ. eigenvalues --  -19.24652 -19.24567 -14.47749 -14.46887 -14.44691
 Alpha  occ. eigenvalues --  -14.43461 -10.43720 -10.43100 -10.41138 -10.39231
 Alpha  occ. eigenvalues --  -10.35825 -10.35822 -10.35772 -10.35768 -10.35568
 Alpha  occ. eigenvalues --  -10.35352 -10.34892 -10.34464 -10.33398 -10.33211
 Alpha  occ. eigenvalues --  -10.32931 -10.32665 -10.32654 -10.32301 -10.32138
 Alpha  occ. eigenvalues --  -10.32115 -10.32024 -10.31937 -10.31842 -10.31767
 Alpha  occ. eigenvalues --  -10.31439 -10.31213 -10.31205 -10.30921 -10.30563
 Alpha  occ. eigenvalues --  -10.30510 -10.30464 -10.30463 -10.30334 -10.29830
 Alpha  occ. eigenvalues --  -10.29791 -10.29543 -10.29512 -10.29376 -10.29177
 Alpha  occ. eigenvalues --  -10.29074 -10.29066 -10.28967 -10.28957 -10.28851
 Alpha  occ. eigenvalues --  -10.28818 -10.28606 -10.28471 -10.28393 -10.28328
 Alpha  occ. eigenvalues --  -10.28206 -10.28075 -10.27930 -10.27877 -10.27865
 Alpha  occ. eigenvalues --  -10.27675  -3.20871  -1.94475  -1.93995  -1.93851
 Alpha  occ. eigenvalues --   -1.19836  -1.17893  -1.13752  -1.11362  -1.10573
 Alpha  occ. eigenvalues --   -1.10220  -1.06557  -1.05682  -1.05608  -1.04709
 Alpha  occ. eigenvalues --   -0.95058  -0.92630  -0.92356  -0.92221  -0.90944
 Alpha  occ. eigenvalues --   -0.90593  -0.90184  -0.89596  -0.89370  -0.88744
 Alpha  occ. eigenvalues --   -0.87681  -0.87447  -0.86618  -0.86304  -0.85708
 Alpha  occ. eigenvalues --   -0.84559  -0.84267  -0.83203  -0.83123  -0.82412
 Alpha  occ. eigenvalues --   -0.81296  -0.80214  -0.79681  -0.79113  -0.78063
 Alpha  occ. eigenvalues --   -0.77641  -0.77442  -0.77306  -0.76945  -0.75751
 Alpha  occ. eigenvalues --   -0.75123  -0.74372  -0.73884  -0.71851  -0.70826
 Alpha  occ. eigenvalues --   -0.70522  -0.70428  -0.68729  -0.68554  -0.67791
 Alpha  occ. eigenvalues --   -0.67408  -0.67222  -0.66835  -0.66688  -0.65934
 Alpha  occ. eigenvalues --   -0.65604  -0.65085  -0.64486  -0.63994  -0.62678
 Alpha  occ. eigenvalues --   -0.62178  -0.61634  -0.61196  -0.60835  -0.60349
 Alpha  occ. eigenvalues --   -0.59811  -0.59019  -0.58200  -0.58019  -0.57710
 Alpha  occ. eigenvalues --   -0.57452  -0.57171  -0.56553  -0.56209  -0.56118
 Alpha  occ. eigenvalues --   -0.56019  -0.55599  -0.55479  -0.55030  -0.55025
 Alpha  occ. eigenvalues --   -0.54629  -0.54486  -0.54175  -0.53825  -0.53757
 Alpha  occ. eigenvalues --   -0.53572  -0.53397  -0.53109  -0.52911  -0.52471
 Alpha  occ. eigenvalues --   -0.52240  -0.52059  -0.51966  -0.51870  -0.51691
 Alpha  occ. eigenvalues --   -0.51631  -0.51415  -0.51392  -0.50852  -0.50758
 Alpha  occ. eigenvalues --   -0.50609  -0.50294  -0.49965  -0.49758  -0.49637
 Alpha  occ. eigenvalues --   -0.49498  -0.49328  -0.49115  -0.48950  -0.48912
 Alpha  occ. eigenvalues --   -0.48818  -0.48654  -0.48248  -0.48012  -0.47855
 Alpha  occ. eigenvalues --   -0.47710  -0.47460  -0.47254  -0.47248  -0.47088
 Alpha  occ. eigenvalues --   -0.46955  -0.46489  -0.46332  -0.46205  -0.45917
 Alpha  occ. eigenvalues --   -0.45719  -0.45413  -0.45311  -0.45290  -0.45088
 Alpha  occ. eigenvalues --   -0.44746  -0.44714  -0.44598  -0.44535  -0.44392
 Alpha  occ. eigenvalues --   -0.43871  -0.43793  -0.43722  -0.43541  -0.43509
 Alpha  occ. eigenvalues --   -0.43284  -0.43257  -0.42791  -0.42513  -0.42460
 Alpha  occ. eigenvalues --   -0.42091  -0.41795  -0.41203  -0.41188  -0.40657
 Alpha  occ. eigenvalues --   -0.40252  -0.40216  -0.39751  -0.39703  -0.39636
 Alpha  occ. eigenvalues --   -0.39303  -0.39229  -0.38856  -0.38789  -0.38487
 Alpha  occ. eigenvalues --   -0.38401  -0.37469  -0.36810  -0.36759  -0.36372
 Alpha  occ. eigenvalues --   -0.36211  -0.35781  -0.34625  -0.33717  -0.33475
 Alpha  occ. eigenvalues --   -0.32760  -0.32353  -0.32089  -0.31130  -0.26354
 Alpha  occ. eigenvalues --   -0.23278
 Alpha virt. eigenvalues --   -0.07221  -0.00031   0.02366   0.04315   0.05888
 Alpha virt. eigenvalues --    0.06806   0.07354   0.07987   0.08251   0.09207
 Alpha virt. eigenvalues --    0.10284   0.11035   0.11565   0.11980   0.12247

 Mulliken charges:
               1
     1  Mg   0.964489
     2  C   -0.068247
     3  C   -0.077458
     4  C   -0.057652
     5  C   -0.101892
     6  N   -0.372943
     7  C    0.041912
     8  C   -0.065303
     9  C   -0.099666
    10  C    0.035198
    11  C    0.019775
    12  C   -0.008180
    13  C    0.032089
    14  C    0.216137
    15  O   -0.234009
    16  O   -0.394993
    17  N   -0.414217
    18  C    0.161997
    19  C   -0.163605
    20  C   -0.129048
    21  C    0.190158
    22  C    0.077137
    23  C    0.120935
    24  O   -0.239743
    25  C   -0.031417
    26  N   -0.374946
    27  C    0.037196
    28  C   -0.094167
    29  C   -0.058682
    30  C    0.085337
    31  C    0.018993
    32  C   -0.037869
    33  C   -0.036623
    34  N   -0.465671
    35  C    0.102137
    36  C   -0.184361
    37  C   -0.057637
    38  C    0.193735
    39  C    0.087058
    40  C    0.145380
    41  O   -0.165936
    42  C   -0.102656
    43  C    0.255886
    44  O   -0.240817
    45  O   -0.360399
    46  C    0.139016
    47  C    0.248844
    48  C   -0.142472
    49  C   -0.172955
    50  C    0.045207
    51  C   -0.025166
    52  C    0.032422
    53  C    0.011442
    54  C   -0.191345
    55  C    0.004459
    56  C   -0.009720
    57  C   -0.035659
    58  C    0.016320
    59  C   -0.221248
    60  C    0.030844
    61  C    0.041612
    62  C    0.028096
    63  C   -0.036171
    64  C   -0.221781
    65  C    0.009932
    66  C   -0.000836
    67  H    0.001379
    68  H   -0.060960
    69  H   -0.009192
    70  H    0.028673
    71  H    0.053564
    72  H    0.036548
    73  H    0.046106
    74  H    0.044689
    75  H    0.036647
    76  H    0.042161
    77  H    0.066817
    78  H    0.037123
    79  H    0.056709
    80  H    0.008351
    81  H    0.072487
    82  H    0.065753
    83  H    0.049130
    84  H    0.061831
    85  H    0.041660
    86  H    0.024664
    87  H    0.053991
    88  H    0.044906
    89  H    0.047709
    90  H    0.038011
    91  H    0.024765
    92  H    0.039536
    93  H    0.042520
    94  H    0.045550
    95  H    0.028593
    96  H    0.062390
    97  H    0.063822
    98  H    0.057000
    99  H    0.068450
   100  H    0.054844
   101  H    0.050394
   102  H    0.040327
   103  H    0.061850
   104  H    0.022524
   105  H    0.025686
   106  H    0.039912
   107  H    0.034300
   108  H    0.016274
   109  H    0.009092
   110  H    0.030657
   111  H    0.030621
   112  H    0.002665
   113  H    0.010191
   114  H    0.019728
   115  H    0.023540
   116  H    0.032595
   117  H    0.029488
   118  H    0.016405
   119  H    0.025241
   120  H    0.019607
   121  H    0.028311
   122  H    0.004713
   123  H    0.010287
   124  H    0.015182
   125  H    0.011854
   126  H    0.025478
   127  H    0.029228
   128  H    0.016033
   129  H   -0.001935
   130  H    0.026436
   131  H    0.018195
   132  H    0.003454
   133  H    0.018625
   134  H    0.018021
   135  H    0.008089
   136  H    0.037600
   137  H    0.021432
   138  H    0.022856
   139  H    0.030676
   140  H    0.039882
 Sum of Mulliken charges =  -0.00000

 Dipole moment (field-independent basis, Debye):
    X=              2.0293    Y=              2.2124    Z=             -1.4375  Tot=              3.3285
 Quadrupole moment (field-independent basis, Debye-Ang):
   XX=           -409.1434   YY=           -383.5521   ZZ=           -430.3802
   XY=            -11.6410   XZ=             -1.8659   YZ=            -36.8409

 Normal termination of Gaussian 16 at Tue Apr 26 23:53:23 2022.
