 Gaussian 16, Revision A.03,
 Gaussian 16:  ES64L-G16RevA.03 25-Dec-2016

 --------------------
 #p ZINDO=(nstates=5)
 --------------------

 -----------------------------
 step_1001_chromophore_8 ZINDO
 -----------------------------
 Symbolic Z-matrix:
 Charge =  0 Multiplicity = 1

                         Standard orientation:
 ---------------------------------------------------------------------
 Center     Atomic      Atomic             Coordinates (Angstroms)
 Number     Number       Type             X           Y           Z
 ---------------------------------------------------------------------
      1         12           0       -4.589211    1.233593   -0.027400
      2          6           0       -4.357633   -1.999392   -1.107272
      3          6           0       -4.309393    0.199952    3.271792
      4          6           0       -4.641922    4.486653    0.946688
      5          6           0       -4.441634    2.262132   -3.354991
      6          7           0       -4.159059   -0.614040    0.959950
      7          6           0       -4.161166   -1.832978    0.305528
      8          6           0       -3.882563   -2.916598    1.315119
      9          6           0       -3.988040   -2.361980    2.709786
     10          6           0       -4.158680   -0.809784    2.311333
     11          6           0       -5.246108   -2.839537    3.488980
     12          6           0       -2.418527   -3.450187    1.146766
     13          6           0       -2.216808   -4.966511    1.247660
     14          6           0       -0.853075   -5.373167    1.894802
     15          8           0       -0.636364   -5.585437    3.061726
     16          8           0        0.157319   -5.301636    0.914579
     17          7           0       -4.634624    2.170760    1.895344
     18          6           0       -4.558149    1.566359    3.099973
     19          6           0       -4.583109    2.615928    4.149054
     20          6           0       -4.526293    3.899941    3.459839
     21          6           0       -4.621208    3.521999    2.031120
     22          6           0       -4.386381    2.312160    5.625684
     23          6           0       -4.491287    5.319699    4.272243
     24          8           0       -4.595180    5.441168    5.509478
     25          6           0       -4.437930    6.636826    3.475299
     26          7           0       -4.507155    3.087011   -1.029687
     27          6           0       -4.519095    4.290990   -0.431265
     28          6           0       -4.404985    5.512282   -1.377637
     29          6           0       -4.302709    4.776257   -2.786098
     30          6           0       -4.500653    3.255996   -2.406578
     31          6           0       -5.624513    6.448154   -1.239428
     32          6           0       -3.051631    4.958232   -3.728766
     33          6           0       -3.299943    5.914141   -4.877344
     34          7           0       -4.304330    0.364525   -1.880491
     35          6           0       -4.367432    0.867573   -3.198260
     36          6           0       -4.384166   -0.199260   -4.133216
     37          6           0       -4.370392   -1.337293   -3.329306
     38          6           0       -4.410039   -0.971332   -1.990028
     39          6           0       -4.244705   -0.093087   -5.639217
     40          6           0       -4.317277   -2.789858   -3.420187
     41          8           0       -4.317662   -3.544165   -4.346134
     42          6           0       -4.430367   -3.289981   -1.863537
     43          6           0       -5.642958   -4.123628   -1.580497
     44          8           0       -6.810764   -3.921749   -1.857011
     45          8           0       -5.233171   -5.201659   -0.878611
     46          6           0       -6.261987   -6.198337   -0.624461
     47          6           0        1.547103   -5.447661    1.274244
     48          6           0        2.244427   -4.266440    0.600286
     49          6           0        3.565580   -4.116765    0.420748
     50          6           0        4.577624   -5.056440    0.935678
     51          6           0        4.090168   -3.022335   -0.443164
     52          6           0        4.370695   -1.646922    0.201962
     53          6           0        5.023734   -0.842311   -0.873848
     54          6           0        5.999261    0.260977   -0.239492
     55          6           0        5.443108    1.703059   -0.478794
     56          6           0        7.458893    0.005537   -0.706076
     57          6           0        8.502623    0.537629    0.380447
     58          6           0        9.838597   -0.240892    0.252855
     59          6           0       11.013802    0.684942    0.122356
     60          6           0       10.983729    1.358437   -1.237817
     61          6           0       12.322321   -0.084290    0.355620
     62          6           0       13.371840    0.808858    0.935529
     63          6           0       14.635775    0.755218    0.033679
     64          6           0       15.261269    2.094823   -0.364297
     65          6           0       16.026375    2.630478    0.867255
     66          6           0       15.998635    2.066080   -1.732236
     67          1           0       -4.109681   -0.145107    4.288966
     68          1           0       -4.695683    5.551731    1.181021
     69          1           0       -4.520454    2.524345   -4.412985
     70          1           0       -4.595907   -3.737360    1.233984
     71          1           0       -3.091013   -2.500804    3.313043
     72          1           0       -5.286151   -3.925913    3.417243
     73          1           0       -6.148595   -2.426609    3.038770
     74          1           0       -5.204030   -2.577769    4.546318
     75          1           0       -1.813525   -2.932322    1.891099
     76          1           0       -1.991179   -3.172202    0.184201
     77          1           0       -2.303346   -5.391852    0.247559
     78          1           0       -3.049619   -5.249484    1.890331
     79          1           0       -3.330290    2.322929    5.895813
     80          1           0       -4.581679    1.247246    5.756017
     81          1           0       -5.050182    2.821561    6.324667
     82          1           0       -5.324625    6.647453    2.840853
     83          1           0       -3.663677    6.678823    2.708397
     84          1           0       -4.298554    7.539927    4.068794
     85          1           0       -3.469251    6.049322   -1.221178
     86          1           0       -5.203039    4.942630   -3.377904
     87          1           0       -6.524750    5.871723   -1.028140
     88          1           0       -5.764806    7.017671   -2.158835
     89          1           0       -5.306783    7.114009   -0.435850
     90          1           0       -2.683520    4.036043   -4.178655
     91          1           0       -2.277356    5.300206   -3.041929
     92          1           0       -4.350683    6.003125   -5.154586
     93          1           0       -2.757130    5.428018   -5.688430
     94          1           0       -2.896725    6.810654   -4.406915
     95          1           0       -3.913489    0.887193   -5.981450
     96          1           0       -5.240363   -0.297713   -6.033421
     97          1           0       -3.489697   -0.816301   -5.945730
     98          1           0       -3.580933   -3.924942   -1.611928
     99          1           0       -6.822887   -6.422072   -1.530549
    100          1           0       -6.860843   -5.848337    0.216489
    101          1           0       -5.738427   -7.114367   -0.348997
    102          1           0        1.849098   -6.381606    0.799955
    103          1           0        1.819027   -5.621754    2.315299
    104          1           0        1.581157   -3.596934    0.050911
    105          1           0        4.210850   -5.931971    1.472888
    106          1           0        5.347428   -4.571824    1.537338
    107          1           0        5.118725   -5.441865    0.071695
    108          1           0        3.348849   -2.888016   -1.229778
    109          1           0        4.929761   -3.417058   -1.014730
    110          1           0        4.988431   -1.750941    1.094340
    111          1           0        3.377143   -1.243637    0.402124
    112          1           0        4.239797   -0.372804   -1.467552
    113          1           0        5.535514   -1.345537   -1.694653
    114          1           0        6.002174    0.179848    0.846852
    115          1           0        6.064389    2.132726   -1.264126
    116          1           0        5.500480    2.203652    0.486950
    117          1           0        4.414382    1.767795   -0.832117
    118          1           0        7.652260    0.510917   -1.651975
    119          1           0        7.625641   -1.048448   -0.927445
    120          1           0        8.126816    0.356825    1.387715
    121          1           0        8.626602    1.612444    0.247733
    122          1           0        9.721964   -0.899139   -0.608930
    123          1           0        9.975668   -0.885127    1.121421
    124          1           0       10.871856    1.411166    0.922184
    125          1           0        9.975753    1.656231   -1.524864
    126          1           0       11.270152    0.692569   -2.052024
    127          1           0       11.545675    2.283358   -1.111830
    128          1           0       12.495136   -0.714434   -0.517383
    129          1           0       12.081165   -0.829129    1.114307
    130          1           0       13.714867    0.537457    1.934364
    131          1           0       13.063013    1.854030    0.960568
    132          1           0       14.467263    0.266268   -0.925493
    133          1           0       15.299380    0.058968    0.546632
    134          1           0       14.490702    2.860726   -0.450859
    135          1           0       16.963863    3.013535    0.465542
    136          1           0       16.128717    1.880404    1.650516
    137          1           0       15.589015    3.564251    1.221544
    138          1           0       16.454755    1.078913   -1.806144
    139          1           0       16.828598    2.762329   -1.858989
    140          1           0       15.259295    2.145202   -2.528352
 ---------------------------------------------------------------------

 SCF Done:  E(RZINDO/S) =  -474.373960415     A.U. after   20 cycles

 Excitation energies and oscillator strengths:

 Excited State   1:      Singlet-A      1.2644 eV  980.57 nm  f=0.5908  <S**2>=0.000
     175 ->178        -0.18847
     176 ->177         0.66445
 This state for optimization and/or second-order correction.
 Total Energy, E(CIS/TDA) =  -474.327494353
 Copying the excited state density for this state as the 1-particle RhoCI density.

 Excited State   2:      Singlet-A      1.9290 eV  642.73 nm  f=0.0318  <S**2>=0.000
     175 ->177         0.53640
     176 ->178         0.43584

 Excited State   3:      Singlet-A      3.0112 eV  411.75 nm  f=0.7882  <S**2>=0.000
     170 ->177         0.13197
     170 ->179         0.10123
     170 ->180        -0.13066
     175 ->177        -0.33781
     176 ->178         0.44315
     176 ->179         0.24943
     176 ->180        -0.15503

 Excited State   4:      Singlet-A      3.0755 eV  403.13 nm  f=0.0911  <S**2>=0.000
     170 ->177         0.28295
     170 ->178         0.13689
     170 ->179         0.23581
     170 ->180        -0.29347
     170 ->181        -0.11171
     170 ->185        -0.17523
     170 ->188         0.16234
     173 ->177         0.13335
     175 ->177         0.10872
     176 ->178        -0.14241
     176 ->179        -0.14650

 Excited State   5:      Singlet-A      3.1108 eV  398.55 nm  f=0.0255  <S**2>=0.000
     167 ->179         0.17443
     167 ->180         0.11526
     168 ->177        -0.21025
     168 ->179         0.43337
     168 ->180         0.27555
     168 ->185        -0.19144
     171 ->177        -0.10223
     176 ->179         0.12263

 The electronic state is 1-A.
 Alpha  occ. eigenvalues --   -1.85487  -1.80757  -1.79637  -1.74595  -1.71711
 Alpha  occ. eigenvalues --   -1.70085  -1.67391  -1.61933  -1.59152  -1.57025
 Alpha  occ. eigenvalues --   -1.55592  -1.52455  -1.49515  -1.48695  -1.48018
 Alpha  occ. eigenvalues --   -1.46031  -1.44640  -1.41129  -1.40092  -1.37994
 Alpha  occ. eigenvalues --   -1.35943  -1.33910  -1.33542  -1.31565  -1.28997
 Alpha  occ. eigenvalues --   -1.27250  -1.25390  -1.22792  -1.20199  -1.18458
 Alpha  occ. eigenvalues --   -1.17971  -1.17068  -1.15583  -1.15026  -1.13708
 Alpha  occ. eigenvalues --   -1.12034  -1.09913  -1.09202  -1.04860  -1.02972
 Alpha  occ. eigenvalues --   -1.01776  -1.01510  -0.98978  -0.97746  -0.96062
 Alpha  occ. eigenvalues --   -0.95394  -0.94400  -0.93894  -0.93350  -0.92890
 Alpha  occ. eigenvalues --   -0.91271  -0.89971  -0.89128  -0.88806  -0.86789
 Alpha  occ. eigenvalues --   -0.86002  -0.85369  -0.83544  -0.82943  -0.80576
 Alpha  occ. eigenvalues --   -0.79680  -0.78952  -0.77360  -0.77210  -0.76159
 Alpha  occ. eigenvalues --   -0.75628  -0.75469  -0.74667  -0.74359  -0.73636
 Alpha  occ. eigenvalues --   -0.73423  -0.72891  -0.72034  -0.71798  -0.71130
 Alpha  occ. eigenvalues --   -0.70149  -0.69449  -0.68893  -0.68719  -0.68088
 Alpha  occ. eigenvalues --   -0.68002  -0.67583  -0.67041  -0.66158  -0.65915
 Alpha  occ. eigenvalues --   -0.65512  -0.64085  -0.64022  -0.63724  -0.63651
 Alpha  occ. eigenvalues --   -0.63195  -0.62963  -0.62791  -0.62207  -0.62088
 Alpha  occ. eigenvalues --   -0.61779  -0.61422  -0.60965  -0.60454  -0.60274
 Alpha  occ. eigenvalues --   -0.59614  -0.58921  -0.58609  -0.58334  -0.58311
 Alpha  occ. eigenvalues --   -0.57674  -0.57347  -0.57135  -0.57094  -0.56652
 Alpha  occ. eigenvalues --   -0.56137  -0.55900  -0.55554  -0.55143  -0.55018
 Alpha  occ. eigenvalues --   -0.54500  -0.53749  -0.53597  -0.53327  -0.53191
 Alpha  occ. eigenvalues --   -0.53059  -0.52540  -0.52221  -0.51694  -0.51375
 Alpha  occ. eigenvalues --   -0.51312  -0.50934  -0.50850  -0.50499  -0.50320
 Alpha  occ. eigenvalues --   -0.50280  -0.49968  -0.49708  -0.49596  -0.49575
 Alpha  occ. eigenvalues --   -0.49330  -0.48927  -0.48530  -0.48210  -0.47911
 Alpha  occ. eigenvalues --   -0.47718  -0.47289  -0.47186  -0.47040  -0.46654
 Alpha  occ. eigenvalues --   -0.46549  -0.46500  -0.45874  -0.45785  -0.45710
 Alpha  occ. eigenvalues --   -0.44987  -0.44963  -0.44767  -0.44648  -0.44232
 Alpha  occ. eigenvalues --   -0.44026  -0.43426  -0.42792  -0.42618  -0.42416
 Alpha  occ. eigenvalues --   -0.42165  -0.41136  -0.39855  -0.39604  -0.39280
 Alpha  occ. eigenvalues --   -0.38426  -0.37556  -0.36602  -0.35333  -0.34773
 Alpha  occ. eigenvalues --   -0.33490  -0.32580  -0.32409  -0.31893  -0.26963
 Alpha  occ. eigenvalues --   -0.21982
 Alpha virt. eigenvalues --   -0.08630  -0.02349  -0.00488   0.01153   0.01765
 Alpha virt. eigenvalues --    0.02210   0.02542   0.02773   0.04167   0.04997
 Alpha virt. eigenvalues --    0.05419   0.05801   0.06765   0.07377   0.08013

 Mulliken charges:
               1
     1  Mg   0.426132
     2  C   -0.026494
     3  C   -0.066944
     4  C   -0.108234
     5  C   -0.054562
     6  N   -0.268308
     7  C    0.102628
     8  C    0.016876
     9  C    0.000561
    10  C    0.130239
    11  C   -0.049679
    12  C   -0.022609
    13  C    0.005926
    14  C    0.462580
    15  O   -0.500032
    16  O   -0.284973
    17  N   -0.312297
    18  C    0.128692
    19  C    0.031048
    20  C   -0.065250
    21  C    0.148655
    22  C   -0.037506
    23  C    0.329311
    24  O   -0.506790
    25  C   -0.027733
    26  N   -0.270604
    27  C    0.153968
    28  C    0.004683
    29  C   -0.015635
    30  C    0.093725
    31  C   -0.046593
    32  C   -0.029560
    33  C   -0.066132
    34  N   -0.342413
    35  C    0.078635
    36  C    0.021352
    37  C   -0.050648
    38  C    0.120104
    39  C   -0.037668
    40  C    0.324122
    41  O   -0.499132
    42  C    0.046826
    43  C    0.490654
    44  O   -0.515928
    45  O   -0.275219
    46  C    0.077103
    47  C    0.107785
    48  C   -0.098824
    49  C    0.002245
    50  C   -0.039165
    51  C   -0.024435
    52  C   -0.017051
    53  C   -0.038341
    54  C   -0.026450
    55  C   -0.060699
    56  C   -0.036876
    57  C   -0.045794
    58  C   -0.036628
    59  C   -0.007002
    60  C   -0.055583
    61  C   -0.030242
    62  C   -0.027989
    63  C   -0.036678
    64  C   -0.013501
    65  C   -0.063809
    66  C   -0.055532
    67  H    0.027486
    68  H    0.026538
    69  H    0.019127
    70  H    0.030912
    71  H    0.043721
    72  H    0.017487
    73  H    0.027278
    74  H    0.022369
    75  H    0.029445
    76  H    0.019258
    77  H    0.043802
    78  H    0.036412
    79  H    0.040382
    80  H    0.009085
    81  H    0.049004
    82  H    0.038744
    83  H    0.026981
    84  H    0.044160
    85  H    0.035516
    86  H    0.025681
    87  H    0.033314
    88  H    0.021030
    89  H    0.021892
    90  H    0.025912
    91  H    0.015992
    92  H    0.026104
    93  H    0.027094
    94  H    0.030344
    95  H    0.020586
    96  H    0.038798
    97  H    0.035608
    98  H    0.045439
    99  H    0.054446
   100  H    0.044052
   101  H    0.024210
   102  H    0.033398
   103  H    0.060855
   104  H    0.031201
   105  H    0.020256
   106  H    0.025926
   107  H    0.023168
   108  H    0.014017
   109  H    0.018097
   110  H    0.030111
   111  H    0.027596
   112  H    0.010750
   113  H    0.023488
   114  H    0.018940
   115  H    0.020063
   116  H    0.019683
   117  H    0.020764
   118  H    0.018301
   119  H    0.020746
   120  H    0.017372
   121  H    0.024699
   122  H    0.016768
   123  H    0.011394
   124  H    0.019469
   125  H    0.010839
   126  H    0.026085
   127  H    0.018174
   128  H    0.029567
   129  H    0.003046
   130  H    0.021868
   131  H    0.021701
   132  H    0.007474
   133  H    0.016218
   134  H    0.014090
   135  H    0.013273
   136  H    0.030296
   137  H    0.015774
   138  H    0.012767
   139  H    0.024177
   140  H    0.021068
 Sum of Mulliken charges =  -0.00000

 Dipole moment (field-independent basis, Debye):
    X=              3.3172    Y=              3.1697    Z=             -0.9346  Tot=              4.6824
 N-N= 4.320120269332D+03 E-N= 0.000000000000D+00  KE=-9.314106338018D+03
 Leave Link  601 at Wed Apr 27 00:07:09 2022, MaxMem=  6710886400 cpu:               1.2 elap:               0.1
 (Enter /sw/apps/gaussian-16.0/g16/l9999.exe)
 1\1\GINC-BP1-COMPUTE159\SP\RZINDO CIS\STO-3G\C55H74Mg1N4O6\OF15641\27-
 Apr-2022\0\\#p ZINDO=(nstates=5)\\step_1001_chromophore_8 ZINDO\\0,1\M
 g,0,44.398,2.61,46.946\C,0,42.485,5.437,47.089\C,0,41.556,0.648,46.622
 \C,0,46.382,-0.128,46.628\C,0,47.231,4.639,46.847\N,0,42.312,2.984,46.
 659\C,0,41.746,4.237,46.813\C,0,40.259,4.118,46.599\C,0,39.854,2.669,4
 6.585\C,0,41.334,2.032,46.617\C,0,39.067,2.218,47.848\C,0,39.863,4.715
 ,45.205\C,0,38.591,5.569,45.152\C,0,37.804,5.434,43.808\O,0,36.914,4.6

 Normal termination of Gaussian 16 at Wed Apr 27 00:07:10 2022.
