 Gaussian 16, Revision A.03,
 Gaussian 16:  ES64L-G16RevA.03 25-Dec-2016

 ------------------------------
 #p blyp/Def2SVP td=(nstates=5)
 ------------------------------

 --------------------------------------------------
 step_751_chromophore_24 TDDFT with blyp functional
 --------------------------------------------------
 Symbolic Z-matrix:
 Charge =  0 Multiplicity = 1

                         Standard orientation:
 ---------------------------------------------------------------------
 Center     Atomic      Atomic             Coordinates (Angstroms)
 Number     Number       Type             X           Y           Z
 ---------------------------------------------------------------------
      1         12           0        5.080485    1.205239    0.093774
      2          6           0        4.388701   -2.239155   -0.059630
      3          6           0        1.664667    1.805009   -0.213803
      4          6           0        5.746099    4.426547   -0.100519
      5          6           0        8.439461    0.388694    0.311953
      6          7           0        3.211774   -0.081839   -0.322986
      7          6           0        3.169670   -1.474972   -0.159528
      8          6           0        1.762641   -2.000213   -0.033066
      9          6           0        0.890369   -0.692748   -0.325206
     10          6           0        1.955124    0.426937   -0.317390
     11          6           0        0.003815   -0.742666   -1.581300
     12          6           0        1.540196   -2.621485    1.413568
     13          6           0        1.039261   -4.069712    1.376658
     14          6           0       -0.016379   -4.510925    0.428240
     15          8           0        0.193303   -5.107540   -0.669345
     16          8           0       -1.301365   -4.071163    0.882856
     17          7           0        3.878706    2.861521   -0.139056
     18          6           0        2.492874    2.915002   -0.112151
     19          6           0        2.169949    4.299550   -0.138582
     20          6           0        3.394435    5.102890   -0.177688
     21          6           0        4.392199    4.095146   -0.111157
     22          6           0        0.758224    4.737344   -0.143905
     23          6           0        3.557187    6.599130   -0.386412
     24          8           0        4.603058    7.219338   -0.208041
     25          6           0        2.270940    7.419638   -0.489579
     26          7           0        6.891363    2.212495    0.005458
     27          6           0        6.871973    3.552055   -0.058918
     28          6           0        8.371460    4.067705   -0.138502
     29          6           0        9.075999    2.852092    0.537281
     30          6           0        8.092779    1.746755    0.257970
     31          6           0        8.834392    4.365215   -1.588835
     32          6           0        9.620008    3.046492    2.020729
     33          6           0        8.568243    3.320585    3.146939
     34          7           0        6.223522   -0.573253   -0.017356
     35          6           0        7.595752   -0.705902    0.053701
     36          6           0        7.948153   -2.123149   -0.197719
     37          6           0        6.754147   -2.833841   -0.064461
     38          6           0        5.699754   -1.824592   -0.014683
     39          6           0        9.345930   -2.680848   -0.323704
     40          6           0        6.068156   -4.087179   -0.088653
     41          8           0        6.560484   -5.132357   -0.405405
     42          6           0        4.553626   -3.780576    0.047943
     43          6           0        3.843024   -4.666968   -0.982892
     44          8           0        3.428344   -4.278304   -2.063013
     45          8           0        3.762740   -5.932673   -0.558834
     46          6           0        3.150798   -6.940925   -1.518390
     47          6           0       -2.431650   -4.280288   -0.019171
     48          6           0       -3.553683   -3.231157    0.166990
     49          6           0       -4.621752   -3.232007   -0.646567
     50          6           0       -4.886501   -4.160065   -1.827862
     51          6           0       -5.758590   -2.277443   -0.341483
     52          6           0       -6.817248   -2.880439    0.627631
     53          6           0       -7.026489   -2.039282    1.903955
     54          6           0       -8.523091   -1.698861    2.217325
     55          6           0       -8.891997   -2.291039    3.609511
     56          6           0       -8.898689   -0.170483    2.190160
     57          6           0       -9.813413    0.178608    1.005200
     58          6           0       -9.635176    1.609544    0.572488
     59          6           0      -10.252779    1.897117   -0.847747
     60          6           0       -9.183031    2.288669   -1.951776
     61          6           0      -11.413382    2.860502   -0.796882
     62          6           0      -12.751709    2.445989   -1.495420
     63          6           0      -13.730033    1.850732   -0.488574
     64          6           0      -15.028451    2.609200   -0.441898
     65          6           0      -15.657874    2.493448    1.009709
     66          6           0      -15.999702    2.278717   -1.590547
     67          1           0        0.586552    1.975796   -0.195766
     68          1           0        6.127471    5.445970   -0.186254
     69          1           0        9.495823    0.179560    0.493487
     70          1           0        1.504366   -2.636083   -0.879855
     71          1           0        0.221262   -0.757626    0.532433
     72          1           0       -0.269272    0.251129   -1.936328
     73          1           0       -0.899261   -1.351062   -1.535263
     74          1           0        0.649741   -0.900702   -2.445185
     75          1           0        0.859926   -2.010650    2.007334
     76          1           0        2.473269   -2.812916    1.943325
     77          1           0        0.604700   -4.236290    2.362733
     78          1           0        1.979119   -4.618506    1.302567
     79          1           0        0.508079    5.290973   -1.049196
     80          1           0        0.525006    5.356776    0.722398
     81          1           0        0.115870    3.857572   -0.107525
     82          1           0        2.532177    8.465867   -0.327849
     83          1           0        1.518892    7.198027    0.268274
     84          1           0        1.790457    7.195759   -1.441308
     85          1           0        8.434194    4.992997    0.433151
     86          1           0        9.910708    2.467229   -0.047563
     87          1           0        9.301170    5.347262   -1.518462
     88          1           0        8.036061    4.419018   -2.327755
     89          1           0        9.509757    3.561175   -1.882875
     90          1           0       10.200978    3.968410    2.044563
     91          1           0       10.300109    2.215102    2.206550
     92          1           0        8.579773    2.475993    3.836245
     93          1           0        7.592051    3.695090    2.840524
     94          1           0        8.852478    4.182550    3.750720
     95          1           0        9.973750   -1.972750   -0.863603
     96          1           0        9.364554   -3.623063   -0.872584
     97          1           0        9.758786   -3.038221    0.619674
     98          1           0        4.196548   -4.134941    1.015330
     99          1           0        3.549707   -6.962039   -2.532731
    100          1           0        2.066082   -6.888283   -1.609529
    101          1           0        3.515750   -7.860772   -1.060721
    102          1           0       -2.868989   -5.264973    0.141969
    103          1           0       -2.051763   -4.362941   -1.037980
    104          1           0       -3.497779   -2.523130    0.994342
    105          1           0       -4.313679   -3.731352   -2.650087
    106          1           0       -5.889299   -4.098354   -2.249883
    107          1           0       -4.441925   -5.141339   -1.662358
    108          1           0       -6.211330   -2.061123   -1.309016
    109          1           0       -5.175405   -1.437070    0.033992
    110          1           0       -6.645887   -3.904587    0.960287
    111          1           0       -7.700693   -2.879993   -0.011974
    112          1           0       -6.420490   -1.150892    1.727743
    113          1           0       -6.373794   -2.568437    2.598458
    114          1           0       -9.194210   -2.186632    1.510971
    115          1           0       -8.137167   -2.965012    4.014894
    116          1           0       -9.781079   -2.911677    3.501611
    117          1           0       -9.140652   -1.598385    4.413941
    118          1           0       -7.945307    0.333541    2.035791
    119          1           0       -9.244007    0.214574    3.149994
    120          1           0      -10.852369    0.065920    1.315561
    121          1           0       -9.673378   -0.356920    0.065522
    122          1           0       -8.557189    1.764173    0.523415
    123          1           0       -9.985993    2.260970    1.371912
    124          1           0      -10.694687    0.964779   -1.198376
    125          1           0       -9.603247    2.976365   -2.685229
    126          1           0       -9.052003    1.336417   -2.465649
    127          1           0       -8.268090    2.668302   -1.497068
    128          1           0      -11.236095    3.794820   -1.329652
    129          1           0      -11.574149    3.106632    0.253340
    130          1           0      -12.557958    1.700880   -2.267741
    131          1           0      -13.177885    3.173263   -2.187304
    132          1           0      -13.293276    1.896064    0.509174
    133          1           0      -13.959228    0.791035   -0.595624
    134          1           0      -14.767018    3.666241   -0.489233
    135          1           0      -15.579773    3.399874    1.611511
    136          1           0      -15.214795    1.710209    1.625617
    137          1           0      -16.737438    2.350610    0.952332
    138          1           0      -17.004751    2.376998   -1.179913
    139          1           0      -15.923895    1.300632   -2.064745
    140          1           0      -15.926154    3.044065   -2.363052
 ---------------------------------------------------------------------

 SCF Done:  E(RB-LYP) =  -3007.35932504     A.U. after   20 cycles

 Excitation energies and oscillator strengths:

 Excited State   1:      Singlet-A      1.8145 eV  683.29 nm  f=0.2969  <S**2>=0.000
     245 -> 248       -0.20244
     246 -> 247        0.68489
     246 <- 247       -0.14172
 This state for optimization and/or second-order correction.
 Total Energy, E(TD-HF/TD-DFT) =  -3007.29264253
 Copying the excited state density for this state as the 1-particle RhoCI density.

 Excited State   2:      Singlet-A      1.9948 eV  621.52 nm  f=0.0385  <S**2>=0.000
     243 -> 247        0.22917
     244 -> 247        0.33093
     245 -> 247        0.53603
     246 -> 248        0.20841

 Excited State   3:      Singlet-A      2.0033 eV  618.91 nm  f=0.0122  <S**2>=0.000
     243 -> 247       -0.12917
     244 -> 247        0.62247
     245 -> 247       -0.28202
     246 -> 248       -0.10254

 Excited State   4:      Singlet-A      2.0732 eV  598.03 nm  f=0.0104  <S**2>=0.000
     243 -> 247        0.65258
     245 -> 247       -0.23147
     246 -> 248       -0.11228

 Excited State   5:      Singlet-A      2.3924 eV  518.24 nm  f=0.0001  <S**2>=0.000
     241 -> 247        0.67306
     242 -> 247        0.21625

 The electronic state is 1-A.
 Alpha  occ. eigenvalues --  -46.26995 -18.82661 -18.81495 -18.78111 -18.75532
 Alpha  occ. eigenvalues --  -18.75474 -18.75139 -14.03274 -14.02581 -14.00629
 Alpha  occ. eigenvalues --  -14.00580 -10.05235 -10.02780  -9.99826  -9.99303
 Alpha  occ. eigenvalues --   -9.98122  -9.97028  -9.96843  -9.96427  -9.95980
 Alpha  occ. eigenvalues --   -9.95921  -9.95736  -9.95055  -9.94893  -9.94490
 Alpha  occ. eigenvalues --   -9.94341  -9.94160  -9.94072  -9.94030  -9.93936
 Alpha  occ. eigenvalues --   -9.93839  -9.93700  -9.93603  -9.93476  -9.93460
 Alpha  occ. eigenvalues --   -9.93334  -9.92976  -9.92902  -9.92872  -9.92706
 Alpha  occ. eigenvalues --   -9.92413  -9.92314  -9.92281  -9.92148  -9.92142
 Alpha  occ. eigenvalues --   -9.92080  -9.92034  -9.91963  -9.91942  -9.91906
 Alpha  occ. eigenvalues --   -9.91873  -9.91779  -9.91678  -9.91503  -9.91480
 Alpha  occ. eigenvalues --   -9.91423  -9.91292  -9.91284  -9.91097  -9.91007
 Alpha  occ. eigenvalues --   -9.90928  -9.90871  -9.90664  -9.90662  -9.90638
 Alpha  occ. eigenvalues --   -9.90466  -2.91626  -1.72052  -1.71526  -1.71323
 Alpha  occ. eigenvalues --   -0.96875  -0.96052  -0.92646  -0.91036  -0.89063
 Alpha  occ. eigenvalues --   -0.88209  -0.87484  -0.85796  -0.85424  -0.84549
 Alpha  occ. eigenvalues --   -0.75139  -0.74050  -0.73331  -0.73150  -0.72120
 Alpha  occ. eigenvalues --   -0.71915  -0.71357  -0.70862  -0.70313  -0.70085
 Alpha  occ. eigenvalues --   -0.69579  -0.69442  -0.68366  -0.67164  -0.67015
 Alpha  occ. eigenvalues --   -0.66464  -0.65571  -0.64883  -0.64730  -0.64288
 Alpha  occ. eigenvalues --   -0.64008  -0.62560  -0.62423  -0.61771  -0.61121
 Alpha  occ. eigenvalues --   -0.60403  -0.60163  -0.59821  -0.59535  -0.59021
 Alpha  occ. eigenvalues --   -0.58676  -0.57434  -0.56688  -0.55909  -0.55166
 Alpha  occ. eigenvalues --   -0.54270  -0.53951  -0.52633  -0.52303  -0.51517
 Alpha  occ. eigenvalues --   -0.51287  -0.50946  -0.50818  -0.50681  -0.50041
 Alpha  occ. eigenvalues --   -0.49777  -0.49378  -0.48820  -0.47572  -0.46662
 Alpha  occ. eigenvalues --   -0.46653  -0.46025  -0.45508  -0.44658  -0.43883
 Alpha  occ. eigenvalues --   -0.43519  -0.43276  -0.42758  -0.42647  -0.42156
 Alpha  occ. eigenvalues --   -0.42017  -0.41675  -0.41497  -0.41400  -0.41221
 Alpha  occ. eigenvalues --   -0.41009  -0.40794  -0.40529  -0.40408  -0.39820
 Alpha  occ. eigenvalues --   -0.39555  -0.39520  -0.39284  -0.39183  -0.38847
 Alpha  occ. eigenvalues --   -0.38757  -0.38695  -0.38567  -0.38398  -0.37905
 Alpha  occ. eigenvalues --   -0.37576  -0.37549  -0.37417  -0.37207  -0.37045
 Alpha  occ. eigenvalues --   -0.36850  -0.36720  -0.36499  -0.36395  -0.36321
 Alpha  occ. eigenvalues --   -0.36073  -0.35856  -0.35649  -0.35478  -0.35332
 Alpha  occ. eigenvalues --   -0.35251  -0.35164  -0.34671  -0.34597  -0.34442
 Alpha  occ. eigenvalues --   -0.34370  -0.34308  -0.34260  -0.34179  -0.33988
 Alpha  occ. eigenvalues --   -0.33934  -0.33757  -0.33604  -0.33530  -0.33421
 Alpha  occ. eigenvalues --   -0.33159  -0.32849  -0.32634  -0.32416  -0.32397
 Alpha  occ. eigenvalues --   -0.32286  -0.32073  -0.31730  -0.31581  -0.31208
 Alpha  occ. eigenvalues --   -0.31066  -0.31027  -0.30752  -0.30651  -0.30432
 Alpha  occ. eigenvalues --   -0.30406  -0.30218  -0.30122  -0.29831  -0.29622
 Alpha  occ. eigenvalues --   -0.29563  -0.29385  -0.29287  -0.29241  -0.29004
 Alpha  occ. eigenvalues --   -0.28658  -0.28475  -0.28343  -0.27933  -0.27698
 Alpha  occ. eigenvalues --   -0.27112  -0.27028  -0.26955  -0.26882  -0.26572
 Alpha  occ. eigenvalues --   -0.26329  -0.25833  -0.25739  -0.25512  -0.25420
 Alpha  occ. eigenvalues --   -0.25158  -0.24541  -0.24344  -0.24066  -0.23974
 Alpha  occ. eigenvalues --   -0.23070  -0.22465  -0.21710  -0.20772  -0.20321
 Alpha  occ. eigenvalues --   -0.20038  -0.20019  -0.18676  -0.18507  -0.17081
 Alpha  occ. eigenvalues --   -0.15627
 Alpha virt. eigenvalues --   -0.11245  -0.06822  -0.06289  -0.05074  -0.04582
 Alpha virt. eigenvalues --   -0.02456  -0.01850  -0.01163  -0.00961   0.00409
 Alpha virt. eigenvalues --    0.01574   0.01777   0.02020   0.02662   0.02878

 Mulliken charges:
               1
     1  Mg   0.678114
     2  C    0.106228
     3  C   -0.070747
     4  C   -0.058600
     5  C   -0.092962
     6  N   -0.189961
     7  C   -0.091863
     8  C    0.019901
     9  C    0.003167
    10  C   -0.001778
    11  C    0.133968
    12  C    0.125221
    13  C    0.120023
    14  C    0.136542
    15  O   -0.214727
    16  O   -0.309497
    17  N   -0.292101
    18  C    0.177478
    19  C   -0.146088
    20  C    0.022626
    21  C    0.160770
    22  C    0.176254
    23  C   -0.047212
    24  O   -0.169193
    25  C    0.118263
    26  N   -0.191291
    27  C   -0.022873
    28  C   -0.026210
    29  C    0.045985
    30  C    0.004970
    31  C    0.150774
    32  C    0.104585
    33  C    0.051319
    34  N   -0.249335
    35  C    0.141633
    36  C   -0.184061
    37  C    0.142406
    38  C   -0.002937
    39  C    0.162371
    40  C   -0.077942
    41  O   -0.105104
    42  C    0.010608
    43  C    0.099271
    44  O   -0.185264
    45  O   -0.260190
    46  C    0.212726
    47  C    0.277558
    48  C   -0.079119
    49  C   -0.205262
    50  C    0.174672
    51  C    0.118894
    52  C    0.069087
    53  C    0.111390
    54  C   -0.032656
    55  C    0.082965
    56  C    0.132359
    57  C    0.039849
    58  C    0.087532
    59  C   -0.056985
    60  C    0.112417
    61  C    0.112541
    62  C    0.066636
    63  C    0.113256
    64  C   -0.090972
    65  C    0.082453
    66  C    0.122485
    67  H   -0.064868
    68  H   -0.049440
    69  H   -0.065022
    70  H    0.010749
    71  H   -0.037823
    72  H   -0.032056
    73  H    0.015027
    74  H   -0.015075
    75  H   -0.006745
    76  H   -0.005864
    77  H   -0.007561
    78  H    0.001636
    79  H   -0.002846
    80  H    0.006248
    81  H   -0.032050
    82  H   -0.007052
    83  H   -0.002147
    84  H    0.001896
    85  H   -0.032591
    86  H   -0.047296
    87  H    0.001008
    88  H   -0.001912
    89  H   -0.008846
    90  H   -0.018393
    91  H   -0.016886
    92  H    0.000464
    93  H    0.009036
    94  H   -0.023044
    95  H   -0.001953
    96  H   -0.003207
    97  H    0.005103
    98  H   -0.003178
    99  H    0.017362
   100  H    0.037451
   101  H    0.010383
   102  H    0.001236
   103  H    0.003083
   104  H   -0.036622
   105  H   -0.002197
   106  H   -0.010947
   107  H   -0.001037
   108  H   -0.035740
   109  H   -0.014390
   110  H   -0.015529
   111  H   -0.030707
   112  H   -0.045708
   113  H   -0.027639
   114  H   -0.017564
   115  H   -0.024298
   116  H   -0.025626
   117  H   -0.016993
   118  H   -0.048858
   119  H   -0.028232
   120  H   -0.025167
   121  H   -0.023915
   122  H   -0.047344
   123  H   -0.032826
   124  H   -0.036653
   125  H   -0.017137
   126  H   -0.018902
   127  H   -0.001294
   128  H   -0.044619
   129  H   -0.036933
   130  H   -0.051027
   131  H   -0.037196
   132  H   -0.038077
   133  H   -0.037734
   134  H   -0.038517
   135  H   -0.020372
   136  H   -0.016193
   137  H   -0.030636
   138  H   -0.025628
   139  H   -0.011381
   140  H   -0.015555
 Sum of Mulliken charges =  -0.00000

 Dipole moment (field-independent basis, Debye):
    X=             -3.7058    Y=              0.6935    Z=              2.6799  Tot=              4.6255
 Quadrupole moment (field-independent basis, Debye-Ang):
   XX=           -379.1486   YY=           -433.9975   ZZ=           -403.8429
   XY=             13.5729   XZ=             21.0337   YZ=             -4.8718

 Normal termination of Gaussian 16 at Sat Apr 30 14:25:19 2022.
