 Gaussian 16, Revision A.03,
 Gaussian 16:  ES64L-G16RevA.03 25-Dec-2016

 -----------------------------------
 #p cam-b3lyp/Def2SVP td=(nstates=5)
 -----------------------------------

 -------------------------------------------------------
 step_751_chromophore_24 TDDFT with cam-b3lyp functional
 -------------------------------------------------------
 Symbolic Z-matrix:
 Charge =  0 Multiplicity = 1

                         Standard orientation:
 ---------------------------------------------------------------------
 Center     Atomic      Atomic             Coordinates (Angstroms)
 Number     Number       Type             X           Y           Z
 ---------------------------------------------------------------------
      1         12           0        5.080485    1.205239    0.093774
      2          6           0        4.388701   -2.239155   -0.059630
      3          6           0        1.664667    1.805009   -0.213803
      4          6           0        5.746099    4.426547   -0.100519
      5          6           0        8.439461    0.388694    0.311953
      6          7           0        3.211774   -0.081839   -0.322986
      7          6           0        3.169670   -1.474972   -0.159528
      8          6           0        1.762641   -2.000213   -0.033066
      9          6           0        0.890369   -0.692748   -0.325206
     10          6           0        1.955124    0.426937   -0.317390
     11          6           0        0.003815   -0.742666   -1.581300
     12          6           0        1.540196   -2.621485    1.413568
     13          6           0        1.039261   -4.069712    1.376658
     14          6           0       -0.016379   -4.510925    0.428240
     15          8           0        0.193303   -5.107540   -0.669345
     16          8           0       -1.301365   -4.071163    0.882856
     17          7           0        3.878706    2.861521   -0.139056
     18          6           0        2.492874    2.915002   -0.112151
     19          6           0        2.169949    4.299550   -0.138582
     20          6           0        3.394435    5.102890   -0.177688
     21          6           0        4.392199    4.095146   -0.111157
     22          6           0        0.758224    4.737344   -0.143905
     23          6           0        3.557187    6.599130   -0.386412
     24          8           0        4.603058    7.219338   -0.208041
     25          6           0        2.270940    7.419638   -0.489579
     26          7           0        6.891363    2.212495    0.005458
     27          6           0        6.871973    3.552055   -0.058918
     28          6           0        8.371460    4.067705   -0.138502
     29          6           0        9.075999    2.852092    0.537281
     30          6           0        8.092779    1.746755    0.257970
     31          6           0        8.834392    4.365215   -1.588835
     32          6           0        9.620008    3.046492    2.020729
     33          6           0        8.568243    3.320585    3.146939
     34          7           0        6.223522   -0.573253   -0.017356
     35          6           0        7.595752   -0.705902    0.053701
     36          6           0        7.948153   -2.123149   -0.197719
     37          6           0        6.754147   -2.833841   -0.064461
     38          6           0        5.699754   -1.824592   -0.014683
     39          6           0        9.345930   -2.680848   -0.323704
     40          6           0        6.068156   -4.087179   -0.088653
     41          8           0        6.560484   -5.132357   -0.405405
     42          6           0        4.553626   -3.780576    0.047943
     43          6           0        3.843024   -4.666968   -0.982892
     44          8           0        3.428344   -4.278304   -2.063013
     45          8           0        3.762740   -5.932673   -0.558834
     46          6           0        3.150798   -6.940925   -1.518390
     47          6           0       -2.431650   -4.280288   -0.019171
     48          6           0       -3.553683   -3.231157    0.166990
     49          6           0       -4.621752   -3.232007   -0.646567
     50          6           0       -4.886501   -4.160065   -1.827862
     51          6           0       -5.758590   -2.277443   -0.341483
     52          6           0       -6.817248   -2.880439    0.627631
     53          6           0       -7.026489   -2.039282    1.903955
     54          6           0       -8.523091   -1.698861    2.217325
     55          6           0       -8.891997   -2.291039    3.609511
     56          6           0       -8.898689   -0.170483    2.190160
     57          6           0       -9.813413    0.178608    1.005200
     58          6           0       -9.635176    1.609544    0.572488
     59          6           0      -10.252779    1.897117   -0.847747
     60          6           0       -9.183031    2.288669   -1.951776
     61          6           0      -11.413382    2.860502   -0.796882
     62          6           0      -12.751709    2.445989   -1.495420
     63          6           0      -13.730033    1.850732   -0.488574
     64          6           0      -15.028451    2.609200   -0.441898
     65          6           0      -15.657874    2.493448    1.009709
     66          6           0      -15.999702    2.278717   -1.590547
     67          1           0        0.586552    1.975796   -0.195766
     68          1           0        6.127471    5.445970   -0.186254
     69          1           0        9.495823    0.179560    0.493487
     70          1           0        1.504366   -2.636083   -0.879855
     71          1           0        0.221262   -0.757626    0.532433
     72          1           0       -0.269272    0.251129   -1.936328
     73          1           0       -0.899261   -1.351062   -1.535263
     74          1           0        0.649741   -0.900702   -2.445185
     75          1           0        0.859926   -2.010650    2.007334
     76          1           0        2.473269   -2.812916    1.943325
     77          1           0        0.604700   -4.236290    2.362733
     78          1           0        1.979119   -4.618506    1.302567
     79          1           0        0.508079    5.290973   -1.049196
     80          1           0        0.525006    5.356776    0.722398
     81          1           0        0.115870    3.857572   -0.107525
     82          1           0        2.532177    8.465867   -0.327849
     83          1           0        1.518892    7.198027    0.268274
     84          1           0        1.790457    7.195759   -1.441308
     85          1           0        8.434194    4.992997    0.433151
     86          1           0        9.910708    2.467229   -0.047563
     87          1           0        9.301170    5.347262   -1.518462
     88          1           0        8.036061    4.419018   -2.327755
     89          1           0        9.509757    3.561175   -1.882875
     90          1           0       10.200978    3.968410    2.044563
     91          1           0       10.300109    2.215102    2.206550
     92          1           0        8.579773    2.475993    3.836245
     93          1           0        7.592051    3.695090    2.840524
     94          1           0        8.852478    4.182550    3.750720
     95          1           0        9.973750   -1.972750   -0.863603
     96          1           0        9.364554   -3.623063   -0.872584
     97          1           0        9.758786   -3.038221    0.619674
     98          1           0        4.196548   -4.134941    1.015330
     99          1           0        3.549707   -6.962039   -2.532731
    100          1           0        2.066082   -6.888283   -1.609529
    101          1           0        3.515750   -7.860772   -1.060721
    102          1           0       -2.868989   -5.264973    0.141969
    103          1           0       -2.051763   -4.362941   -1.037980
    104          1           0       -3.497779   -2.523130    0.994342
    105          1           0       -4.313679   -3.731352   -2.650087
    106          1           0       -5.889299   -4.098354   -2.249883
    107          1           0       -4.441925   -5.141339   -1.662358
    108          1           0       -6.211330   -2.061123   -1.309016
    109          1           0       -5.175405   -1.437070    0.033992
    110          1           0       -6.645887   -3.904587    0.960287
    111          1           0       -7.700693   -2.879993   -0.011974
    112          1           0       -6.420490   -1.150892    1.727743
    113          1           0       -6.373794   -2.568437    2.598458
    114          1           0       -9.194210   -2.186632    1.510971
    115          1           0       -8.137167   -2.965012    4.014894
    116          1           0       -9.781079   -2.911677    3.501611
    117          1           0       -9.140652   -1.598385    4.413941
    118          1           0       -7.945307    0.333541    2.035791
    119          1           0       -9.244007    0.214574    3.149994
    120          1           0      -10.852369    0.065920    1.315561
    121          1           0       -9.673378   -0.356920    0.065522
    122          1           0       -8.557189    1.764173    0.523415
    123          1           0       -9.985993    2.260970    1.371912
    124          1           0      -10.694687    0.964779   -1.198376
    125          1           0       -9.603247    2.976365   -2.685229
    126          1           0       -9.052003    1.336417   -2.465649
    127          1           0       -8.268090    2.668302   -1.497068
    128          1           0      -11.236095    3.794820   -1.329652
    129          1           0      -11.574149    3.106632    0.253340
    130          1           0      -12.557958    1.700880   -2.267741
    131          1           0      -13.177885    3.173263   -2.187304
    132          1           0      -13.293276    1.896064    0.509174
    133          1           0      -13.959228    0.791035   -0.595624
    134          1           0      -14.767018    3.666241   -0.489233
    135          1           0      -15.579773    3.399874    1.611511
    136          1           0      -15.214795    1.710209    1.625617
    137          1           0      -16.737438    2.350610    0.952332
    138          1           0      -17.004751    2.376998   -1.179913
    139          1           0      -15.923895    1.300632   -2.064745
    140          1           0      -15.926154    3.044065   -2.363052
 ---------------------------------------------------------------------

 SCF Done:  E(RCAM-B3LYP) =  -3007.14841382     A.U. after   16 cycles

 Excitation energies and oscillator strengths:

 Excited State   1:      Singlet-A      1.7334 eV  715.29 nm  f=0.3694  <S**2>=0.000
     245 -> 248       -0.19410
     246 -> 247        0.68188
     245 <- 248       -0.11019
 This state for optimization and/or second-order correction.
 Total Energy, E(TD-HF/TD-DFT) =  -3007.08471426
 Copying the excited state density for this state as the 1-particle RhoCI density.

 Excited State   2:      Singlet-A      2.2478 eV  551.57 nm  f=0.0795  <S**2>=0.000
     245 -> 247        0.62862
     246 -> 248        0.31330

 Excited State   3:      Singlet-A      3.4169 eV  362.86 nm  f=0.0798  <S**2>=0.000
     239 -> 247       -0.11912
     240 -> 247       -0.12178
     242 -> 247       -0.38949
     244 -> 247        0.47162
     246 -> 248        0.20783

 Excited State   4:      Singlet-A      3.4551 eV  358.84 nm  f=0.2702  <S**2>=0.000
     240 -> 247       -0.11120
     242 -> 247       -0.16617
     244 -> 247       -0.44177
     245 -> 247       -0.18862
     246 -> 248        0.45174

 Excited State   5:      Singlet-A      3.5390 eV  350.34 nm  f=0.2600  <S**2>=0.000
     239 -> 247        0.39635
     239 -> 249       -0.22379
     239 -> 250        0.12587
     240 -> 247        0.25280
     240 -> 249       -0.13257
     244 -> 247        0.16868
     245 -> 247       -0.17392
     246 -> 248        0.31660

 The electronic state is 1-A.
 Alpha  occ. eigenvalues --  -46.88511 -19.25583 -19.24477 -19.21216 -19.19143
 Alpha  occ. eigenvalues --  -19.18488 -19.18216 -14.42329 -14.41216 -14.39181
 Alpha  occ. eigenvalues --  -14.38797 -10.40859 -10.38219 -10.34882 -10.34868
 Alpha  occ. eigenvalues --  -10.32193 -10.31754 -10.30963 -10.30614 -10.30521
 Alpha  occ. eigenvalues --  -10.30391 -10.30231 -10.28966 -10.28935 -10.28903
 Alpha  occ. eigenvalues --  -10.28871 -10.28777 -10.28527 -10.28189 -10.27986
 Alpha  occ. eigenvalues --  -10.27963 -10.27939 -10.27619 -10.27478 -10.27378
 Alpha  occ. eigenvalues --  -10.27222 -10.27153 -10.27029 -10.26576 -10.26446
 Alpha  occ. eigenvalues --  -10.26405 -10.26224 -10.26141 -10.26016 -10.25926
 Alpha  occ. eigenvalues --  -10.25858 -10.25684 -10.25640 -10.25623 -10.25564
 Alpha  occ. eigenvalues --  -10.25521 -10.25492 -10.25471 -10.25467 -10.25370
 Alpha  occ. eigenvalues --  -10.25165 -10.25149 -10.24890 -10.24888 -10.24646
 Alpha  occ. eigenvalues --  -10.24581 -10.24451 -10.24294 -10.24264 -10.24237
 Alpha  occ. eigenvalues --  -10.24070  -3.17047  -1.91949  -1.91517  -1.91335
 Alpha  occ. eigenvalues --   -1.15463  -1.14454  -1.11460  -1.09236  -1.06940
 Alpha  occ. eigenvalues --   -1.06156  -1.05183  -1.03351  -1.03085  -1.02118
 Alpha  occ. eigenvalues --   -0.92467  -0.90961  -0.90164  -0.89976  -0.88809
 Alpha  occ. eigenvalues --   -0.88535  -0.87880  -0.87420  -0.86903  -0.86668
 Alpha  occ. eigenvalues --   -0.86089  -0.85863  -0.84624  -0.83347  -0.83101
 Alpha  occ. eigenvalues --   -0.82504  -0.81595  -0.80739  -0.80596  -0.80101
 Alpha  occ. eigenvalues --   -0.79854  -0.78337  -0.78001  -0.77242  -0.76511
 Alpha  occ. eigenvalues --   -0.75888  -0.75524  -0.75054  -0.74802  -0.74259
 Alpha  occ. eigenvalues --   -0.73738  -0.72493  -0.71565  -0.70757  -0.69769
 Alpha  occ. eigenvalues --   -0.68871  -0.68673  -0.66998  -0.66652  -0.65498
 Alpha  occ. eigenvalues --   -0.65458  -0.65110  -0.64893  -0.64753  -0.63949
 Alpha  occ. eigenvalues --   -0.63621  -0.63339  -0.62694  -0.61287  -0.60273
 Alpha  occ. eigenvalues --   -0.60108  -0.59683  -0.58919  -0.58110  -0.57446
 Alpha  occ. eigenvalues --   -0.57053  -0.56448  -0.56173  -0.55821  -0.55458
 Alpha  occ. eigenvalues --   -0.54969  -0.54665  -0.54501  -0.54241  -0.53936
 Alpha  occ. eigenvalues --   -0.53681  -0.53586  -0.53462  -0.53141  -0.52393
 Alpha  occ. eigenvalues --   -0.52295  -0.52195  -0.52049  -0.51948  -0.51800
 Alpha  occ. eigenvalues --   -0.51485  -0.51297  -0.51077  -0.50841  -0.50308
 Alpha  occ. eigenvalues --   -0.50128  -0.49753  -0.49622  -0.49546  -0.49531
 Alpha  occ. eigenvalues --   -0.49324  -0.48919  -0.48821  -0.48675  -0.48466
 Alpha  occ. eigenvalues --   -0.48260  -0.48246  -0.47859  -0.47691  -0.47418
 Alpha  occ. eigenvalues --   -0.47324  -0.47106  -0.46809  -0.46457  -0.46432
 Alpha  occ. eigenvalues --   -0.46242  -0.46028  -0.46000  -0.45940  -0.45714
 Alpha  occ. eigenvalues --   -0.45640  -0.45374  -0.45311  -0.45278  -0.45101
 Alpha  occ. eigenvalues --   -0.45059  -0.44828  -0.44465  -0.44301  -0.44097
 Alpha  occ. eigenvalues --   -0.43823  -0.43759  -0.43286  -0.43270  -0.42856
 Alpha  occ. eigenvalues --   -0.42695  -0.42438  -0.42191  -0.41994  -0.41985
 Alpha  occ. eigenvalues --   -0.41746  -0.41603  -0.41431  -0.41340  -0.41106
 Alpha  occ. eigenvalues --   -0.40853  -0.40696  -0.40444  -0.40333  -0.40203
 Alpha  occ. eigenvalues --   -0.39684  -0.39590  -0.39294  -0.38860  -0.38628
 Alpha  occ. eigenvalues --   -0.37941  -0.37829  -0.37749  -0.37662  -0.37521
 Alpha  occ. eigenvalues --   -0.37343  -0.36835  -0.36599  -0.36442  -0.36245
 Alpha  occ. eigenvalues --   -0.35948  -0.35886  -0.34990  -0.34733  -0.34531
 Alpha  occ. eigenvalues --   -0.34106  -0.33444  -0.32663  -0.31220  -0.30851
 Alpha  occ. eigenvalues --   -0.30607  -0.29943  -0.29696  -0.29044  -0.23808
 Alpha  occ. eigenvalues --   -0.20889
 Alpha virt. eigenvalues --   -0.08213  -0.01778   0.00138   0.02347   0.02500
 Alpha virt. eigenvalues --    0.02769   0.05402   0.05993   0.06549   0.07020
 Alpha virt. eigenvalues --    0.08164   0.08244   0.08923   0.09129   0.09237

 Mulliken charges:
               1
     1  Mg   0.811359
     2  C    0.074906
     3  C   -0.075400
     4  C   -0.076716
     5  C   -0.106576
     6  N   -0.252051
     7  C   -0.041868
     8  C   -0.041378
     9  C   -0.039086
    10  C    0.006122
    11  C    0.076341
    12  C    0.076662
    13  C    0.049725
    14  C    0.216921
    15  O   -0.256078
    16  O   -0.374678
    17  N   -0.382262
    18  C    0.175127
    19  C   -0.151787
    20  C   -0.042256
    21  C    0.181652
    22  C    0.115150
    23  C    0.031063
    24  O   -0.210691
    25  C    0.036678
    26  N   -0.269690
    27  C   -0.007747
    28  C   -0.077353
    29  C   -0.016754
    30  C    0.032522
    31  C    0.094275
    32  C    0.056151
    33  C   -0.013241
    34  N   -0.337023
    35  C    0.148584
    36  C   -0.177724
    37  C    0.074546
    38  C    0.029388
    39  C    0.108402
    40  C    0.020560
    41  O   -0.139012
    42  C   -0.058570
    43  C    0.179678
    44  O   -0.222355
    45  O   -0.323957
    46  C    0.177381
    47  C    0.249942
    48  C   -0.104695
    49  C   -0.218357
    50  C    0.103482
    51  C    0.059607
    52  C    0.017573
    53  C    0.057020
    54  C   -0.094596
    55  C    0.028705
    56  C    0.079454
    57  C   -0.009255
    58  C    0.036424
    59  C   -0.117244
    60  C    0.058219
    61  C    0.058285
    62  C    0.008899
    63  C    0.060589
    64  C   -0.152788
    65  C    0.024845
    66  C    0.061634
    67  H   -0.030615
    68  H   -0.008280
    69  H   -0.029233
    70  H    0.047149
    71  H   -0.004079
    72  H   -0.005050
    73  H    0.036117
    74  H    0.010716
    75  H    0.024250
    76  H    0.023547
    77  H    0.028309
    78  H    0.028982
    79  H    0.022244
    80  H    0.031088
    81  H   -0.004028
    82  H    0.027369
    83  H    0.025347
    84  H    0.028715
    85  H    0.002474
    86  H   -0.010314
    87  H    0.024154
    88  H    0.024380
    89  H    0.013703
    90  H    0.010254
    91  H    0.009777
    92  H    0.023632
    93  H    0.031512
    94  H    0.002182
    95  H    0.023701
    96  H    0.026265
    97  H    0.032843
    98  H    0.036020
    99  H    0.041451
   100  H    0.060013
   101  H    0.034240
   102  H    0.025999
   103  H    0.032339
   104  H   -0.001115
   105  H    0.024234
   106  H    0.016403
   107  H    0.023011
   108  H   -0.005789
   109  H    0.013375
   110  H    0.012800
   111  H   -0.003585
   112  H   -0.017176
   113  H    0.001141
   114  H    0.014028
   115  H    0.000152
   116  H   -0.001369
   117  H    0.006125
   118  H   -0.020064
   119  H    0.001100
   120  H    0.000293
   121  H    0.001319
   122  H   -0.019061
   123  H   -0.004631
   124  H   -0.005313
   125  H    0.006882
   126  H    0.004086
   127  H    0.020956
   128  H   -0.013873
   129  H   -0.008479
   130  H   -0.021006
   131  H   -0.007289
   132  H   -0.010837
   133  H   -0.009345
   134  H   -0.005349
   135  H    0.004200
   136  H    0.007383
   137  H   -0.006201
   138  H   -0.001150
   139  H    0.012401
   140  H    0.007887
 Sum of Mulliken charges =  -0.00000

 Dipole moment (field-independent basis, Debye):
    X=             -3.7104    Y=              0.3596    Z=              2.8293  Tot=              4.6799
 Quadrupole moment (field-independent basis, Debye-Ang):
   XX=           -375.4114   YY=           -431.2127   ZZ=           -403.7824
   XY=             10.3422   XZ=             21.9451   YZ=             -5.2134

 Normal termination of Gaussian 16 at Sat Apr 30 13:28:54 2022.
