 Gaussian 16, Revision A.03,
 Gaussian 16:  ES64L-G16RevA.03 25-Dec-2016

 ---------------------------------
 #p PBE1PBE/Def2SVP td=(nstates=5)
 ---------------------------------

 -----------------------------------------------------
 step_751_chromophore_24 TDDFT with PBE1PBE functional
 -----------------------------------------------------
 Symbolic Z-matrix:
 Charge =  0 Multiplicity = 1

                         Standard orientation:
 ---------------------------------------------------------------------
 Center     Atomic      Atomic             Coordinates (Angstroms)
 Number     Number       Type             X           Y           Z
 ---------------------------------------------------------------------
      1         12           0        5.080485    1.205239    0.093774
      2          6           0        4.388701   -2.239155   -0.059630
      3          6           0        1.664667    1.805009   -0.213803
      4          6           0        5.746099    4.426547   -0.100519
      5          6           0        8.439461    0.388694    0.311953
      6          7           0        3.211774   -0.081839   -0.322986
      7          6           0        3.169670   -1.474972   -0.159528
      8          6           0        1.762641   -2.000213   -0.033066
      9          6           0        0.890369   -0.692748   -0.325206
     10          6           0        1.955124    0.426937   -0.317390
     11          6           0        0.003815   -0.742666   -1.581300
     12          6           0        1.540196   -2.621485    1.413568
     13          6           0        1.039261   -4.069712    1.376658
     14          6           0       -0.016379   -4.510925    0.428240
     15          8           0        0.193303   -5.107540   -0.669345
     16          8           0       -1.301365   -4.071163    0.882856
     17          7           0        3.878706    2.861521   -0.139056
     18          6           0        2.492874    2.915002   -0.112151
     19          6           0        2.169949    4.299550   -0.138582
     20          6           0        3.394435    5.102890   -0.177688
     21          6           0        4.392199    4.095146   -0.111157
     22          6           0        0.758224    4.737344   -0.143905
     23          6           0        3.557187    6.599130   -0.386412
     24          8           0        4.603058    7.219338   -0.208041
     25          6           0        2.270940    7.419638   -0.489579
     26          7           0        6.891363    2.212495    0.005458
     27          6           0        6.871973    3.552055   -0.058918
     28          6           0        8.371460    4.067705   -0.138502
     29          6           0        9.075999    2.852092    0.537281
     30          6           0        8.092779    1.746755    0.257970
     31          6           0        8.834392    4.365215   -1.588835
     32          6           0        9.620008    3.046492    2.020729
     33          6           0        8.568243    3.320585    3.146939
     34          7           0        6.223522   -0.573253   -0.017356
     35          6           0        7.595752   -0.705902    0.053701
     36          6           0        7.948153   -2.123149   -0.197719
     37          6           0        6.754147   -2.833841   -0.064461
     38          6           0        5.699754   -1.824592   -0.014683
     39          6           0        9.345930   -2.680848   -0.323704
     40          6           0        6.068156   -4.087179   -0.088653
     41          8           0        6.560484   -5.132357   -0.405405
     42          6           0        4.553626   -3.780576    0.047943
     43          6           0        3.843024   -4.666968   -0.982892
     44          8           0        3.428344   -4.278304   -2.063013
     45          8           0        3.762740   -5.932673   -0.558834
     46          6           0        3.150798   -6.940925   -1.518390
     47          6           0       -2.431650   -4.280288   -0.019171
     48          6           0       -3.553683   -3.231157    0.166990
     49          6           0       -4.621752   -3.232007   -0.646567
     50          6           0       -4.886501   -4.160065   -1.827862
     51          6           0       -5.758590   -2.277443   -0.341483
     52          6           0       -6.817248   -2.880439    0.627631
     53          6           0       -7.026489   -2.039282    1.903955
     54          6           0       -8.523091   -1.698861    2.217325
     55          6           0       -8.891997   -2.291039    3.609511
     56          6           0       -8.898689   -0.170483    2.190160
     57          6           0       -9.813413    0.178608    1.005200
     58          6           0       -9.635176    1.609544    0.572488
     59          6           0      -10.252779    1.897117   -0.847747
     60          6           0       -9.183031    2.288669   -1.951776
     61          6           0      -11.413382    2.860502   -0.796882
     62          6           0      -12.751709    2.445989   -1.495420
     63          6           0      -13.730033    1.850732   -0.488574
     64          6           0      -15.028451    2.609200   -0.441898
     65          6           0      -15.657874    2.493448    1.009709
     66          6           0      -15.999702    2.278717   -1.590547
     67          1           0        0.586552    1.975796   -0.195766
     68          1           0        6.127471    5.445970   -0.186254
     69          1           0        9.495823    0.179560    0.493487
     70          1           0        1.504366   -2.636083   -0.879855
     71          1           0        0.221262   -0.757626    0.532433
     72          1           0       -0.269272    0.251129   -1.936328
     73          1           0       -0.899261   -1.351062   -1.535263
     74          1           0        0.649741   -0.900702   -2.445185
     75          1           0        0.859926   -2.010650    2.007334
     76          1           0        2.473269   -2.812916    1.943325
     77          1           0        0.604700   -4.236290    2.362733
     78          1           0        1.979119   -4.618506    1.302567
     79          1           0        0.508079    5.290973   -1.049196
     80          1           0        0.525006    5.356776    0.722398
     81          1           0        0.115870    3.857572   -0.107525
     82          1           0        2.532177    8.465867   -0.327849
     83          1           0        1.518892    7.198027    0.268274
     84          1           0        1.790457    7.195759   -1.441308
     85          1           0        8.434194    4.992997    0.433151
     86          1           0        9.910708    2.467229   -0.047563
     87          1           0        9.301170    5.347262   -1.518462
     88          1           0        8.036061    4.419018   -2.327755
     89          1           0        9.509757    3.561175   -1.882875
     90          1           0       10.200978    3.968410    2.044563
     91          1           0       10.300109    2.215102    2.206550
     92          1           0        8.579773    2.475993    3.836245
     93          1           0        7.592051    3.695090    2.840524
     94          1           0        8.852478    4.182550    3.750720
     95          1           0        9.973750   -1.972750   -0.863603
     96          1           0        9.364554   -3.623063   -0.872584
     97          1           0        9.758786   -3.038221    0.619674
     98          1           0        4.196548   -4.134941    1.015330
     99          1           0        3.549707   -6.962039   -2.532731
    100          1           0        2.066082   -6.888283   -1.609529
    101          1           0        3.515750   -7.860772   -1.060721
    102          1           0       -2.868989   -5.264973    0.141969
    103          1           0       -2.051763   -4.362941   -1.037980
    104          1           0       -3.497779   -2.523130    0.994342
    105          1           0       -4.313679   -3.731352   -2.650087
    106          1           0       -5.889299   -4.098354   -2.249883
    107          1           0       -4.441925   -5.141339   -1.662358
    108          1           0       -6.211330   -2.061123   -1.309016
    109          1           0       -5.175405   -1.437070    0.033992
    110          1           0       -6.645887   -3.904587    0.960287
    111          1           0       -7.700693   -2.879993   -0.011974
    112          1           0       -6.420490   -1.150892    1.727743
    113          1           0       -6.373794   -2.568437    2.598458
    114          1           0       -9.194210   -2.186632    1.510971
    115          1           0       -8.137167   -2.965012    4.014894
    116          1           0       -9.781079   -2.911677    3.501611
    117          1           0       -9.140652   -1.598385    4.413941
    118          1           0       -7.945307    0.333541    2.035791
    119          1           0       -9.244007    0.214574    3.149994
    120          1           0      -10.852369    0.065920    1.315561
    121          1           0       -9.673378   -0.356920    0.065522
    122          1           0       -8.557189    1.764173    0.523415
    123          1           0       -9.985993    2.260970    1.371912
    124          1           0      -10.694687    0.964779   -1.198376
    125          1           0       -9.603247    2.976365   -2.685229
    126          1           0       -9.052003    1.336417   -2.465649
    127          1           0       -8.268090    2.668302   -1.497068
    128          1           0      -11.236095    3.794820   -1.329652
    129          1           0      -11.574149    3.106632    0.253340
    130          1           0      -12.557958    1.700880   -2.267741
    131          1           0      -13.177885    3.173263   -2.187304
    132          1           0      -13.293276    1.896064    0.509174
    133          1           0      -13.959228    0.791035   -0.595624
    134          1           0      -14.767018    3.666241   -0.489233
    135          1           0      -15.579773    3.399874    1.611511
    136          1           0      -15.214795    1.710209    1.625617
    137          1           0      -16.737438    2.350610    0.952332
    138          1           0      -17.004751    2.376998   -1.179913
    139          1           0      -15.923895    1.300632   -2.064745
    140          1           0      -15.926154    3.044065   -2.363052
 ---------------------------------------------------------------------

 SCF Done:  E(RPBE1PBE) =  -3005.33703463     A.U. after   15 cycles

 Excitation energies and oscillator strengths:

 Excited State   1:      Singlet-A      1.8756 eV  661.03 nm  f=0.3616  <S**2>=0.000
     245 -> 248       -0.18698
     246 -> 247        0.68886
 This state for optimization and/or second-order correction.
 Total Energy, E(TD-HF/TD-DFT) =  -3005.26810706
 Copying the excited state density for this state as the 1-particle RhoCI density.

 Excited State   2:      Singlet-A      2.2390 eV  553.76 nm  f=0.0808  <S**2>=0.000
     245 -> 247        0.64417
     246 -> 248        0.28101

 Excited State   3:      Singlet-A      3.0293 eV  409.28 nm  f=0.0020  <S**2>=0.000
     240 -> 247       -0.18614
     241 -> 247        0.10299
     242 -> 247       -0.36967
     244 -> 247        0.53817

 Excited State   4:      Singlet-A      3.0768 eV  402.97 nm  f=0.0004  <S**2>=0.000
     240 -> 247        0.30146
     242 -> 247        0.42231
     244 -> 247        0.43303

 Excited State   5:      Singlet-A      3.1911 eV  388.53 nm  f=0.0002  <S**2>=0.000
     241 -> 247        0.64695
     241 -> 249        0.14345
     242 -> 247        0.13348

 The electronic state is 1-A.
 Alpha  occ. eigenvalues --  -46.91906 -19.26264 -19.25066 -19.21457 -19.19113
 Alpha  occ. eigenvalues --  -19.18849 -19.18391 -14.41757 -14.40775 -14.38750
 Alpha  occ. eigenvalues --  -14.38556 -10.37860 -10.35166 -10.32148 -10.31788
 Alpha  occ. eigenvalues --  -10.29602 -10.29421 -10.28509 -10.28155 -10.28086
 Alpha  occ. eigenvalues --  -10.28071 -10.27877 -10.26832 -10.26732 -10.26412
 Alpha  occ. eigenvalues --  -10.26397 -10.26289 -10.26151 -10.25874 -10.25830
 Alpha  occ. eigenvalues --  -10.25746 -10.25471 -10.25422 -10.25349 -10.25210
 Alpha  occ. eigenvalues --  -10.24851 -10.24810 -10.24633 -10.24192 -10.24062
 Alpha  occ. eigenvalues --  -10.23972 -10.23888 -10.23715 -10.23556 -10.23511
 Alpha  occ. eigenvalues --  -10.23445 -10.23363 -10.23290 -10.23182 -10.23127
 Alpha  occ. eigenvalues --  -10.23098 -10.23096 -10.23087 -10.22908 -10.22771
 Alpha  occ. eigenvalues --  -10.22755 -10.22739 -10.22418 -10.22304 -10.22204
 Alpha  occ. eigenvalues --  -10.22156 -10.21870 -10.21830 -10.21681 -10.21652
 Alpha  occ. eigenvalues --  -10.21601  -3.14023  -1.86865  -1.86411  -1.86233
 Alpha  occ. eigenvalues --   -1.10170  -1.09202  -1.06013  -1.04100  -1.01749
 Alpha  occ. eigenvalues --   -1.00918  -0.99827  -0.98014  -0.97739  -0.96741
 Alpha  occ. eigenvalues --   -0.86689  -0.85103  -0.84312  -0.84112  -0.82928
 Alpha  occ. eigenvalues --   -0.82896  -0.82194  -0.81551  -0.81174  -0.80982
 Alpha  occ. eigenvalues --   -0.80431  -0.80120  -0.78791  -0.77671  -0.77319
 Alpha  occ. eigenvalues --   -0.76695  -0.75841  -0.74955  -0.74855  -0.74327
 Alpha  occ. eigenvalues --   -0.74090  -0.72579  -0.72318  -0.71563  -0.70702
 Alpha  occ. eigenvalues --   -0.70133  -0.69608  -0.69426  -0.68950  -0.68434
 Alpha  occ. eigenvalues --   -0.68065  -0.66887  -0.66036  -0.65049  -0.64082
 Alpha  occ. eigenvalues --   -0.63133  -0.63065  -0.61318  -0.61123  -0.60013
 Alpha  occ. eigenvalues --   -0.59713  -0.59542  -0.59389  -0.58934  -0.58499
 Alpha  occ. eigenvalues --   -0.58079  -0.57520  -0.56896  -0.55834  -0.54804
 Alpha  occ. eigenvalues --   -0.54669  -0.54156  -0.53431  -0.52723  -0.51851
 Alpha  occ. eigenvalues --   -0.51482  -0.50976  -0.50647  -0.50404  -0.49959
 Alpha  occ. eigenvalues --   -0.49483  -0.49130  -0.48967  -0.48722  -0.48311
 Alpha  occ. eigenvalues --   -0.48168  -0.48063  -0.47965  -0.47637  -0.46961
 Alpha  occ. eigenvalues --   -0.46931  -0.46783  -0.46590  -0.46475  -0.46272
 Alpha  occ. eigenvalues --   -0.45973  -0.45917  -0.45618  -0.45373  -0.44877
 Alpha  occ. eigenvalues --   -0.44694  -0.44305  -0.44194  -0.44152  -0.44058
 Alpha  occ. eigenvalues --   -0.43903  -0.43595  -0.43374  -0.43283  -0.43091
 Alpha  occ. eigenvalues --   -0.42925  -0.42886  -0.42512  -0.42332  -0.42065
 Alpha  occ. eigenvalues --   -0.42005  -0.41806  -0.41434  -0.41132  -0.41045
 Alpha  occ. eigenvalues --   -0.40920  -0.40727  -0.40669  -0.40609  -0.40388
 Alpha  occ. eigenvalues --   -0.40312  -0.40119  -0.40059  -0.39956  -0.39762
 Alpha  occ. eigenvalues --   -0.39700  -0.39476  -0.39105  -0.38979  -0.38891
 Alpha  occ. eigenvalues --   -0.38566  -0.38473  -0.38081  -0.38067  -0.37660
 Alpha  occ. eigenvalues --   -0.37511  -0.37222  -0.36978  -0.36950  -0.36740
 Alpha  occ. eigenvalues --   -0.36577  -0.36458  -0.36260  -0.36052  -0.36027
 Alpha  occ. eigenvalues --   -0.35698  -0.35501  -0.35351  -0.35113  -0.35104
 Alpha  occ. eigenvalues --   -0.34556  -0.34524  -0.34094  -0.33646  -0.33545
 Alpha  occ. eigenvalues --   -0.32843  -0.32740  -0.32525  -0.32505  -0.32439
 Alpha  occ. eigenvalues --   -0.32122  -0.31791  -0.31662  -0.31507  -0.31091
 Alpha  occ. eigenvalues --   -0.30878  -0.30783  -0.29946  -0.29537  -0.29438
 Alpha  occ. eigenvalues --   -0.29350  -0.28854  -0.27480  -0.26586  -0.25935
 Alpha  occ. eigenvalues --   -0.25560  -0.25339  -0.24969  -0.24763  -0.20740
 Alpha  occ. eigenvalues --   -0.18529
 Alpha virt. eigenvalues --   -0.10756  -0.05220  -0.04031  -0.02027  -0.01984
 Alpha virt. eigenvalues --   -0.00174   0.01067   0.01646   0.02124   0.03427
 Alpha virt. eigenvalues --    0.04284   0.04802   0.04978   0.05570   0.05797

 Mulliken charges:
               1
     1  Mg   0.958587
     2  C    0.057220
     3  C   -0.079090
     4  C   -0.055347
     5  C   -0.093781
     6  N   -0.352884
     7  C    0.028662
     8  C   -0.105984
     9  C   -0.112964
    10  C    0.049645
    11  C    0.016943
    12  C    0.024702
    13  C   -0.031393
    14  C    0.277007
    15  O   -0.288269
    16  O   -0.404325
    17  N   -0.504255
    18  C    0.207196
    19  C   -0.189917
    20  C   -0.072031
    21  C    0.199629
    22  C    0.052932
    23  C    0.078722
    24  O   -0.246481
    25  C   -0.037921
    26  N   -0.378665
    27  C    0.024338
    28  C   -0.154195
    29  C   -0.091511
    30  C    0.075124
    31  C    0.040161
    32  C   -0.006330
    33  C   -0.083194
    34  N   -0.456290
    35  C    0.163620
    36  C   -0.193664
    37  C    0.027673
    38  C    0.071771
    39  C    0.055055
    40  C    0.116069
    41  O   -0.185623
    42  C   -0.160096
    43  C    0.266366
    44  O   -0.257827
    45  O   -0.355203
    46  C    0.121019
    47  C    0.218882
    48  C   -0.118738
    49  C   -0.256155
    50  C    0.036947
    51  C   -0.008540
    52  C   -0.039817
    53  C    0.006028
    54  C   -0.185450
    55  C   -0.026487
    56  C    0.028435
    57  C   -0.078482
    58  C   -0.014814
    59  C   -0.202668
    60  C   -0.001913
    61  C    0.004179
    62  C   -0.051081
    63  C    0.005371
    64  C   -0.247705
    65  C   -0.034792
    66  C    0.002903
    67  H    0.001921
    68  H    0.024054
    69  H    0.002629
    70  H    0.086149
    71  H    0.034384
    72  H    0.023574
    73  H    0.065045
    74  H    0.039107
    75  H    0.053586
    76  H    0.057731
    77  H    0.061222
    78  H    0.065969
    79  H    0.051549
    80  H    0.059777
    81  H    0.026641
    82  H    0.055317
    83  H    0.052337
    84  H    0.056512
    85  H    0.037863
    86  H    0.027435
    87  H    0.051417
    88  H    0.051737
    89  H    0.041735
    90  H    0.043362
    91  H    0.040999
    92  H    0.051475
    93  H    0.059007
    94  H    0.029868
    95  H    0.049236
    96  H    0.053627
    97  H    0.059522
    98  H    0.073724
    99  H    0.062811
   100  H    0.082403
   101  H    0.055783
   102  H    0.052809
   103  H    0.056657
   104  H    0.027930
   105  H    0.053056
   106  H    0.042756
   107  H    0.049751
   108  H    0.027527
   109  H    0.043918
   110  H    0.044584
   111  H    0.028753
   112  H    0.014944
   113  H    0.032332
   114  H    0.051206
   115  H    0.027529
   116  H    0.026469
   117  H    0.032461
   118  H    0.013070
   119  H    0.031862
   120  H    0.035702
   121  H    0.034269
   122  H    0.014253
   123  H    0.026845
   124  H    0.032944
   125  H    0.034211
   126  H    0.031625
   127  H    0.046981
   128  H    0.019355
   129  H    0.023708
   130  H    0.011948
   131  H    0.023156
   132  H    0.022893
   133  H    0.022922
   134  H    0.034077
   135  H    0.031702
   136  H    0.033960
   137  H    0.021048
   138  H    0.026405
   139  H    0.038626
   140  H    0.034945
 Sum of Mulliken charges =  -0.00000

 Dipole moment (field-independent basis, Debye):
    X=             -3.8385    Y=              0.7268    Z=              2.8232  Tot=              4.8201
 Quadrupole moment (field-independent basis, Debye-Ang):
   XX=           -371.2025   YY=           -427.8791   ZZ=           -401.0875
   XY=             12.7581   XZ=             22.2979   YZ=             -5.0184

 Normal termination of Gaussian 16 at Sat Apr 30 13:46:15 2022.
