 Gaussian 16, Revision A.03,
 Gaussian 16:  ES64L-G16RevA.03 25-Dec-2016

 --------------------------------
 #p wB97XD/Def2SVP td=(nstates=5)
 --------------------------------

 ----------------------------------------------------
 step_751_chromophore_24 TDDFT with wB97XD functional
 ----------------------------------------------------
 Symbolic Z-matrix:
 Charge =  0 Multiplicity = 1

                         Standard orientation:
 ---------------------------------------------------------------------
 Center     Atomic      Atomic             Coordinates (Angstroms)
 Number     Number       Type             X           Y           Z
 ---------------------------------------------------------------------
      1         12           0        5.080485    1.205239    0.093774
      2          6           0        4.388701   -2.239155   -0.059630
      3          6           0        1.664667    1.805009   -0.213803
      4          6           0        5.746099    4.426547   -0.100519
      5          6           0        8.439461    0.388694    0.311953
      6          7           0        3.211774   -0.081839   -0.322986
      7          6           0        3.169670   -1.474972   -0.159528
      8          6           0        1.762641   -2.000213   -0.033066
      9          6           0        0.890369   -0.692748   -0.325206
     10          6           0        1.955124    0.426937   -0.317390
     11          6           0        0.003815   -0.742666   -1.581300
     12          6           0        1.540196   -2.621485    1.413568
     13          6           0        1.039261   -4.069712    1.376658
     14          6           0       -0.016379   -4.510925    0.428240
     15          8           0        0.193303   -5.107540   -0.669345
     16          8           0       -1.301365   -4.071163    0.882856
     17          7           0        3.878706    2.861521   -0.139056
     18          6           0        2.492874    2.915002   -0.112151
     19          6           0        2.169949    4.299550   -0.138582
     20          6           0        3.394435    5.102890   -0.177688
     21          6           0        4.392199    4.095146   -0.111157
     22          6           0        0.758224    4.737344   -0.143905
     23          6           0        3.557187    6.599130   -0.386412
     24          8           0        4.603058    7.219338   -0.208041
     25          6           0        2.270940    7.419638   -0.489579
     26          7           0        6.891363    2.212495    0.005458
     27          6           0        6.871973    3.552055   -0.058918
     28          6           0        8.371460    4.067705   -0.138502
     29          6           0        9.075999    2.852092    0.537281
     30          6           0        8.092779    1.746755    0.257970
     31          6           0        8.834392    4.365215   -1.588835
     32          6           0        9.620008    3.046492    2.020729
     33          6           0        8.568243    3.320585    3.146939
     34          7           0        6.223522   -0.573253   -0.017356
     35          6           0        7.595752   -0.705902    0.053701
     36          6           0        7.948153   -2.123149   -0.197719
     37          6           0        6.754147   -2.833841   -0.064461
     38          6           0        5.699754   -1.824592   -0.014683
     39          6           0        9.345930   -2.680848   -0.323704
     40          6           0        6.068156   -4.087179   -0.088653
     41          8           0        6.560484   -5.132357   -0.405405
     42          6           0        4.553626   -3.780576    0.047943
     43          6           0        3.843024   -4.666968   -0.982892
     44          8           0        3.428344   -4.278304   -2.063013
     45          8           0        3.762740   -5.932673   -0.558834
     46          6           0        3.150798   -6.940925   -1.518390
     47          6           0       -2.431650   -4.280288   -0.019171
     48          6           0       -3.553683   -3.231157    0.166990
     49          6           0       -4.621752   -3.232007   -0.646567
     50          6           0       -4.886501   -4.160065   -1.827862
     51          6           0       -5.758590   -2.277443   -0.341483
     52          6           0       -6.817248   -2.880439    0.627631
     53          6           0       -7.026489   -2.039282    1.903955
     54          6           0       -8.523091   -1.698861    2.217325
     55          6           0       -8.891997   -2.291039    3.609511
     56          6           0       -8.898689   -0.170483    2.190160
     57          6           0       -9.813413    0.178608    1.005200
     58          6           0       -9.635176    1.609544    0.572488
     59          6           0      -10.252779    1.897117   -0.847747
     60          6           0       -9.183031    2.288669   -1.951776
     61          6           0      -11.413382    2.860502   -0.796882
     62          6           0      -12.751709    2.445989   -1.495420
     63          6           0      -13.730033    1.850732   -0.488574
     64          6           0      -15.028451    2.609200   -0.441898
     65          6           0      -15.657874    2.493448    1.009709
     66          6           0      -15.999702    2.278717   -1.590547
     67          1           0        0.586552    1.975796   -0.195766
     68          1           0        6.127471    5.445970   -0.186254
     69          1           0        9.495823    0.179560    0.493487
     70          1           0        1.504366   -2.636083   -0.879855
     71          1           0        0.221262   -0.757626    0.532433
     72          1           0       -0.269272    0.251129   -1.936328
     73          1           0       -0.899261   -1.351062   -1.535263
     74          1           0        0.649741   -0.900702   -2.445185
     75          1           0        0.859926   -2.010650    2.007334
     76          1           0        2.473269   -2.812916    1.943325
     77          1           0        0.604700   -4.236290    2.362733
     78          1           0        1.979119   -4.618506    1.302567
     79          1           0        0.508079    5.290973   -1.049196
     80          1           0        0.525006    5.356776    0.722398
     81          1           0        0.115870    3.857572   -0.107525
     82          1           0        2.532177    8.465867   -0.327849
     83          1           0        1.518892    7.198027    0.268274
     84          1           0        1.790457    7.195759   -1.441308
     85          1           0        8.434194    4.992997    0.433151
     86          1           0        9.910708    2.467229   -0.047563
     87          1           0        9.301170    5.347262   -1.518462
     88          1           0        8.036061    4.419018   -2.327755
     89          1           0        9.509757    3.561175   -1.882875
     90          1           0       10.200978    3.968410    2.044563
     91          1           0       10.300109    2.215102    2.206550
     92          1           0        8.579773    2.475993    3.836245
     93          1           0        7.592051    3.695090    2.840524
     94          1           0        8.852478    4.182550    3.750720
     95          1           0        9.973750   -1.972750   -0.863603
     96          1           0        9.364554   -3.623063   -0.872584
     97          1           0        9.758786   -3.038221    0.619674
     98          1           0        4.196548   -4.134941    1.015330
     99          1           0        3.549707   -6.962039   -2.532731
    100          1           0        2.066082   -6.888283   -1.609529
    101          1           0        3.515750   -7.860772   -1.060721
    102          1           0       -2.868989   -5.264973    0.141969
    103          1           0       -2.051763   -4.362941   -1.037980
    104          1           0       -3.497779   -2.523130    0.994342
    105          1           0       -4.313679   -3.731352   -2.650087
    106          1           0       -5.889299   -4.098354   -2.249883
    107          1           0       -4.441925   -5.141339   -1.662358
    108          1           0       -6.211330   -2.061123   -1.309016
    109          1           0       -5.175405   -1.437070    0.033992
    110          1           0       -6.645887   -3.904587    0.960287
    111          1           0       -7.700693   -2.879993   -0.011974
    112          1           0       -6.420490   -1.150892    1.727743
    113          1           0       -6.373794   -2.568437    2.598458
    114          1           0       -9.194210   -2.186632    1.510971
    115          1           0       -8.137167   -2.965012    4.014894
    116          1           0       -9.781079   -2.911677    3.501611
    117          1           0       -9.140652   -1.598385    4.413941
    118          1           0       -7.945307    0.333541    2.035791
    119          1           0       -9.244007    0.214574    3.149994
    120          1           0      -10.852369    0.065920    1.315561
    121          1           0       -9.673378   -0.356920    0.065522
    122          1           0       -8.557189    1.764173    0.523415
    123          1           0       -9.985993    2.260970    1.371912
    124          1           0      -10.694687    0.964779   -1.198376
    125          1           0       -9.603247    2.976365   -2.685229
    126          1           0       -9.052003    1.336417   -2.465649
    127          1           0       -8.268090    2.668302   -1.497068
    128          1           0      -11.236095    3.794820   -1.329652
    129          1           0      -11.574149    3.106632    0.253340
    130          1           0      -12.557958    1.700880   -2.267741
    131          1           0      -13.177885    3.173263   -2.187304
    132          1           0      -13.293276    1.896064    0.509174
    133          1           0      -13.959228    0.791035   -0.595624
    134          1           0      -14.767018    3.666241   -0.489233
    135          1           0      -15.579773    3.399874    1.611511
    136          1           0      -15.214795    1.710209    1.625617
    137          1           0      -16.737438    2.350610    0.952332
    138          1           0      -17.004751    2.376998   -1.179913
    139          1           0      -15.923895    1.300632   -2.064745
    140          1           0      -15.926154    3.044065   -2.363052
 ---------------------------------------------------------------------

 SCF Done:  E(RwB97XD) =  -3007.84532613     A.U. after   17 cycles

 Excitation energies and oscillator strengths:

 Excited State   1:      Singlet-A      1.6800 eV  738.01 nm  f=0.3668  <S**2>=0.000
     245 -> 248       -0.19924
     246 -> 247        0.67982
     245 <- 248       -0.11928
 This state for optimization and/or second-order correction.
 Total Energy, E(TD-HF/TD-DFT) =  -3007.78358772
 Copying the excited state density for this state as the 1-particle RhoCI density.

 Excited State   2:      Singlet-A      2.1933 eV  565.30 nm  f=0.0771  <S**2>=0.000
     245 -> 247        0.62676
     246 -> 248        0.31490

 Excited State   3:      Singlet-A      3.4258 eV  361.92 nm  f=0.1748  <S**2>=0.000
     240 -> 247        0.15432
     240 -> 249        0.12494
     242 -> 247        0.44740
     242 -> 249        0.11551
     244 -> 247       -0.28991
     245 -> 247        0.14010
     246 -> 248       -0.33312

 Excited State   4:      Singlet-A      3.4812 eV  356.15 nm  f=0.2269  <S**2>=0.000
     244 -> 247        0.53579
     244 -> 249       -0.10965
     245 -> 247        0.17140
     246 -> 248       -0.40249

 Excited State   5:      Singlet-A      3.5500 eV  349.25 nm  f=0.1850  <S**2>=0.000
     239 -> 247        0.31352
     239 -> 249        0.19346
     239 -> 250        0.10283
     240 -> 247        0.36356
     240 -> 249        0.20316
     240 -> 250        0.10361
     244 -> 247        0.21255
     245 -> 247       -0.14457
     246 -> 248        0.25985

 The electronic state is 1-A.
 Alpha  occ. eigenvalues --  -46.94853 -19.30836 -19.29715 -19.26155 -19.24232
 Alpha  occ. eigenvalues --  -19.23466 -19.23187 -14.46945 -14.45747 -14.43801
 Alpha  occ. eigenvalues --  -14.43365 -10.44704 -10.42098 -10.38906 -10.38813
 Alpha  occ. eigenvalues --  -10.36095 -10.35836 -10.34754 -10.34596 -10.34537
 Alpha  occ. eigenvalues --  -10.34488 -10.34234 -10.33144 -10.32928 -10.32914
 Alpha  occ. eigenvalues --  -10.32882 -10.32859 -10.32535 -10.32365 -10.32027
 Alpha  occ. eigenvalues --  -10.32024 -10.31892 -10.31697 -10.31500 -10.31426
 Alpha  occ. eigenvalues --  -10.31168 -10.31135 -10.31074 -10.30459 -10.30429
 Alpha  occ. eigenvalues --  -10.30413 -10.30152 -10.30089 -10.29958 -10.29910
 Alpha  occ. eigenvalues --  -10.29793 -10.29743 -10.29626 -10.29515 -10.29479
 Alpha  occ. eigenvalues --  -10.29446 -10.29403 -10.29387 -10.29302 -10.29206
 Alpha  occ. eigenvalues --  -10.29110 -10.29092 -10.28788 -10.28716 -10.28554
 Alpha  occ. eigenvalues --  -10.28504 -10.28256 -10.28219 -10.28085 -10.28068
 Alpha  occ. eigenvalues --  -10.27966  -3.20826  -1.94416  -1.93965  -1.93784
 Alpha  occ. eigenvalues --   -1.17665  -1.16626  -1.13750  -1.11403  -1.09139
 Alpha  occ. eigenvalues --   -1.08376  -1.07163  -1.05376  -1.05111  -1.04142
 Alpha  occ. eigenvalues --   -0.94490  -0.92771  -0.91986  -0.91771  -0.90576
 Alpha  occ. eigenvalues --   -0.90434  -0.89735  -0.89201  -0.88855  -0.88601
 Alpha  occ. eigenvalues --   -0.88017  -0.87743  -0.86438  -0.85298  -0.84950
 Alpha  occ. eigenvalues --   -0.84342  -0.83503  -0.82606  -0.82517  -0.81967
 Alpha  occ. eigenvalues --   -0.81757  -0.80282  -0.79903  -0.79139  -0.78368
 Alpha  occ. eigenvalues --   -0.77838  -0.77302  -0.76984  -0.76621  -0.76086
 Alpha  occ. eigenvalues --   -0.75664  -0.74491  -0.73542  -0.72681  -0.71657
 Alpha  occ. eigenvalues --   -0.70737  -0.70674  -0.68888  -0.68613  -0.67413
 Alpha  occ. eigenvalues --   -0.67322  -0.67078  -0.66850  -0.66584  -0.65952
 Alpha  occ. eigenvalues --   -0.65585  -0.65159  -0.64516  -0.63308  -0.62215
 Alpha  occ. eigenvalues --   -0.62061  -0.61663  -0.60890  -0.60139  -0.59412
 Alpha  occ. eigenvalues --   -0.59032  -0.58379  -0.58132  -0.57792  -0.57410
 Alpha  occ. eigenvalues --   -0.56892  -0.56539  -0.56407  -0.56164  -0.55766
 Alpha  occ. eigenvalues --   -0.55627  -0.55482  -0.55357  -0.55037  -0.54335
 Alpha  occ. eigenvalues --   -0.54199  -0.54123  -0.53976  -0.53825  -0.53690
 Alpha  occ. eigenvalues --   -0.53478  -0.53211  -0.52953  -0.52701  -0.52242
 Alpha  occ. eigenvalues --   -0.52037  -0.51646  -0.51529  -0.51507  -0.51468
 Alpha  occ. eigenvalues --   -0.51251  -0.50831  -0.50683  -0.50563  -0.50359
 Alpha  occ. eigenvalues --   -0.50182  -0.50146  -0.49754  -0.49592  -0.49360
 Alpha  occ. eigenvalues --   -0.49238  -0.49017  -0.48773  -0.48390  -0.48293
 Alpha  occ. eigenvalues --   -0.48122  -0.47914  -0.47866  -0.47821  -0.47597
 Alpha  occ. eigenvalues --   -0.47502  -0.47256  -0.47182  -0.47168  -0.46996
 Alpha  occ. eigenvalues --   -0.46960  -0.46744  -0.46421  -0.46260  -0.46020
 Alpha  occ. eigenvalues --   -0.45747  -0.45636  -0.45202  -0.45166  -0.44803
 Alpha  occ. eigenvalues --   -0.44638  -0.44347  -0.44082  -0.43884  -0.43852
 Alpha  occ. eigenvalues --   -0.43681  -0.43535  -0.43391  -0.43181  -0.43074
 Alpha  occ. eigenvalues --   -0.42725  -0.42563  -0.42365  -0.42189  -0.42105
 Alpha  occ. eigenvalues --   -0.41555  -0.41480  -0.41140  -0.40716  -0.40513
 Alpha  occ. eigenvalues --   -0.39807  -0.39757  -0.39588  -0.39500  -0.39492
 Alpha  occ. eigenvalues --   -0.39171  -0.38822  -0.38590  -0.38423  -0.38090
 Alpha  occ. eigenvalues --   -0.37936  -0.37807  -0.36824  -0.36633  -0.36352
 Alpha  occ. eigenvalues --   -0.36138  -0.35601  -0.34674  -0.33342  -0.33002
 Alpha  occ. eigenvalues --   -0.32506  -0.32139  -0.31718  -0.31174  -0.25731
 Alpha  occ. eigenvalues --   -0.22692
 Alpha virt. eigenvalues --   -0.06553   0.00126   0.02202   0.04499   0.04781
 Alpha virt. eigenvalues --    0.05744   0.07752   0.08361   0.08798   0.09849
 Alpha virt. eigenvalues --    0.10718   0.11615   0.11800   0.12286   0.12476

 Mulliken charges:
               1
     1  Mg   0.949070
     2  C    0.055642
     3  C   -0.086336
     4  C   -0.078880
     5  C   -0.116336
     6  N   -0.317904
     7  C    0.002261
     8  C   -0.086247
     9  C   -0.084729
    10  C    0.029134
    11  C    0.027258
    12  C    0.037419
    13  C   -0.007682
    14  C    0.264874
    15  O   -0.284516
    16  O   -0.403486
    17  N   -0.468964
    18  C    0.191521
    19  C   -0.175000
    20  C   -0.075560
    21  C    0.197497
    22  C    0.065842
    23  C    0.074673
    24  O   -0.242049
    25  C   -0.023695
    26  N   -0.345105
    27  C    0.009289
    28  C   -0.128509
    29  C   -0.062036
    30  C    0.058692
    31  C    0.047617
    32  C    0.007144
    33  C   -0.067418
    34  N   -0.422122
    35  C    0.160864
    36  C   -0.190243
    37  C    0.032796
    38  C    0.060872
    39  C    0.065539
    40  C    0.099521
    41  O   -0.174597
    42  C   -0.122417
    43  C    0.241807
    44  O   -0.250151
    45  O   -0.353581
    46  C    0.136603
    47  C    0.230110
    48  C   -0.129778
    49  C   -0.241546
    50  C    0.048983
    51  C    0.014607
    52  C   -0.028044
    53  C    0.021676
    54  C   -0.155879
    55  C   -0.014258
    56  C    0.043345
    57  C   -0.055940
    58  C   -0.000039
    59  C   -0.173042
    60  C    0.011467
    61  C    0.021230
    62  C   -0.037112
    63  C    0.022377
    64  C   -0.217109
    65  C   -0.021687
    66  C    0.013047
    67  H   -0.006435
    68  H    0.018947
    69  H   -0.002123
    70  H    0.071606
    71  H    0.022229
    72  H    0.016850
    73  H    0.060363
    74  H    0.032261
    75  H    0.048250
    76  H    0.047201
    77  H    0.056480
    78  H    0.052897
    79  H    0.044538
    80  H    0.053378
    81  H    0.020779
    82  H    0.053410
    83  H    0.045410
    84  H    0.050239
    85  H    0.029324
    86  H    0.015608
    87  H    0.046370
    88  H    0.046596
    89  H    0.034382
    90  H    0.035585
    91  H    0.034576
    92  H    0.045847
    93  H    0.050542
    94  H    0.024603
    95  H    0.045104
    96  H    0.050482
    97  H    0.056040
    98  H    0.063712
    99  H    0.059233
   100  H    0.079160
   101  H    0.052671
   102  H    0.046614
   103  H    0.051218
   104  H    0.026272
   105  H    0.046780
   106  H    0.038924
   107  H    0.044342
   108  H    0.019957
   109  H    0.034312
   110  H    0.037078
   111  H    0.019583
   112  H    0.002568
   113  H    0.024668
   114  H    0.037823
   115  H    0.021007
   116  H    0.020699
   117  H    0.026263
   118  H    0.000712
   119  H    0.025073
   120  H    0.025978
   121  H    0.022257
   122  H    0.002284
   123  H    0.018739
   124  H    0.015838
   125  H    0.028238
   126  H    0.025677
   127  H    0.041552
   128  H    0.011196
   129  H    0.012296
   130  H    0.003068
   131  H    0.015765
   132  H    0.009007
   133  H    0.014768
   134  H    0.021850
   135  H    0.026228
   136  H    0.027836
   137  H    0.014314
   138  H    0.019479
   139  H    0.033587
   140  H    0.029254
 Sum of Mulliken charges =  -0.00000

 Dipole moment (field-independent basis, Debye):
    X=             -3.7072    Y=              0.2648    Z=              2.8634  Tot=              4.6917
 Quadrupole moment (field-independent basis, Debye-Ang):
   XX=           -369.8015   YY=           -427.1791   ZZ=           -400.7470
   XY=              9.7565   XZ=             22.2963   YZ=             -5.1372

 Normal termination of Gaussian 16 at Sat Apr 30 14:11:33 2022.
