 Gaussian 16, Revision A.03,
 Gaussian 16:  ES64L-G16RevA.03 25-Dec-2016

 --------------------
 #p ZINDO=(nstates=5)
 --------------------

 -----------------------------
 step_751_chromophore_24 ZINDO
 -----------------------------
 Symbolic Z-matrix:
 Charge =  0 Multiplicity = 1

                         Standard orientation:
 ---------------------------------------------------------------------
 Center     Atomic      Atomic             Coordinates (Angstroms)
 Number     Number       Type             X           Y           Z
 ---------------------------------------------------------------------
      1         12           0        5.080485    1.205239    0.093774
      2          6           0        4.388701   -2.239155   -0.059630
      3          6           0        1.664667    1.805009   -0.213803
      4          6           0        5.746099    4.426547   -0.100519
      5          6           0        8.439461    0.388694    0.311953
      6          7           0        3.211774   -0.081839   -0.322986
      7          6           0        3.169670   -1.474972   -0.159528
      8          6           0        1.762641   -2.000213   -0.033066
      9          6           0        0.890369   -0.692748   -0.325206
     10          6           0        1.955124    0.426937   -0.317390
     11          6           0        0.003815   -0.742666   -1.581300
     12          6           0        1.540196   -2.621485    1.413568
     13          6           0        1.039261   -4.069712    1.376658
     14          6           0       -0.016379   -4.510925    0.428240
     15          8           0        0.193303   -5.107540   -0.669345
     16          8           0       -1.301365   -4.071163    0.882856
     17          7           0        3.878706    2.861521   -0.139056
     18          6           0        2.492874    2.915002   -0.112151
     19          6           0        2.169949    4.299550   -0.138582
     20          6           0        3.394435    5.102890   -0.177688
     21          6           0        4.392199    4.095146   -0.111157
     22          6           0        0.758224    4.737344   -0.143905
     23          6           0        3.557187    6.599130   -0.386412
     24          8           0        4.603058    7.219338   -0.208041
     25          6           0        2.270940    7.419638   -0.489579
     26          7           0        6.891363    2.212495    0.005458
     27          6           0        6.871973    3.552055   -0.058918
     28          6           0        8.371460    4.067705   -0.138502
     29          6           0        9.075999    2.852092    0.537281
     30          6           0        8.092779    1.746755    0.257970
     31          6           0        8.834392    4.365215   -1.588835
     32          6           0        9.620008    3.046492    2.020729
     33          6           0        8.568243    3.320585    3.146939
     34          7           0        6.223522   -0.573253   -0.017356
     35          6           0        7.595752   -0.705902    0.053701
     36          6           0        7.948153   -2.123149   -0.197719
     37          6           0        6.754147   -2.833841   -0.064461
     38          6           0        5.699754   -1.824592   -0.014683
     39          6           0        9.345930   -2.680848   -0.323704
     40          6           0        6.068156   -4.087179   -0.088653
     41          8           0        6.560484   -5.132357   -0.405405
     42          6           0        4.553626   -3.780576    0.047943
     43          6           0        3.843024   -4.666968   -0.982892
     44          8           0        3.428344   -4.278304   -2.063013
     45          8           0        3.762740   -5.932673   -0.558834
     46          6           0        3.150798   -6.940925   -1.518390
     47          6           0       -2.431650   -4.280288   -0.019171
     48          6           0       -3.553683   -3.231157    0.166990
     49          6           0       -4.621752   -3.232007   -0.646567
     50          6           0       -4.886501   -4.160065   -1.827862
     51          6           0       -5.758590   -2.277443   -0.341483
     52          6           0       -6.817248   -2.880439    0.627631
     53          6           0       -7.026489   -2.039282    1.903955
     54          6           0       -8.523091   -1.698861    2.217325
     55          6           0       -8.891997   -2.291039    3.609511
     56          6           0       -8.898689   -0.170483    2.190160
     57          6           0       -9.813413    0.178608    1.005200
     58          6           0       -9.635176    1.609544    0.572488
     59          6           0      -10.252779    1.897117   -0.847747
     60          6           0       -9.183031    2.288669   -1.951776
     61          6           0      -11.413382    2.860502   -0.796882
     62          6           0      -12.751709    2.445989   -1.495420
     63          6           0      -13.730033    1.850732   -0.488574
     64          6           0      -15.028451    2.609200   -0.441898
     65          6           0      -15.657874    2.493448    1.009709
     66          6           0      -15.999702    2.278717   -1.590547
     67          1           0        0.586552    1.975796   -0.195766
     68          1           0        6.127471    5.445970   -0.186254
     69          1           0        9.495823    0.179560    0.493487
     70          1           0        1.504366   -2.636083   -0.879855
     71          1           0        0.221262   -0.757626    0.532433
     72          1           0       -0.269272    0.251129   -1.936328
     73          1           0       -0.899261   -1.351062   -1.535263
     74          1           0        0.649741   -0.900702   -2.445185
     75          1           0        0.859926   -2.010650    2.007334
     76          1           0        2.473269   -2.812916    1.943325
     77          1           0        0.604700   -4.236290    2.362733
     78          1           0        1.979119   -4.618506    1.302567
     79          1           0        0.508079    5.290973   -1.049196
     80          1           0        0.525006    5.356776    0.722398
     81          1           0        0.115870    3.857572   -0.107525
     82          1           0        2.532177    8.465867   -0.327849
     83          1           0        1.518892    7.198027    0.268274
     84          1           0        1.790457    7.195759   -1.441308
     85          1           0        8.434194    4.992997    0.433151
     86          1           0        9.910708    2.467229   -0.047563
     87          1           0        9.301170    5.347262   -1.518462
     88          1           0        8.036061    4.419018   -2.327755
     89          1           0        9.509757    3.561175   -1.882875
     90          1           0       10.200978    3.968410    2.044563
     91          1           0       10.300109    2.215102    2.206550
     92          1           0        8.579773    2.475993    3.836245
     93          1           0        7.592051    3.695090    2.840524
     94          1           0        8.852478    4.182550    3.750720
     95          1           0        9.973750   -1.972750   -0.863603
     96          1           0        9.364554   -3.623063   -0.872584
     97          1           0        9.758786   -3.038221    0.619674
     98          1           0        4.196548   -4.134941    1.015330
     99          1           0        3.549707   -6.962039   -2.532731
    100          1           0        2.066082   -6.888283   -1.609529
    101          1           0        3.515750   -7.860772   -1.060721
    102          1           0       -2.868989   -5.264973    0.141969
    103          1           0       -2.051763   -4.362941   -1.037980
    104          1           0       -3.497779   -2.523130    0.994342
    105          1           0       -4.313679   -3.731352   -2.650087
    106          1           0       -5.889299   -4.098354   -2.249883
    107          1           0       -4.441925   -5.141339   -1.662358
    108          1           0       -6.211330   -2.061123   -1.309016
    109          1           0       -5.175405   -1.437070    0.033992
    110          1           0       -6.645887   -3.904587    0.960287
    111          1           0       -7.700693   -2.879993   -0.011974
    112          1           0       -6.420490   -1.150892    1.727743
    113          1           0       -6.373794   -2.568437    2.598458
    114          1           0       -9.194210   -2.186632    1.510971
    115          1           0       -8.137167   -2.965012    4.014894
    116          1           0       -9.781079   -2.911677    3.501611
    117          1           0       -9.140652   -1.598385    4.413941
    118          1           0       -7.945307    0.333541    2.035791
    119          1           0       -9.244007    0.214574    3.149994
    120          1           0      -10.852369    0.065920    1.315561
    121          1           0       -9.673378   -0.356920    0.065522
    122          1           0       -8.557189    1.764173    0.523415
    123          1           0       -9.985993    2.260970    1.371912
    124          1           0      -10.694687    0.964779   -1.198376
    125          1           0       -9.603247    2.976365   -2.685229
    126          1           0       -9.052003    1.336417   -2.465649
    127          1           0       -8.268090    2.668302   -1.497068
    128          1           0      -11.236095    3.794820   -1.329652
    129          1           0      -11.574149    3.106632    0.253340
    130          1           0      -12.557958    1.700880   -2.267741
    131          1           0      -13.177885    3.173263   -2.187304
    132          1           0      -13.293276    1.896064    0.509174
    133          1           0      -13.959228    0.791035   -0.595624
    134          1           0      -14.767018    3.666241   -0.489233
    135          1           0      -15.579773    3.399874    1.611511
    136          1           0      -15.214795    1.710209    1.625617
    137          1           0      -16.737438    2.350610    0.952332
    138          1           0      -17.004751    2.376998   -1.179913
    139          1           0      -15.923895    1.300632   -2.064745
    140          1           0      -15.926154    3.044065   -2.363052
 ---------------------------------------------------------------------

 SCF Done:  E(RZINDO/S) =  -474.209759975     A.U. after   19 cycles

 Excitation energies and oscillator strengths:

 Excited State   1:      Singlet-A      1.3014 eV  952.68 nm  f=0.5606  <S**2>=0.000
     175 ->178        -0.18890
     176 ->177         0.66340
 This state for optimization and/or second-order correction.
 Total Energy, E(CIS/TDA) =  -474.161933470
 Copying the excited state density for this state as the 1-particle RhoCI density.

 Excited State   2:      Singlet-A      1.9172 eV  646.68 nm  f=0.0179  <S**2>=0.000
     175 ->177         0.52095
     176 ->178         0.44771

 Excited State   3:      Singlet-A      2.8378 eV  436.90 nm  f=0.0307  <S**2>=0.000
     167 ->179         0.12091
     168 ->177        -0.27470
     168 ->178         0.11598
     168 ->179         0.31325
     168 ->181        -0.15171
     168 ->185         0.13584
     169 ->177         0.12403
     169 ->179        -0.13952
     171 ->177        -0.15573
     171 ->179         0.12400
     176 ->178         0.12850
     176 ->179         0.21173

 Excited State   4:      Singlet-A      2.9330 eV  422.72 nm  f=0.4830  <S**2>=0.000
     168 ->177         0.13268
     168 ->179        -0.15315
     175 ->177        -0.25907
     176 ->178         0.36799
     176 ->179         0.41678

 Excited State   5:      Singlet-A      2.9851 eV  415.35 nm  f=0.1150  <S**2>=0.000
     170 ->177         0.20202
     170 ->179         0.25153
     170 ->181         0.40931
     170 ->185         0.17758
     170 ->187        -0.16385
     175 ->177         0.13720
     176 ->178        -0.15713
     176 ->181         0.10050

 The electronic state is 1-A.
 Alpha  occ. eigenvalues --   -1.84647  -1.82127  -1.79887  -1.71854  -1.71596
 Alpha  occ. eigenvalues --   -1.68153  -1.65174  -1.60880  -1.59774  -1.57097
 Alpha  occ. eigenvalues --   -1.56077  -1.51181  -1.49215  -1.47693  -1.44442
 Alpha  occ. eigenvalues --   -1.43035  -1.42838  -1.40222  -1.39527  -1.37905
 Alpha  occ. eigenvalues --   -1.35694  -1.33712  -1.32869  -1.32086  -1.30041
 Alpha  occ. eigenvalues --   -1.27914  -1.24695  -1.21483  -1.19670  -1.18271
 Alpha  occ. eigenvalues --   -1.17094  -1.16289  -1.15546  -1.14506  -1.13598
 Alpha  occ. eigenvalues --   -1.12842  -1.11124  -1.10543  -1.04988  -1.03732
 Alpha  occ. eigenvalues --   -1.03028  -1.01746  -0.99336  -0.97590  -0.96925
 Alpha  occ. eigenvalues --   -0.96736  -0.95621  -0.93913  -0.93147  -0.91687
 Alpha  occ. eigenvalues --   -0.90343  -0.89963  -0.89413  -0.88446  -0.87164
 Alpha  occ. eigenvalues --   -0.85338  -0.84539  -0.82999  -0.81769  -0.80523
 Alpha  occ. eigenvalues --   -0.79603  -0.78092  -0.77097  -0.76895  -0.76359
 Alpha  occ. eigenvalues --   -0.75302  -0.75160  -0.74532  -0.73964  -0.73337
 Alpha  occ. eigenvalues --   -0.72844  -0.71967  -0.71478  -0.71145  -0.70706
 Alpha  occ. eigenvalues --   -0.70508  -0.69422  -0.68752  -0.68477  -0.68278
 Alpha  occ. eigenvalues --   -0.67393  -0.66906  -0.66025  -0.65484  -0.65376
 Alpha  occ. eigenvalues --   -0.65151  -0.64409  -0.64114  -0.63679  -0.63572
 Alpha  occ. eigenvalues --   -0.63189  -0.62320  -0.62061  -0.61837  -0.61706
 Alpha  occ. eigenvalues --   -0.61579  -0.60415  -0.60169  -0.59970  -0.59768
 Alpha  occ. eigenvalues --   -0.59396  -0.59165  -0.59029  -0.58682  -0.58254
 Alpha  occ. eigenvalues --   -0.57685  -0.57506  -0.57368  -0.57066  -0.56652
 Alpha  occ. eigenvalues --   -0.56368  -0.55834  -0.54978  -0.54954  -0.54750
 Alpha  occ. eigenvalues --   -0.54459  -0.54133  -0.53748  -0.53327  -0.52786
 Alpha  occ. eigenvalues --   -0.52115  -0.52038  -0.51992  -0.51645  -0.51154
 Alpha  occ. eigenvalues --   -0.50933  -0.50506  -0.50342  -0.50122  -0.49891
 Alpha  occ. eigenvalues --   -0.49675  -0.49423  -0.49312  -0.49024  -0.48872
 Alpha  occ. eigenvalues --   -0.48654  -0.48451  -0.48349  -0.48212  -0.47971
 Alpha  occ. eigenvalues --   -0.47335  -0.47080  -0.47070  -0.46750  -0.46185
 Alpha  occ. eigenvalues --   -0.45820  -0.45685  -0.45663  -0.45417  -0.45171
 Alpha  occ. eigenvalues --   -0.45140  -0.44630  -0.44040  -0.43894  -0.43815
 Alpha  occ. eigenvalues --   -0.43248  -0.43145  -0.42475  -0.42346  -0.42020
 Alpha  occ. eigenvalues --   -0.41955  -0.41726  -0.41236  -0.39324  -0.38940
 Alpha  occ. eigenvalues --   -0.37815  -0.36768  -0.35975  -0.34851  -0.34328
 Alpha  occ. eigenvalues --   -0.33770  -0.32141  -0.31937  -0.31247  -0.26368
 Alpha  occ. eigenvalues --   -0.21510
 Alpha virt. eigenvalues --   -0.07936  -0.02177  -0.00746   0.00530   0.01408
 Alpha virt. eigenvalues --    0.02428   0.03164   0.03307   0.04839   0.04893
 Alpha virt. eigenvalues --    0.06464   0.06687   0.07703   0.07837   0.08349

 Mulliken charges:
               1
     1  Mg   0.424938
     2  C   -0.052996
     3  C   -0.053519
     4  C   -0.076279
     5  C   -0.097365
     6  N   -0.278232
     7  C    0.151739
     8  C    0.000161
     9  C   -0.001778
    10  C    0.095348
    11  C   -0.057648
    12  C   -0.015002
    13  C    0.007636
    14  C    0.469423
    15  O   -0.515671
    16  O   -0.283753
    17  N   -0.323333
    18  C    0.071067
    19  C   -0.004753
    20  C   -0.082602
    21  C    0.153662
    22  C   -0.045858
    23  C    0.325915
    24  O   -0.527387
    25  C   -0.035990
    26  N   -0.257334
    27  C    0.100711
    28  C    0.000277
    29  C    0.002620
    30  C    0.175079
    31  C   -0.048807
    32  C   -0.025151
    33  C   -0.060030
    34  N   -0.339298
    35  C    0.134083
    36  C    0.050589
    37  C   -0.037915
    38  C    0.119797
    39  C   -0.039881
    40  C    0.346724
    41  O   -0.492110
    42  C    0.050500
    43  C    0.487431
    44  O   -0.525478
    45  O   -0.259437
    46  C    0.074684
    47  C    0.097612
    48  C   -0.105600
    49  C   -0.003534
    50  C   -0.048314
    51  C   -0.028749
    52  C   -0.030993
    53  C   -0.038619
    54  C   -0.005506
    55  C   -0.063268
    56  C   -0.034814
    57  C   -0.032620
    58  C   -0.036789
    59  C   -0.014869
    60  C   -0.061865
    61  C   -0.031726
    62  C   -0.039885
    63  C   -0.025311
    64  C   -0.005925
    65  C   -0.066949
    66  C   -0.053882
    67  H    0.020601
    68  H    0.049511
    69  H    0.022014
    70  H    0.060887
    71  H    0.024291
    72  H    0.013711
    73  H    0.033159
    74  H    0.026879
    75  H    0.034153
    76  H    0.026777
    77  H    0.029219
    78  H    0.040369
    79  H    0.026994
    80  H    0.026816
    81  H    0.017250
    82  H    0.034155
    83  H    0.033749
    84  H    0.035267
    85  H    0.029726
    86  H    0.020307
    87  H    0.024084
    88  H    0.030323
    89  H    0.022390
    90  H    0.019008
    91  H    0.026097
    92  H    0.022912
    93  H    0.035732
    94  H    0.012002
    95  H    0.029211
    96  H    0.031207
    97  H    0.039053
    98  H    0.050511
    99  H    0.049620
   100  H    0.058665
   101  H    0.027146
   102  H    0.040926
   103  H    0.054237
   104  H    0.041845
   105  H    0.023798
   106  H    0.032231
   107  H    0.033859
   108  H    0.021321
   109  H    0.029037
   110  H    0.025879
   111  H    0.013911
   112  H    0.013606
   113  H    0.026618
   114  H    0.026747
   115  H    0.014726
   116  H    0.009187
   117  H    0.020724
   118  H    0.012536
   119  H    0.029790
   120  H    0.015692
   121  H    0.026893
   122  H    0.011596
   123  H    0.020566
   124  H    0.017871
   125  H    0.022815
   126  H    0.016464
   127  H    0.028776
   128  H    0.011025
   129  H    0.019075
   130  H    0.006586
   131  H    0.024922
   132  H    0.011318
   133  H    0.017676
   134  H    0.016476
   135  H    0.014844
   136  H    0.019713
   137  H    0.013415
   138  H    0.014304
   139  H    0.026072
   140  H    0.015954
 Sum of Mulliken charges =  -0.00000

 Dipole moment (field-independent basis, Debye):
    X=             -3.1168    Y=             -1.3377    Z=              5.2521  Tot=              6.2521
 N-N= 4.328836583818D+03 E-N= 0.000000000000D+00  KE=-9.332274158874D+03
 Leave Link  601 at Sat Apr 30 14:25:26 2022, MaxMem=  6710886400 cpu:               1.0 elap:               0.1
 (Enter /sw/apps/gaussian-16.0/g16/l9999.exe)
 1\1\GINC-BP1-COMPUTE103\SP\RZINDO CIS\STO-3G\C55H74Mg1N4O6\OF15641\30-
 Apr-2022\0\\#p ZINDO=(nstates=5)\\step_751_chromophore_24 ZINDO\\0,1\M
 g,0,-0.456,43.671,24.991\C,0,1.792,43.09,27.632\C,0,-3.064,42.956,27.1
 84\C,0,-2.543,43.884,22.45\C,0,2.286,44.269,22.961\N,0,-0.623,42.878,2
 7.151\C,0,0.433,42.898,28.075\C,0,-0.043,42.778,29.5\C,0,-1.605,42.497
 ,29.308\C,0,-1.808,42.76,27.799\C,0,-2.109,41.132,29.807\C,0,0.285,44.
 113,30.299\C,0,1.098,43.867,31.575\C,0,0.789,42.744,32.498\O,0,1.397,4

 Normal termination of Gaussian 16 at Sat Apr 30 14:25:26 2022.
