 Gaussian 16, Revision A.03,
 Gaussian 16:  ES64L-G16RevA.03 25-Dec-2016

 ------------------------------
 #p blyp/Def2SVP td=(nstates=5)
 ------------------------------

 --------------------------------------------------
 step_1651_chromophore_9 TDDFT with blyp functional
 --------------------------------------------------
 Symbolic Z-matrix:
 Charge =  0 Multiplicity = 1

                         Standard orientation:
 ---------------------------------------------------------------------
 Center     Atomic      Atomic             Coordinates (Angstroms)
 Number     Number       Type             X           Y           Z
 ---------------------------------------------------------------------
      1         12           0       -4.910502    0.677649    0.204206
      2          6           0       -3.436961   -2.417600    0.024990
      3          6           0       -1.626042    2.034836   -0.011876
      4          6           0       -6.227968    3.762745    0.392562
      5          6           0       -7.954564   -0.803250    0.715532
      6          7           0       -2.764479   -0.155760   -0.137454
      7          6           0       -2.437845   -1.485463   -0.162401
      8          6           0       -0.934054   -1.635085   -0.597287
      9          6           0       -0.422744   -0.175989   -0.302366
     10          6           0       -1.706692    0.645428   -0.140453
     11          6           0        0.556248   -0.214005    0.921841
     12          6           0       -0.822063   -2.082102   -2.061168
     13          6           0        0.331317   -3.007967   -2.489696
     14          6           0        1.523031   -2.998957   -1.570728
     15          8           0        1.660343   -3.627221   -0.571959
     16          8           0        2.367660   -1.985800   -2.030944
     17          7           0       -4.055379    2.619861    0.156869
     18          6           0       -2.727569    2.959988   -0.010686
     19          6           0       -2.566101    4.392251   -0.217361
     20          6           0       -3.906738    4.889113   -0.182629
     21          6           0       -4.794526    3.725129    0.154033
     22          6           0       -1.139222    5.012212   -0.533467
     23          6           0       -4.384386    6.328806   -0.487853
     24          8           0       -5.555716    6.577016   -0.598642
     25          6           0       -3.380403    7.414455   -0.642527
     26          7           0       -6.753668    1.367099    0.441376
     27          6           0       -7.097039    2.648445    0.545332
     28          6           0       -8.565258    2.825545    0.780584
     29          6           0       -9.108298    1.412437    0.984766
     30          6           0       -7.857072    0.591926    0.672899
     31          6           0       -8.971813    3.779792    1.923140
     32          6           0      -10.402069    0.981547    0.214604
     33          6           0      -10.238493    0.511493   -1.301559
     34          7           0       -5.644261   -1.199278    0.267847
     35          6           0       -6.920796   -1.696493    0.441982
     36          6           0       -6.876134   -3.121027    0.506960
     37          6           0       -5.527878   -3.434302    0.249042
     38          6           0       -4.800594   -2.209684    0.169045
     39          6           0       -8.035072   -3.954451    0.804459
     40          6           0       -4.669242   -4.540966    0.010796
     41          8           0       -4.844857   -5.772997   -0.035348
     42          6           0       -3.241796   -3.899780   -0.121396
     43          6           0       -2.390492   -4.466561    0.950997
     44          8           0       -2.239409   -4.012434    2.080738
     45          8           0       -1.778306   -5.560131    0.441612
     46          6           0       -1.253908   -6.432029    1.499337
     47          6           0        3.293878   -1.542898   -0.981936
     48          6           0        4.634791   -1.450866   -1.625713
     49          6           0        5.635114   -2.371041   -1.687960
     50          6           0        5.370682   -3.917822   -1.665138
     51          6           0        6.988900   -1.923787   -2.184639
     52          6           0        7.107040   -1.186911   -3.536765
     53          6           0        8.380499   -0.376925   -3.668938
     54          6           0        8.169595    1.097448   -3.195401
     55          6           0        7.582665    1.947185   -4.378316
     56          6           0        9.371715    1.724088   -2.568778
     57          6           0        9.947708    1.085609   -1.351856
     58          6           0       10.854983    1.924220   -0.495049
     59          6           0       10.102967    2.669184    0.740392
     60          6           0        9.730523    4.171515    0.422406
     61          6           0       10.955417    2.481666    2.026105
     62          6           0       10.746501    1.009162    2.616330
     63          6           0       10.021800    0.982592    3.952238
     64          6           0        9.947481   -0.435416    4.551119
     65          6           0        8.525909   -0.646823    5.207127
     66          6           0       11.116853   -0.612145    5.536411
     67          1           0       -0.603956    2.420968   -0.025272
     68          1           0       -6.848497    4.661025    0.385258
     69          1           0       -8.884665   -1.350536    0.885956
     70          1           0       -0.623665   -2.393819    0.120345
     71          1           0        0.195379    0.217580   -1.108939
     72          1           0        1.368480    0.501835    0.791655
     73          1           0        0.924115   -1.229349    1.073300
     74          1           0       -0.059458    0.075585    1.772944
     75          1           0       -0.694670   -1.193123   -2.678631
     76          1           0       -1.736493   -2.627180   -2.291317
     77          1           0        0.621074   -2.835140   -3.525854
     78          1           0       -0.112653   -4.003433   -2.520725
     79          1           0       -0.601676    4.991244    0.415014
     80          1           0       -1.214413    6.087579   -0.696506
     81          1           0       -0.477754    4.611574   -1.301846
     82          1           0       -2.817362    7.531676    0.283527
     83          1           0       -4.015173    8.277745   -0.842435
     84          1           0       -2.669563    7.283725   -1.458846
     85          1           0       -9.080718    3.260733   -0.076057
     86          1           0       -9.298004    1.247086    2.044504
     87          1           0       -9.120264    4.768833    1.490593
     88          1           0       -8.259999    3.874638    2.743953
     89          1           0       -9.940800    3.526039    2.353325
     90          1           0      -11.066947    1.813549   -0.018628
     91          1           0      -11.004083    0.288075    0.801597
     92          1           0       -9.256745    0.781084   -1.692908
     93          1           0      -10.931836    1.052248   -1.946746
     94          1           0      -10.354025   -0.562683   -1.441451
     95          1           0       -8.953627   -3.416038    0.574039
     96          1           0       -8.039144   -4.308340    1.835513
     97          1           0       -8.046969   -4.831578    0.158464
     98          1           0       -2.957104   -4.143015   -1.145294
     99          1           0       -0.929766   -7.335993    0.984546
    100          1           0       -2.041156   -6.519536    2.248104
    101          1           0       -0.312521   -6.057219    1.901788
    102          1           0        3.447372   -2.189483   -0.117482
    103          1           0        3.034779   -0.589900   -0.521054
    104          1           0        4.877165   -0.398406   -1.771421
    105          1           0        4.388633   -4.066491   -1.216068
    106          1           0        6.217814   -4.189294   -1.035130
    107          1           0        5.370345   -4.394235   -2.645120
    108          1           0        7.729742   -2.719146   -2.097475
    109          1           0        7.414905   -1.187353   -1.503227
    110          1           0        6.229053   -0.566046   -3.715367
    111          1           0        7.075108   -1.975916   -4.287608
    112          1           0        8.733399   -0.434644   -4.698182
    113          1           0        9.045969   -0.940987   -3.015696
    114          1           0        7.433154    1.120773   -2.390983
    115          1           0        8.081324    2.891894   -4.597386
    116          1           0        6.548418    2.142056   -4.093493
    117          1           0        7.489242    1.472253   -5.354088
    118          1           0        9.020798    2.707602   -2.256866
    119          1           0       10.162578    1.952473   -3.282638
    120          1           0       10.521423    0.198593   -1.619934
    121          1           0        9.036621    0.690027   -0.902273
    122          1           0       11.315295    2.754930   -1.028798
    123          1           0       11.679171    1.313416   -0.126646
    124          1           0        9.162509    2.139811    0.889069
    125          1           0       10.199641    4.643701   -0.440391
    126          1           0       10.127576    4.741466    1.262822
    127          1           0        8.648067    4.264820    0.327611
    128          1           0       10.455167    3.086669    2.782533
    129          1           0       12.012085    2.742770    1.959560
    130          1           0       11.743912    0.639687    2.852751
    131          1           0       10.146837    0.443786    1.902940
    132          1           0        9.029592    1.434916    3.943732
    133          1           0       10.510173    1.654532    4.658382
    134          1           0       10.036912   -1.214835    3.794337
    135          1           0        7.837865    0.069276    4.758256
    136          1           0        8.432832   -0.428634    6.270891
    137          1           0        8.036465   -1.584583    4.947484
    138          1           0       11.879393    0.166677    5.511478
    139          1           0       11.657495   -1.527124    5.296321
    140          1           0       10.817940   -0.644421    6.585053
 ---------------------------------------------------------------------

 SCF Done:  E(RB-LYP) =  -3007.38967370     A.U. after   21 cycles

 Excitation energies and oscillator strengths:

 Excited State   1:      Singlet-A      1.7908 eV  692.36 nm  f=0.2486  <S**2>=0.000
     244 -> 247       -0.27939
     245 -> 248        0.16787
     246 -> 247        0.63381
     246 <- 247       -0.13736
 This state for optimization and/or second-order correction.
 Total Energy, E(TD-HF/TD-DFT) =  -3007.32386450
 Copying the excited state density for this state as the 1-particle RhoCI density.

 Excited State   2:      Singlet-A      1.8652 eV  664.72 nm  f=0.0639  <S**2>=0.000
     244 -> 247        0.64695
     246 -> 247        0.27436

 Excited State   3:      Singlet-A      2.0515 eV  604.37 nm  f=0.0867  <S**2>=0.000
     243 -> 247       -0.27583
     245 -> 247        0.59855
     246 -> 248       -0.22674

 Excited State   4:      Singlet-A      2.0925 eV  592.52 nm  f=0.0150  <S**2>=0.000
     243 -> 247        0.64890
     245 -> 247        0.25124
     246 -> 248       -0.10710

 Excited State   5:      Singlet-A      2.2598 eV  548.64 nm  f=0.0003  <S**2>=0.000
     242 -> 247        0.70697

 The electronic state is 1-A.
 Alpha  occ. eigenvalues --  -46.26430 -18.82137 -18.81234 -18.78158 -18.76029
 Alpha  occ. eigenvalues --  -18.75914 -18.75191 -14.03294 -14.02926 -14.01536
 Alpha  occ. eigenvalues --  -14.00489 -10.04264 -10.02924  -9.99886  -9.98960
 Alpha  occ. eigenvalues --   -9.97219  -9.96570  -9.96511  -9.96367  -9.96322
 Alpha  occ. eigenvalues --   -9.96185  -9.96139  -9.95901  -9.94660  -9.94547
 Alpha  occ. eigenvalues --   -9.94316  -9.94009  -9.93954  -9.93728  -9.93702
 Alpha  occ. eigenvalues --   -9.93458  -9.93381  -9.93271  -9.93242  -9.93237
 Alpha  occ. eigenvalues --   -9.93124  -9.93110  -9.93033  -9.92838  -9.92813
 Alpha  occ. eigenvalues --   -9.92589  -9.92392  -9.92364  -9.92337  -9.92258
 Alpha  occ. eigenvalues --   -9.92241  -9.92151  -9.92107  -9.92082  -9.92001
 Alpha  occ. eigenvalues --   -9.91965  -9.91766  -9.91317  -9.91296  -9.91289
 Alpha  occ. eigenvalues --   -9.91204  -9.91174  -9.91167  -9.91161  -9.91051
 Alpha  occ. eigenvalues --   -9.90736  -9.90729  -9.90722  -9.90642  -9.90610
 Alpha  occ. eigenvalues --   -9.90426  -2.91290  -1.71719  -1.71169  -1.71006
 Alpha  occ. eigenvalues --   -0.98637  -0.97390  -0.92955  -0.91547  -0.89684
 Alpha  occ. eigenvalues --   -0.89071  -0.87508  -0.86642  -0.86159  -0.85478
 Alpha  occ. eigenvalues --   -0.75935  -0.74012  -0.73137  -0.72583  -0.72498
 Alpha  occ. eigenvalues --   -0.72076  -0.71665  -0.70931  -0.70673  -0.70508
 Alpha  occ. eigenvalues --   -0.69595  -0.69158  -0.68229  -0.67309  -0.66913
 Alpha  occ. eigenvalues --   -0.66286  -0.65777  -0.65182  -0.64856  -0.64619
 Alpha  occ. eigenvalues --   -0.64187  -0.62741  -0.62341  -0.61792  -0.60528
 Alpha  occ. eigenvalues --   -0.60264  -0.60191  -0.59938  -0.59916  -0.58770
 Alpha  occ. eigenvalues --   -0.58310  -0.57489  -0.56738  -0.55516  -0.55223
 Alpha  occ. eigenvalues --   -0.53915  -0.53686  -0.52608  -0.52304  -0.51579
 Alpha  occ. eigenvalues --   -0.51544  -0.51313  -0.50429  -0.50398  -0.49956
 Alpha  occ. eigenvalues --   -0.49766  -0.49324  -0.48972  -0.47724  -0.46815
 Alpha  occ. eigenvalues --   -0.46311  -0.46069  -0.45721  -0.45554  -0.44710
 Alpha  occ. eigenvalues --   -0.44468  -0.43586  -0.43081  -0.42964  -0.42779
 Alpha  occ. eigenvalues --   -0.42224  -0.42089  -0.41763  -0.41639  -0.41199
 Alpha  occ. eigenvalues --   -0.40899  -0.40692  -0.40461  -0.40346  -0.40022
 Alpha  occ. eigenvalues --   -0.39830  -0.39645  -0.39544  -0.39396  -0.39263
 Alpha  occ. eigenvalues --   -0.39211  -0.38703  -0.38272  -0.38005  -0.37882
 Alpha  occ. eigenvalues --   -0.37676  -0.37663  -0.37585  -0.37319  -0.37073
 Alpha  occ. eigenvalues --   -0.36917  -0.36737  -0.36639  -0.36407  -0.36263
 Alpha  occ. eigenvalues --   -0.36149  -0.36120  -0.35630  -0.35573  -0.35466
 Alpha  occ. eigenvalues --   -0.35343  -0.35284  -0.35013  -0.34856  -0.34789
 Alpha  occ. eigenvalues --   -0.34564  -0.34459  -0.34309  -0.34132  -0.34102
 Alpha  occ. eigenvalues --   -0.33835  -0.33517  -0.33422  -0.33171  -0.33115
 Alpha  occ. eigenvalues --   -0.32986  -0.32816  -0.32470  -0.32307  -0.32247
 Alpha  occ. eigenvalues --   -0.32090  -0.31884  -0.31851  -0.31605  -0.31279
 Alpha  occ. eigenvalues --   -0.31180  -0.31086  -0.30905  -0.30782  -0.30614
 Alpha  occ. eigenvalues --   -0.30455  -0.30226  -0.30068  -0.30057  -0.29725
 Alpha  occ. eigenvalues --   -0.29699  -0.29455  -0.29396  -0.29324  -0.29245
 Alpha  occ. eigenvalues --   -0.28806  -0.28202  -0.28081  -0.27949  -0.27731
 Alpha  occ. eigenvalues --   -0.27644  -0.27394  -0.27149  -0.27036  -0.26466
 Alpha  occ. eigenvalues --   -0.26324  -0.26277  -0.26151  -0.25727  -0.25402
 Alpha  occ. eigenvalues --   -0.25303  -0.24845  -0.24339  -0.23827  -0.23817
 Alpha  occ. eigenvalues --   -0.23420  -0.23146  -0.22038  -0.21407  -0.21005
 Alpha  occ. eigenvalues --   -0.20591  -0.19846  -0.19112  -0.18240  -0.17321
 Alpha  occ. eigenvalues --   -0.15779
 Alpha virt. eigenvalues --   -0.11543  -0.06576  -0.06111  -0.04488  -0.03545
 Alpha virt. eigenvalues --   -0.03227  -0.01772  -0.01419  -0.00659  -0.00074
 Alpha virt. eigenvalues --    0.01025   0.01772   0.02251   0.02314   0.02906

 Mulliken charges:
               1
     1  Mg   0.715035
     2  C    0.007246
     3  C   -0.065193
     4  C   -0.026265
     5  C   -0.079998
     6  N   -0.173877
     7  C   -0.151968
     8  C    0.041082
     9  C   -0.040425
    10  C    0.050561
    11  C    0.103837
    12  C    0.125431
    13  C    0.170562
    14  C    0.079012
    15  O   -0.154155
    16  O   -0.287663
    17  N   -0.246259
    18  C    0.112761
    19  C   -0.123647
    20  C    0.002272
    21  C    0.119235
    22  C    0.163745
    23  C   -0.084334
    24  O   -0.136694
    25  C    0.123404
    26  N   -0.246680
    27  C    0.001397
    28  C    0.034873
    29  C    0.081856
    30  C    0.048123
    31  C    0.103392
    32  C    0.069722
    33  C    0.039473
    34  N   -0.275465
    35  C    0.079287
    36  C   -0.159802
    37  C    0.104767
    38  C    0.143606
    39  C    0.174608
    40  C   -0.095355
    41  O   -0.152788
    42  C    0.016963
    43  C    0.131817
    44  O   -0.195146
    45  O   -0.254385
    46  C    0.231485
    47  C    0.297305
    48  C   -0.101190
    49  C   -0.128880
    50  C    0.120090
    51  C    0.124134
    52  C    0.074625
    53  C    0.116841
    54  C   -0.054588
    55  C    0.107713
    56  C    0.087141
    57  C    0.075663
    58  C    0.135459
    59  C   -0.107877
    60  C    0.113734
    61  C    0.116262
    62  C    0.071085
    63  C    0.070113
    64  C   -0.059362
    65  C    0.093072
    66  C    0.107541
    67  H   -0.064048
    68  H   -0.050555
    69  H   -0.072310
    70  H    0.000492
    71  H   -0.029369
    72  H    0.000552
    73  H    0.019052
    74  H   -0.009289
    75  H   -0.013169
    76  H   -0.015660
    77  H   -0.009840
    78  H   -0.018431
    79  H   -0.003728
    80  H   -0.043557
    81  H    0.017693
    82  H    0.012768
    83  H   -0.009161
    84  H    0.025453
    85  H   -0.019560
    86  H   -0.026522
    87  H   -0.006984
    88  H   -0.003992
    89  H   -0.012827
    90  H   -0.023788
    91  H   -0.016113
    92  H   -0.002394
    93  H   -0.011124
    94  H   -0.000707
    95  H   -0.017500
    96  H    0.013342
    97  H    0.001317
    98  H    0.005001
    99  H    0.005352
   100  H    0.025908
   101  H    0.010644
   102  H    0.006185
   103  H   -0.025579
   104  H   -0.046273
   105  H   -0.000138
   106  H    0.001033
   107  H    0.019739
   108  H   -0.042943
   109  H   -0.039733
   110  H   -0.033513
   111  H   -0.043016
   112  H   -0.032679
   113  H   -0.036985
   114  H   -0.037029
   115  H   -0.016735
   116  H   -0.019826
   117  H   -0.019926
   118  H   -0.046370
   119  H   -0.044390
   120  H   -0.031567
   121  H   -0.034478
   122  H   -0.037759
   123  H   -0.036592
   124  H   -0.038599
   125  H   -0.014848
   126  H   -0.025238
   127  H   -0.009386
   128  H   -0.042105
   129  H   -0.021668
   130  H   -0.034603
   131  H   -0.015089
   132  H   -0.047727
   133  H   -0.040550
   134  H   -0.030533
   135  H   -0.035847
   136  H   -0.012140
   137  H   -0.015999
   138  H   -0.019867
   139  H   -0.020139
   140  H   -0.018371
 Sum of Mulliken charges =  -0.00000

 Dipole moment (field-independent basis, Debye):
    X=              1.8269    Y=              3.2052    Z=             -1.1870  Tot=              3.8755
 Quadrupole moment (field-independent basis, Debye-Ang):
   XX=           -369.9274   YY=           -431.3363   ZZ=           -405.2929
   XY=             -4.0523   XZ=             -6.8934   YZ=              5.6483

 Normal termination of Gaussian 16 at Wed May  4 12:31:45 2022.
