 Gaussian 16, Revision A.03,
 Gaussian 16:  ES64L-G16RevA.03 25-Dec-2016

 -----------------------------------
 #p cam-b3lyp/Def2SVP td=(nstates=5)
 -----------------------------------

 -------------------------------------------------------
 step_1651_chromophore_9 TDDFT with cam-b3lyp functional
 -------------------------------------------------------
 Symbolic Z-matrix:
 Charge =  0 Multiplicity = 1

                         Standard orientation:
 ---------------------------------------------------------------------
 Center     Atomic      Atomic             Coordinates (Angstroms)
 Number     Number       Type             X           Y           Z
 ---------------------------------------------------------------------
      1         12           0       -4.910502    0.677649    0.204206
      2          6           0       -3.436961   -2.417600    0.024990
      3          6           0       -1.626042    2.034836   -0.011876
      4          6           0       -6.227968    3.762745    0.392562
      5          6           0       -7.954564   -0.803250    0.715532
      6          7           0       -2.764479   -0.155760   -0.137454
      7          6           0       -2.437845   -1.485463   -0.162401
      8          6           0       -0.934054   -1.635085   -0.597287
      9          6           0       -0.422744   -0.175989   -0.302366
     10          6           0       -1.706692    0.645428   -0.140453
     11          6           0        0.556248   -0.214005    0.921841
     12          6           0       -0.822063   -2.082102   -2.061168
     13          6           0        0.331317   -3.007967   -2.489696
     14          6           0        1.523031   -2.998957   -1.570728
     15          8           0        1.660343   -3.627221   -0.571959
     16          8           0        2.367660   -1.985800   -2.030944
     17          7           0       -4.055379    2.619861    0.156869
     18          6           0       -2.727569    2.959988   -0.010686
     19          6           0       -2.566101    4.392251   -0.217361
     20          6           0       -3.906738    4.889113   -0.182629
     21          6           0       -4.794526    3.725129    0.154033
     22          6           0       -1.139222    5.012212   -0.533467
     23          6           0       -4.384386    6.328806   -0.487853
     24          8           0       -5.555716    6.577016   -0.598642
     25          6           0       -3.380403    7.414455   -0.642527
     26          7           0       -6.753668    1.367099    0.441376
     27          6           0       -7.097039    2.648445    0.545332
     28          6           0       -8.565258    2.825545    0.780584
     29          6           0       -9.108298    1.412437    0.984766
     30          6           0       -7.857072    0.591926    0.672899
     31          6           0       -8.971813    3.779792    1.923140
     32          6           0      -10.402069    0.981547    0.214604
     33          6           0      -10.238493    0.511493   -1.301559
     34          7           0       -5.644261   -1.199278    0.267847
     35          6           0       -6.920796   -1.696493    0.441982
     36          6           0       -6.876134   -3.121027    0.506960
     37          6           0       -5.527878   -3.434302    0.249042
     38          6           0       -4.800594   -2.209684    0.169045
     39          6           0       -8.035072   -3.954451    0.804459
     40          6           0       -4.669242   -4.540966    0.010796
     41          8           0       -4.844857   -5.772997   -0.035348
     42          6           0       -3.241796   -3.899780   -0.121396
     43          6           0       -2.390492   -4.466561    0.950997
     44          8           0       -2.239409   -4.012434    2.080738
     45          8           0       -1.778306   -5.560131    0.441612
     46          6           0       -1.253908   -6.432029    1.499337
     47          6           0        3.293878   -1.542898   -0.981936
     48          6           0        4.634791   -1.450866   -1.625713
     49          6           0        5.635114   -2.371041   -1.687960
     50          6           0        5.370682   -3.917822   -1.665138
     51          6           0        6.988900   -1.923787   -2.184639
     52          6           0        7.107040   -1.186911   -3.536765
     53          6           0        8.380499   -0.376925   -3.668938
     54          6           0        8.169595    1.097448   -3.195401
     55          6           0        7.582665    1.947185   -4.378316
     56          6           0        9.371715    1.724088   -2.568778
     57          6           0        9.947708    1.085609   -1.351856
     58          6           0       10.854983    1.924220   -0.495049
     59          6           0       10.102967    2.669184    0.740392
     60          6           0        9.730523    4.171515    0.422406
     61          6           0       10.955417    2.481666    2.026105
     62          6           0       10.746501    1.009162    2.616330
     63          6           0       10.021800    0.982592    3.952238
     64          6           0        9.947481   -0.435416    4.551119
     65          6           0        8.525909   -0.646823    5.207127
     66          6           0       11.116853   -0.612145    5.536411
     67          1           0       -0.603956    2.420968   -0.025272
     68          1           0       -6.848497    4.661025    0.385258
     69          1           0       -8.884665   -1.350536    0.885956
     70          1           0       -0.623665   -2.393819    0.120345
     71          1           0        0.195379    0.217580   -1.108939
     72          1           0        1.368480    0.501835    0.791655
     73          1           0        0.924115   -1.229349    1.073300
     74          1           0       -0.059458    0.075585    1.772944
     75          1           0       -0.694670   -1.193123   -2.678631
     76          1           0       -1.736493   -2.627180   -2.291317
     77          1           0        0.621074   -2.835140   -3.525854
     78          1           0       -0.112653   -4.003433   -2.520725
     79          1           0       -0.601676    4.991244    0.415014
     80          1           0       -1.214413    6.087579   -0.696506
     81          1           0       -0.477754    4.611574   -1.301846
     82          1           0       -2.817362    7.531676    0.283527
     83          1           0       -4.015173    8.277745   -0.842435
     84          1           0       -2.669563    7.283725   -1.458846
     85          1           0       -9.080718    3.260733   -0.076057
     86          1           0       -9.298004    1.247086    2.044504
     87          1           0       -9.120264    4.768833    1.490593
     88          1           0       -8.259999    3.874638    2.743953
     89          1           0       -9.940800    3.526039    2.353325
     90          1           0      -11.066947    1.813549   -0.018628
     91          1           0      -11.004083    0.288075    0.801597
     92          1           0       -9.256745    0.781084   -1.692908
     93          1           0      -10.931836    1.052248   -1.946746
     94          1           0      -10.354025   -0.562683   -1.441451
     95          1           0       -8.953627   -3.416038    0.574039
     96          1           0       -8.039144   -4.308340    1.835513
     97          1           0       -8.046969   -4.831578    0.158464
     98          1           0       -2.957104   -4.143015   -1.145294
     99          1           0       -0.929766   -7.335993    0.984546
    100          1           0       -2.041156   -6.519536    2.248104
    101          1           0       -0.312521   -6.057219    1.901788
    102          1           0        3.447372   -2.189483   -0.117482
    103          1           0        3.034779   -0.589900   -0.521054
    104          1           0        4.877165   -0.398406   -1.771421
    105          1           0        4.388633   -4.066491   -1.216068
    106          1           0        6.217814   -4.189294   -1.035130
    107          1           0        5.370345   -4.394235   -2.645120
    108          1           0        7.729742   -2.719146   -2.097475
    109          1           0        7.414905   -1.187353   -1.503227
    110          1           0        6.229053   -0.566046   -3.715367
    111          1           0        7.075108   -1.975916   -4.287608
    112          1           0        8.733399   -0.434644   -4.698182
    113          1           0        9.045969   -0.940987   -3.015696
    114          1           0        7.433154    1.120773   -2.390983
    115          1           0        8.081324    2.891894   -4.597386
    116          1           0        6.548418    2.142056   -4.093493
    117          1           0        7.489242    1.472253   -5.354088
    118          1           0        9.020798    2.707602   -2.256866
    119          1           0       10.162578    1.952473   -3.282638
    120          1           0       10.521423    0.198593   -1.619934
    121          1           0        9.036621    0.690027   -0.902273
    122          1           0       11.315295    2.754930   -1.028798
    123          1           0       11.679171    1.313416   -0.126646
    124          1           0        9.162509    2.139811    0.889069
    125          1           0       10.199641    4.643701   -0.440391
    126          1           0       10.127576    4.741466    1.262822
    127          1           0        8.648067    4.264820    0.327611
    128          1           0       10.455167    3.086669    2.782533
    129          1           0       12.012085    2.742770    1.959560
    130          1           0       11.743912    0.639687    2.852751
    131          1           0       10.146837    0.443786    1.902940
    132          1           0        9.029592    1.434916    3.943732
    133          1           0       10.510173    1.654532    4.658382
    134          1           0       10.036912   -1.214835    3.794337
    135          1           0        7.837865    0.069276    4.758256
    136          1           0        8.432832   -0.428634    6.270891
    137          1           0        8.036465   -1.584583    4.947484
    138          1           0       11.879393    0.166677    5.511478
    139          1           0       11.657495   -1.527124    5.296321
    140          1           0       10.817940   -0.644421    6.585053
 ---------------------------------------------------------------------

 SCF Done:  E(RCAM-B3LYP) =  -3007.19308267     A.U. after   17 cycles

 Excitation energies and oscillator strengths:

 Excited State   1:      Singlet-A      1.7129 eV  723.82 nm  f=0.3878  <S**2>=0.000
     245 -> 248        0.17548
     246 -> 247        0.68766
     245 <- 248        0.10746
 This state for optimization and/or second-order correction.
 Total Energy, E(TD-HF/TD-DFT) =  -3007.13013420
 Copying the excited state density for this state as the 1-particle RhoCI density.

 Excited State   2:      Singlet-A      2.2598 eV  548.65 nm  f=0.1301  <S**2>=0.000
     245 -> 247        0.64270
     246 -> 248       -0.28525

 Excited State   3:      Singlet-A      3.3995 eV  364.72 nm  f=0.0028  <S**2>=0.000
     241 -> 247       -0.10153
     242 -> 247        0.38885
     242 -> 249       -0.27915
     242 -> 250        0.14907
     243 -> 247        0.41355
     243 -> 249       -0.15337
     244 -> 247       -0.12171

 Excited State   4:      Singlet-A      3.5093 eV  353.30 nm  f=0.0251  <S**2>=0.000
     240 -> 247        0.14414
     241 -> 247        0.42533
     242 -> 247        0.37379
     242 -> 249       -0.10091
     243 -> 247       -0.30989
     244 -> 247        0.10665
     246 -> 248        0.13504

 Excited State   5:      Singlet-A      3.5759 eV  346.72 nm  f=0.4194  <S**2>=0.000
     240 -> 247        0.10799
     241 -> 247        0.13906
     242 -> 247       -0.16250
     243 -> 247        0.26749
     245 -> 247        0.21686
     246 -> 248        0.55203

 The electronic state is 1-A.
 Alpha  occ. eigenvalues --  -46.87914 -19.25014 -19.24098 -19.21181 -19.19410
 Alpha  occ. eigenvalues --  -19.19063 -19.18070 -14.42011 -14.41839 -14.40172
 Alpha  occ. eigenvalues --  -14.38734 -10.39546 -10.38310 -10.35281 -10.34118
 Alpha  occ. eigenvalues --  -10.31360 -10.31310 -10.30923 -10.30811 -10.30662
 Alpha  occ. eigenvalues --  -10.30483 -10.30476 -10.30445 -10.29608 -10.28445
 Alpha  occ. eigenvalues --  -10.28324 -10.28228 -10.28065 -10.27966 -10.27762
 Alpha  occ. eigenvalues --  -10.27559 -10.27480 -10.27454 -10.27218 -10.27206
 Alpha  occ. eigenvalues --  -10.27107 -10.27065 -10.27026 -10.26992 -10.26911
 Alpha  occ. eigenvalues --  -10.26665 -10.26241 -10.26240 -10.26212 -10.26108
 Alpha  occ. eigenvalues --  -10.25960 -10.25956 -10.25914 -10.25755 -10.25584
 Alpha  occ. eigenvalues --  -10.25500 -10.25486 -10.25140 -10.25024 -10.25014
 Alpha  occ. eigenvalues --  -10.24951 -10.24887 -10.24849 -10.24845 -10.24713
 Alpha  occ. eigenvalues --  -10.24449 -10.24363 -10.24358 -10.24274 -10.24218
 Alpha  occ. eigenvalues --  -10.24035  -3.16691  -1.91592  -1.91153  -1.91003
 Alpha  occ. eigenvalues --   -1.17181  -1.15884  -1.11683  -1.09429  -1.07770
 Alpha  occ. eigenvalues --   -1.06966  -1.05179  -1.04273  -1.03827  -1.03111
 Alpha  occ. eigenvalues --   -0.92984  -0.90926  -0.89927  -0.89372  -0.89081
 Alpha  occ. eigenvalues --   -0.88809  -0.88348  -0.87487  -0.87178  -0.87076
 Alpha  occ. eigenvalues --   -0.86345  -0.85611  -0.84555  -0.83372  -0.83130
 Alpha  occ. eigenvalues --   -0.82350  -0.82027  -0.81126  -0.80681  -0.80453
 Alpha  occ. eigenvalues --   -0.80010  -0.78546  -0.78099  -0.77220  -0.75864
 Alpha  occ. eigenvalues --   -0.75646  -0.75548  -0.75285  -0.75184  -0.74014
 Alpha  occ. eigenvalues --   -0.73318  -0.72469  -0.71644  -0.70117  -0.70000
 Alpha  occ. eigenvalues --   -0.68517  -0.68256  -0.67135  -0.66734  -0.65895
 Alpha  occ. eigenvalues --   -0.65834  -0.65169  -0.64540  -0.64329  -0.63804
 Alpha  occ. eigenvalues --   -0.63784  -0.63293  -0.62902  -0.61425  -0.60620
 Alpha  occ. eigenvalues --   -0.59851  -0.59655  -0.59195  -0.58929  -0.58277
 Alpha  occ. eigenvalues --   -0.57821  -0.56957  -0.56311  -0.56172  -0.56087
 Alpha  occ. eigenvalues --   -0.55584  -0.55108  -0.54767  -0.54614  -0.53985
 Alpha  occ. eigenvalues --   -0.53753  -0.53435  -0.53216  -0.53083  -0.52890
 Alpha  occ. eigenvalues --   -0.52700  -0.52562  -0.52450  -0.52049  -0.51724
 Alpha  occ. eigenvalues --   -0.51660  -0.51127  -0.50917  -0.50511  -0.50458
 Alpha  occ. eigenvalues --   -0.50383  -0.50025  -0.49859  -0.49693  -0.49421
 Alpha  occ. eigenvalues --   -0.49347  -0.49078  -0.48821  -0.48700  -0.48648
 Alpha  occ. eigenvalues --   -0.48415  -0.48308  -0.48265  -0.47797  -0.47552
 Alpha  occ. eigenvalues --   -0.47520  -0.47445  -0.46927  -0.46770  -0.46696
 Alpha  occ. eigenvalues --   -0.46448  -0.46382  -0.46129  -0.45872  -0.45863
 Alpha  occ. eigenvalues --   -0.45707  -0.45330  -0.45083  -0.44843  -0.44810
 Alpha  occ. eigenvalues --   -0.44593  -0.44489  -0.44284  -0.44038  -0.43922
 Alpha  occ. eigenvalues --   -0.43769  -0.43625  -0.43440  -0.43128  -0.42979
 Alpha  occ. eigenvalues --   -0.42873  -0.42556  -0.42364  -0.42267  -0.42141
 Alpha  occ. eigenvalues --   -0.41952  -0.41647  -0.41368  -0.41251  -0.41068
 Alpha  occ. eigenvalues --   -0.40985  -0.40762  -0.40507  -0.40384  -0.40374
 Alpha  occ. eigenvalues --   -0.40068  -0.39227  -0.39142  -0.38893  -0.38708
 Alpha  occ. eigenvalues --   -0.38688  -0.38247  -0.37994  -0.37860  -0.37484
 Alpha  occ. eigenvalues --   -0.37288  -0.37196  -0.36935  -0.36833  -0.36187
 Alpha  occ. eigenvalues --   -0.35985  -0.35870  -0.35296  -0.35153  -0.34228
 Alpha  occ. eigenvalues --   -0.34166  -0.33763  -0.33151  -0.31614  -0.31403
 Alpha  occ. eigenvalues --   -0.30471  -0.30128  -0.29553  -0.29515  -0.24055
 Alpha  occ. eigenvalues --   -0.21075
 Alpha virt. eigenvalues --   -0.08653  -0.01332   0.00415   0.02456   0.03713
 Alpha virt. eigenvalues --    0.03845   0.04758   0.05012   0.06113   0.06635
 Alpha virt. eigenvalues --    0.07861   0.08342   0.08763   0.08883   0.09610

 Mulliken charges:
               1
     1  Mg   0.853135
     2  C   -0.017998
     3  C   -0.077365
     4  C   -0.043654
     5  C   -0.082387
     6  N   -0.242570
     7  C   -0.098774
     8  C   -0.014699
     9  C   -0.091611
    10  C    0.068222
    11  C    0.048774
    12  C    0.077015
    13  C    0.102580
    14  C    0.151514
    15  O   -0.193522
    16  O   -0.349050
    17  N   -0.335478
    18  C    0.124288
    19  C   -0.131847
    20  C   -0.062130
    21  C    0.144109
    22  C    0.110114
    23  C   -0.002976
    24  O   -0.175497
    25  C    0.036935
    26  N   -0.328376
    27  C    0.030414
    28  C   -0.029184
    29  C    0.026572
    30  C    0.059123
    31  C    0.045678
    32  C    0.011734
    33  C   -0.017261
    34  N   -0.368196
    35  C    0.080271
    36  C   -0.154821
    37  C    0.019899
    38  C    0.175808
    39  C    0.122658
    40  C    0.007066
    41  O   -0.194664
    42  C   -0.061564
    43  C    0.217731
    44  O   -0.231909
    45  O   -0.315679
    46  C    0.189204
    47  C    0.258137
    48  C   -0.116609
    49  C   -0.146895
    50  C    0.066779
    51  C    0.063469
    52  C    0.025703
    53  C    0.056432
    54  C   -0.113308
    55  C    0.048227
    56  C    0.044751
    57  C    0.019084
    58  C    0.079244
    59  C   -0.156798
    60  C    0.053847
    61  C    0.059829
    62  C    0.017773
    63  C    0.018223
    64  C   -0.125367
    65  C    0.036450
    66  C    0.048034
    67  H   -0.026765
    68  H   -0.010598
    69  H   -0.036885
    70  H    0.034287
    71  H    0.005285
    72  H    0.020892
    73  H    0.041116
    74  H    0.018603
    75  H    0.016294
    76  H    0.014024
    77  H    0.025490
    78  H    0.014617
    79  H    0.024834
    80  H   -0.014097
    81  H    0.045840
    82  H    0.040450
    83  H    0.027742
    84  H    0.051721
    85  H    0.015890
    86  H    0.009808
    87  H    0.016655
    88  H    0.022208
    89  H    0.012996
    90  H    0.004719
    91  H    0.011914
    92  H    0.019745
    93  H    0.012342
    94  H    0.021408
    95  H    0.005154
    96  H    0.039110
    97  H    0.027932
    98  H    0.046007
    99  H    0.030230
   100  H    0.049259
   101  H    0.033871
   102  H    0.038891
   103  H    0.000437
   104  H   -0.016378
   105  H    0.021338
   106  H    0.022795
   107  H    0.042544
   108  H   -0.011898
   109  H   -0.011592
   110  H   -0.005742
   111  H   -0.012264
   112  H   -0.001322
   113  H   -0.009155
   114  H   -0.007899
   115  H    0.009269
   116  H    0.003238
   117  H    0.005236
   118  H   -0.019301
   119  H   -0.016146
   120  H   -0.002818
   121  H   -0.011591
   122  H   -0.008880
   123  H   -0.005833
   124  H   -0.007532
   125  H    0.008497
   126  H    0.000116
   127  H    0.013677
   128  H   -0.012883
   129  H    0.006794
   130  H   -0.006444
   131  H    0.009518
   132  H   -0.019116
   133  H   -0.011606
   134  H    0.002621
   135  H   -0.011289
   136  H    0.011199
   137  H    0.008754
   138  H    0.003888
   139  H    0.004258
   140  H    0.005885
 Sum of Mulliken charges =  -0.00000

 Dipole moment (field-independent basis, Debye):
    X=              2.3373    Y=              4.2612    Z=             -1.3074  Tot=              5.0330
 Quadrupole moment (field-independent basis, Debye-Ang):
   XX=           -372.4016   YY=           -426.1181   ZZ=           -405.2953
   XY=             -7.0756   XZ=             -6.5328   YZ=              5.5657

 Normal termination of Gaussian 16 at Wed May  4 11:27:25 2022.
