 Gaussian 16, Revision A.03,
 Gaussian 16:  ES64L-G16RevA.03 25-Dec-2016

 ---------------------------------
 #p PBE1PBE/Def2SVP td=(nstates=5)
 ---------------------------------

 -----------------------------------------------------
 step_1651_chromophore_9 TDDFT with PBE1PBE functional
 -----------------------------------------------------
 Symbolic Z-matrix:
 Charge =  0 Multiplicity = 1

                         Standard orientation:
 ---------------------------------------------------------------------
 Center     Atomic      Atomic             Coordinates (Angstroms)
 Number     Number       Type             X           Y           Z
 ---------------------------------------------------------------------
      1         12           0       -4.910502    0.677649    0.204206
      2          6           0       -3.436961   -2.417600    0.024990
      3          6           0       -1.626042    2.034836   -0.011876
      4          6           0       -6.227968    3.762745    0.392562
      5          6           0       -7.954564   -0.803250    0.715532
      6          7           0       -2.764479   -0.155760   -0.137454
      7          6           0       -2.437845   -1.485463   -0.162401
      8          6           0       -0.934054   -1.635085   -0.597287
      9          6           0       -0.422744   -0.175989   -0.302366
     10          6           0       -1.706692    0.645428   -0.140453
     11          6           0        0.556248   -0.214005    0.921841
     12          6           0       -0.822063   -2.082102   -2.061168
     13          6           0        0.331317   -3.007967   -2.489696
     14          6           0        1.523031   -2.998957   -1.570728
     15          8           0        1.660343   -3.627221   -0.571959
     16          8           0        2.367660   -1.985800   -2.030944
     17          7           0       -4.055379    2.619861    0.156869
     18          6           0       -2.727569    2.959988   -0.010686
     19          6           0       -2.566101    4.392251   -0.217361
     20          6           0       -3.906738    4.889113   -0.182629
     21          6           0       -4.794526    3.725129    0.154033
     22          6           0       -1.139222    5.012212   -0.533467
     23          6           0       -4.384386    6.328806   -0.487853
     24          8           0       -5.555716    6.577016   -0.598642
     25          6           0       -3.380403    7.414455   -0.642527
     26          7           0       -6.753668    1.367099    0.441376
     27          6           0       -7.097039    2.648445    0.545332
     28          6           0       -8.565258    2.825545    0.780584
     29          6           0       -9.108298    1.412437    0.984766
     30          6           0       -7.857072    0.591926    0.672899
     31          6           0       -8.971813    3.779792    1.923140
     32          6           0      -10.402069    0.981547    0.214604
     33          6           0      -10.238493    0.511493   -1.301559
     34          7           0       -5.644261   -1.199278    0.267847
     35          6           0       -6.920796   -1.696493    0.441982
     36          6           0       -6.876134   -3.121027    0.506960
     37          6           0       -5.527878   -3.434302    0.249042
     38          6           0       -4.800594   -2.209684    0.169045
     39          6           0       -8.035072   -3.954451    0.804459
     40          6           0       -4.669242   -4.540966    0.010796
     41          8           0       -4.844857   -5.772997   -0.035348
     42          6           0       -3.241796   -3.899780   -0.121396
     43          6           0       -2.390492   -4.466561    0.950997
     44          8           0       -2.239409   -4.012434    2.080738
     45          8           0       -1.778306   -5.560131    0.441612
     46          6           0       -1.253908   -6.432029    1.499337
     47          6           0        3.293878   -1.542898   -0.981936
     48          6           0        4.634791   -1.450866   -1.625713
     49          6           0        5.635114   -2.371041   -1.687960
     50          6           0        5.370682   -3.917822   -1.665138
     51          6           0        6.988900   -1.923787   -2.184639
     52          6           0        7.107040   -1.186911   -3.536765
     53          6           0        8.380499   -0.376925   -3.668938
     54          6           0        8.169595    1.097448   -3.195401
     55          6           0        7.582665    1.947185   -4.378316
     56          6           0        9.371715    1.724088   -2.568778
     57          6           0        9.947708    1.085609   -1.351856
     58          6           0       10.854983    1.924220   -0.495049
     59          6           0       10.102967    2.669184    0.740392
     60          6           0        9.730523    4.171515    0.422406
     61          6           0       10.955417    2.481666    2.026105
     62          6           0       10.746501    1.009162    2.616330
     63          6           0       10.021800    0.982592    3.952238
     64          6           0        9.947481   -0.435416    4.551119
     65          6           0        8.525909   -0.646823    5.207127
     66          6           0       11.116853   -0.612145    5.536411
     67          1           0       -0.603956    2.420968   -0.025272
     68          1           0       -6.848497    4.661025    0.385258
     69          1           0       -8.884665   -1.350536    0.885956
     70          1           0       -0.623665   -2.393819    0.120345
     71          1           0        0.195379    0.217580   -1.108939
     72          1           0        1.368480    0.501835    0.791655
     73          1           0        0.924115   -1.229349    1.073300
     74          1           0       -0.059458    0.075585    1.772944
     75          1           0       -0.694670   -1.193123   -2.678631
     76          1           0       -1.736493   -2.627180   -2.291317
     77          1           0        0.621074   -2.835140   -3.525854
     78          1           0       -0.112653   -4.003433   -2.520725
     79          1           0       -0.601676    4.991244    0.415014
     80          1           0       -1.214413    6.087579   -0.696506
     81          1           0       -0.477754    4.611574   -1.301846
     82          1           0       -2.817362    7.531676    0.283527
     83          1           0       -4.015173    8.277745   -0.842435
     84          1           0       -2.669563    7.283725   -1.458846
     85          1           0       -9.080718    3.260733   -0.076057
     86          1           0       -9.298004    1.247086    2.044504
     87          1           0       -9.120264    4.768833    1.490593
     88          1           0       -8.259999    3.874638    2.743953
     89          1           0       -9.940800    3.526039    2.353325
     90          1           0      -11.066947    1.813549   -0.018628
     91          1           0      -11.004083    0.288075    0.801597
     92          1           0       -9.256745    0.781084   -1.692908
     93          1           0      -10.931836    1.052248   -1.946746
     94          1           0      -10.354025   -0.562683   -1.441451
     95          1           0       -8.953627   -3.416038    0.574039
     96          1           0       -8.039144   -4.308340    1.835513
     97          1           0       -8.046969   -4.831578    0.158464
     98          1           0       -2.957104   -4.143015   -1.145294
     99          1           0       -0.929766   -7.335993    0.984546
    100          1           0       -2.041156   -6.519536    2.248104
    101          1           0       -0.312521   -6.057219    1.901788
    102          1           0        3.447372   -2.189483   -0.117482
    103          1           0        3.034779   -0.589900   -0.521054
    104          1           0        4.877165   -0.398406   -1.771421
    105          1           0        4.388633   -4.066491   -1.216068
    106          1           0        6.217814   -4.189294   -1.035130
    107          1           0        5.370345   -4.394235   -2.645120
    108          1           0        7.729742   -2.719146   -2.097475
    109          1           0        7.414905   -1.187353   -1.503227
    110          1           0        6.229053   -0.566046   -3.715367
    111          1           0        7.075108   -1.975916   -4.287608
    112          1           0        8.733399   -0.434644   -4.698182
    113          1           0        9.045969   -0.940987   -3.015696
    114          1           0        7.433154    1.120773   -2.390983
    115          1           0        8.081324    2.891894   -4.597386
    116          1           0        6.548418    2.142056   -4.093493
    117          1           0        7.489242    1.472253   -5.354088
    118          1           0        9.020798    2.707602   -2.256866
    119          1           0       10.162578    1.952473   -3.282638
    120          1           0       10.521423    0.198593   -1.619934
    121          1           0        9.036621    0.690027   -0.902273
    122          1           0       11.315295    2.754930   -1.028798
    123          1           0       11.679171    1.313416   -0.126646
    124          1           0        9.162509    2.139811    0.889069
    125          1           0       10.199641    4.643701   -0.440391
    126          1           0       10.127576    4.741466    1.262822
    127          1           0        8.648067    4.264820    0.327611
    128          1           0       10.455167    3.086669    2.782533
    129          1           0       12.012085    2.742770    1.959560
    130          1           0       11.743912    0.639687    2.852751
    131          1           0       10.146837    0.443786    1.902940
    132          1           0        9.029592    1.434916    3.943732
    133          1           0       10.510173    1.654532    4.658382
    134          1           0       10.036912   -1.214835    3.794337
    135          1           0        7.837865    0.069276    4.758256
    136          1           0        8.432832   -0.428634    6.270891
    137          1           0        8.036465   -1.584583    4.947484
    138          1           0       11.879393    0.166677    5.511478
    139          1           0       11.657495   -1.527124    5.296321
    140          1           0       10.817940   -0.644421    6.585053
 ---------------------------------------------------------------------

 SCF Done:  E(RPBE1PBE) =  -3005.38203812     A.U. after   15 cycles

 Excitation energies and oscillator strengths:

 Excited State   1:      Singlet-A      1.8535 eV  668.92 nm  f=0.3728  <S**2>=0.000
     245 -> 248        0.17078
     246 -> 247        0.69454
     246 <- 247       -0.10957
 This state for optimization and/or second-order correction.
 Total Energy, E(TD-HF/TD-DFT) =  -3005.31392308
 Copying the excited state density for this state as the 1-particle RhoCI density.

 Excited State   2:      Singlet-A      2.2660 eV  547.16 nm  f=0.1283  <S**2>=0.000
     245 -> 247        0.65329
     246 -> 248       -0.26217

 Excited State   3:      Singlet-A      2.8787 eV  430.70 nm  f=0.0004  <S**2>=0.000
     242 -> 247       -0.13152
     243 -> 247        0.66212
     243 -> 249       -0.16908

 Excited State   4:      Singlet-A      3.1600 eV  392.36 nm  f=0.0019  <S**2>=0.000
     241 -> 247       -0.20559
     242 -> 247        0.65490
     243 -> 247        0.13296

 Excited State   5:      Singlet-A      3.1946 eV  388.10 nm  f=0.0006  <S**2>=0.000
     240 -> 247        0.67543
     240 -> 249        0.12982
     240 -> 250        0.10974

 The electronic state is 1-A.
 Alpha  occ. eigenvalues --  -46.91314 -19.25687 -19.24781 -19.21396 -19.19420
 Alpha  occ. eigenvalues --  -19.19338 -19.18511 -14.41599 -14.41272 -14.39698
 Alpha  occ. eigenvalues --  -14.38484 -10.36540 -10.35341 -10.32229 -10.31409
 Alpha  occ. eigenvalues --  -10.28763 -10.28733 -10.28491 -10.28433 -10.28338
 Alpha  occ. eigenvalues --  -10.28327 -10.28105 -10.27719 -10.27049 -10.26418
 Alpha  occ. eigenvalues --  -10.26172 -10.25905 -10.25506 -10.25500 -10.25449
 Alpha  occ. eigenvalues --  -10.25191 -10.25155 -10.25123 -10.24991 -10.24967
 Alpha  occ. eigenvalues --  -10.24959 -10.24802 -10.24726 -10.24641 -10.24593
 Alpha  occ. eigenvalues --  -10.24365 -10.23983 -10.23970 -10.23802 -10.23629
 Alpha  occ. eigenvalues --  -10.23391 -10.23341 -10.23332 -10.23241 -10.23167
 Alpha  occ. eigenvalues --  -10.23035 -10.23004 -10.22690 -10.22600 -10.22547
 Alpha  occ. eigenvalues --  -10.22487 -10.22444 -10.22407 -10.22404 -10.22258
 Alpha  occ. eigenvalues --  -10.22109 -10.21857 -10.21817 -10.21767 -10.21597
 Alpha  occ. eigenvalues --  -10.21520  -3.13666  -1.86510  -1.86050  -1.85901
 Alpha  occ. eigenvalues --   -1.11938  -1.10688  -1.06255  -1.04282  -1.02656
 Alpha  occ. eigenvalues --   -1.01813  -0.99856  -0.98947  -0.98476  -0.97741
 Alpha  occ. eigenvalues --   -0.87453  -0.85009  -0.84104  -0.83491  -0.83425
 Alpha  occ. eigenvalues --   -0.82919  -0.82659  -0.81840  -0.81556  -0.81185
 Alpha  occ. eigenvalues --   -0.80493  -0.79788  -0.78719  -0.77742  -0.77353
 Alpha  occ. eigenvalues --   -0.76522  -0.76138  -0.75385  -0.74917  -0.74803
 Alpha  occ. eigenvalues --   -0.74149  -0.72760  -0.72295  -0.71563  -0.70228
 Alpha  occ. eigenvalues --   -0.69718  -0.69709  -0.69542  -0.69400  -0.68178
 Alpha  occ. eigenvalues --   -0.67800  -0.66788  -0.66063  -0.64494  -0.64316
 Alpha  occ. eigenvalues --   -0.63034  -0.62499  -0.61491  -0.60922  -0.60299
 Alpha  occ. eigenvalues --   -0.60038  -0.59741  -0.59034  -0.58884  -0.58299
 Alpha  occ. eigenvalues --   -0.57921  -0.57406  -0.57085  -0.56035  -0.55060
 Alpha  occ. eigenvalues --   -0.54425  -0.54130  -0.53729  -0.53466  -0.52728
 Alpha  occ. eigenvalues --   -0.52434  -0.51423  -0.50816  -0.50727  -0.50604
 Alpha  occ. eigenvalues --   -0.50079  -0.49626  -0.49223  -0.49011  -0.48475
 Alpha  occ. eigenvalues --   -0.48326  -0.47943  -0.47718  -0.47566  -0.47486
 Alpha  occ. eigenvalues --   -0.47225  -0.47151  -0.46721  -0.46554  -0.46224
 Alpha  occ. eigenvalues --   -0.46115  -0.45717  -0.45496  -0.45158  -0.44959
 Alpha  occ. eigenvalues --   -0.44856  -0.44598  -0.44336  -0.44244  -0.44002
 Alpha  occ. eigenvalues --   -0.43915  -0.43627  -0.43352  -0.43310  -0.43234
 Alpha  occ. eigenvalues --   -0.43022  -0.42925  -0.42878  -0.42415  -0.42188
 Alpha  occ. eigenvalues --   -0.42150  -0.42068  -0.41582  -0.41534  -0.41333
 Alpha  occ. eigenvalues --   -0.41177  -0.41036  -0.40817  -0.40637  -0.40470
 Alpha  occ. eigenvalues --   -0.40394  -0.40041  -0.39876  -0.39647  -0.39537
 Alpha  occ. eigenvalues --   -0.39361  -0.39209  -0.39000  -0.38806  -0.38702
 Alpha  occ. eigenvalues --   -0.38454  -0.38334  -0.38261  -0.38014  -0.37778
 Alpha  occ. eigenvalues --   -0.37566  -0.37330  -0.37198  -0.36998  -0.36923
 Alpha  occ. eigenvalues --   -0.36789  -0.36519  -0.36203  -0.36025  -0.35978
 Alpha  occ. eigenvalues --   -0.35738  -0.35638  -0.35318  -0.35243  -0.35125
 Alpha  occ. eigenvalues --   -0.34970  -0.34103  -0.33911  -0.33698  -0.33605
 Alpha  occ. eigenvalues --   -0.33477  -0.33003  -0.32798  -0.32630  -0.32495
 Alpha  occ. eigenvalues --   -0.32145  -0.32004  -0.31945  -0.31796  -0.31258
 Alpha  occ. eigenvalues --   -0.30889  -0.30799  -0.30256  -0.30039  -0.29436
 Alpha  occ. eigenvalues --   -0.29117  -0.28771  -0.28500  -0.26998  -0.26168
 Alpha  occ. eigenvalues --   -0.26017  -0.25555  -0.24953  -0.24818  -0.20987
 Alpha  occ. eigenvalues --   -0.18704
 Alpha virt. eigenvalues --   -0.11129  -0.04872  -0.03822  -0.01907  -0.00676
 Alpha virt. eigenvalues --    0.00054   0.01035   0.01510   0.01657   0.02662
 Alpha virt. eigenvalues --    0.03946   0.04752   0.05190   0.05318   0.05804

 Mulliken charges:
               1
     1  Mg   1.007627
     2  C   -0.031691
     3  C   -0.059471
     4  C   -0.027371
     5  C   -0.069179
     6  N   -0.348580
     7  C   -0.001746
     8  C   -0.097871
     9  C   -0.164429
    10  C    0.105847
    11  C   -0.008127
    12  C    0.029906
    13  C    0.027830
    14  C    0.214877
    15  O   -0.228560
    16  O   -0.374884
    17  N   -0.452130
    18  C    0.139772
    19  C   -0.150514
    20  C   -0.113656
    21  C    0.173374
    22  C    0.048334
    23  C    0.047786
    24  O   -0.214449
    25  C   -0.036766
    26  N   -0.448001
    27  C    0.068930
    28  C   -0.111275
    29  C   -0.044547
    30  C    0.087394
    31  C   -0.011769
    32  C   -0.052264
    33  C   -0.087946
    34  N   -0.505769
    35  C    0.108088
    36  C   -0.169652
    37  C   -0.031202
    38  C    0.220295
    39  C    0.072278
    40  C    0.101016
    41  O   -0.239182
    42  C   -0.170847
    43  C    0.306803
    44  O   -0.266069
    45  O   -0.347805
    46  C    0.133051
    47  C    0.203771
    48  C   -0.125681
    49  C   -0.182460
    50  C    0.001021
    51  C   -0.006557
    52  C   -0.033426
    53  C   -0.004491
    54  C   -0.207242
    55  C   -0.006059
    56  C   -0.005433
    57  C   -0.051071
    58  C    0.027270
    59  C   -0.237269
    60  C   -0.005812
    61  C    0.000691
    62  C   -0.049224
    63  C   -0.036396
    64  C   -0.219626
    65  C   -0.021339
    66  C   -0.008002
    67  H    0.003784
    68  H    0.022091
    69  H   -0.004087
    70  H    0.077333
    71  H    0.041503
    72  H    0.046272
    73  H    0.067481
    74  H    0.047663
    75  H    0.048533
    76  H    0.048646
    77  H    0.057117
    78  H    0.047324
    79  H    0.052647
    80  H    0.014590
    81  H    0.070137
    82  H    0.067360
    83  H    0.054835
    84  H    0.076868
    85  H    0.053757
    86  H    0.048701
    87  H    0.043846
    88  H    0.050312
    89  H    0.040887
    90  H    0.038509
    91  H    0.042953
    92  H    0.049735
    93  H    0.040446
    94  H    0.048505
    95  H    0.032134
    96  H    0.067665
    97  H    0.056678
    98  H    0.083903
    99  H    0.052274
   100  H    0.070697
   101  H    0.056002
   102  H    0.065391
   103  H    0.030617
   104  H    0.013730
   105  H    0.050577
   106  H    0.051067
   107  H    0.069334
   108  H    0.019503
   109  H    0.027584
   110  H    0.027842
   111  H    0.022274
   112  H    0.031343
   113  H    0.025352
   114  H    0.030530
   115  H    0.035829
   116  H    0.030211
   117  H    0.031685
   118  H    0.017879
   119  H    0.016937
   120  H    0.029902
   121  H    0.022159
   122  H    0.024110
   123  H    0.026397
   124  H    0.030827
   125  H    0.034034
   126  H    0.027690
   127  H    0.040482
   128  H    0.021920
   129  H    0.037771
   130  H    0.027919
   131  H    0.042921
   132  H    0.013153
   133  H    0.021444
   134  H    0.039460
   135  H    0.016151
   136  H    0.037741
   137  H    0.036233
   138  H    0.030196
   139  H    0.031830
   140  H    0.032748
 Sum of Mulliken charges =  -0.00000

 Dipole moment (field-independent basis, Debye):
    X=              2.0375    Y=              3.8752    Z=             -1.2620  Tot=              4.5565
 Quadrupole moment (field-independent basis, Debye-Ang):
   XX=           -363.8605   YY=           -424.0424   ZZ=           -402.7248
   XY=             -5.2537   XZ=             -7.2993   YZ=              5.7029

 Normal termination of Gaussian 16 at Wed May  4 11:46:48 2022.
