 Gaussian 16, Revision A.03,
 Gaussian 16:  ES64L-G16RevA.03 25-Dec-2016

 --------------------------------
 #p wB97XD/Def2SVP td=(nstates=5)
 --------------------------------

 ----------------------------------------------------
 step_1651_chromophore_9 TDDFT with wB97XD functional
 ----------------------------------------------------
 Symbolic Z-matrix:
 Charge =  0 Multiplicity = 1

                         Standard orientation:
 ---------------------------------------------------------------------
 Center     Atomic      Atomic             Coordinates (Angstroms)
 Number     Number       Type             X           Y           Z
 ---------------------------------------------------------------------
      1         12           0       -4.910502    0.677649    0.204206
      2          6           0       -3.436961   -2.417600    0.024990
      3          6           0       -1.626042    2.034836   -0.011876
      4          6           0       -6.227968    3.762745    0.392562
      5          6           0       -7.954564   -0.803250    0.715532
      6          7           0       -2.764479   -0.155760   -0.137454
      7          6           0       -2.437845   -1.485463   -0.162401
      8          6           0       -0.934054   -1.635085   -0.597287
      9          6           0       -0.422744   -0.175989   -0.302366
     10          6           0       -1.706692    0.645428   -0.140453
     11          6           0        0.556248   -0.214005    0.921841
     12          6           0       -0.822063   -2.082102   -2.061168
     13          6           0        0.331317   -3.007967   -2.489696
     14          6           0        1.523031   -2.998957   -1.570728
     15          8           0        1.660343   -3.627221   -0.571959
     16          8           0        2.367660   -1.985800   -2.030944
     17          7           0       -4.055379    2.619861    0.156869
     18          6           0       -2.727569    2.959988   -0.010686
     19          6           0       -2.566101    4.392251   -0.217361
     20          6           0       -3.906738    4.889113   -0.182629
     21          6           0       -4.794526    3.725129    0.154033
     22          6           0       -1.139222    5.012212   -0.533467
     23          6           0       -4.384386    6.328806   -0.487853
     24          8           0       -5.555716    6.577016   -0.598642
     25          6           0       -3.380403    7.414455   -0.642527
     26          7           0       -6.753668    1.367099    0.441376
     27          6           0       -7.097039    2.648445    0.545332
     28          6           0       -8.565258    2.825545    0.780584
     29          6           0       -9.108298    1.412437    0.984766
     30          6           0       -7.857072    0.591926    0.672899
     31          6           0       -8.971813    3.779792    1.923140
     32          6           0      -10.402069    0.981547    0.214604
     33          6           0      -10.238493    0.511493   -1.301559
     34          7           0       -5.644261   -1.199278    0.267847
     35          6           0       -6.920796   -1.696493    0.441982
     36          6           0       -6.876134   -3.121027    0.506960
     37          6           0       -5.527878   -3.434302    0.249042
     38          6           0       -4.800594   -2.209684    0.169045
     39          6           0       -8.035072   -3.954451    0.804459
     40          6           0       -4.669242   -4.540966    0.010796
     41          8           0       -4.844857   -5.772997   -0.035348
     42          6           0       -3.241796   -3.899780   -0.121396
     43          6           0       -2.390492   -4.466561    0.950997
     44          8           0       -2.239409   -4.012434    2.080738
     45          8           0       -1.778306   -5.560131    0.441612
     46          6           0       -1.253908   -6.432029    1.499337
     47          6           0        3.293878   -1.542898   -0.981936
     48          6           0        4.634791   -1.450866   -1.625713
     49          6           0        5.635114   -2.371041   -1.687960
     50          6           0        5.370682   -3.917822   -1.665138
     51          6           0        6.988900   -1.923787   -2.184639
     52          6           0        7.107040   -1.186911   -3.536765
     53          6           0        8.380499   -0.376925   -3.668938
     54          6           0        8.169595    1.097448   -3.195401
     55          6           0        7.582665    1.947185   -4.378316
     56          6           0        9.371715    1.724088   -2.568778
     57          6           0        9.947708    1.085609   -1.351856
     58          6           0       10.854983    1.924220   -0.495049
     59          6           0       10.102967    2.669184    0.740392
     60          6           0        9.730523    4.171515    0.422406
     61          6           0       10.955417    2.481666    2.026105
     62          6           0       10.746501    1.009162    2.616330
     63          6           0       10.021800    0.982592    3.952238
     64          6           0        9.947481   -0.435416    4.551119
     65          6           0        8.525909   -0.646823    5.207127
     66          6           0       11.116853   -0.612145    5.536411
     67          1           0       -0.603956    2.420968   -0.025272
     68          1           0       -6.848497    4.661025    0.385258
     69          1           0       -8.884665   -1.350536    0.885956
     70          1           0       -0.623665   -2.393819    0.120345
     71          1           0        0.195379    0.217580   -1.108939
     72          1           0        1.368480    0.501835    0.791655
     73          1           0        0.924115   -1.229349    1.073300
     74          1           0       -0.059458    0.075585    1.772944
     75          1           0       -0.694670   -1.193123   -2.678631
     76          1           0       -1.736493   -2.627180   -2.291317
     77          1           0        0.621074   -2.835140   -3.525854
     78          1           0       -0.112653   -4.003433   -2.520725
     79          1           0       -0.601676    4.991244    0.415014
     80          1           0       -1.214413    6.087579   -0.696506
     81          1           0       -0.477754    4.611574   -1.301846
     82          1           0       -2.817362    7.531676    0.283527
     83          1           0       -4.015173    8.277745   -0.842435
     84          1           0       -2.669563    7.283725   -1.458846
     85          1           0       -9.080718    3.260733   -0.076057
     86          1           0       -9.298004    1.247086    2.044504
     87          1           0       -9.120264    4.768833    1.490593
     88          1           0       -8.259999    3.874638    2.743953
     89          1           0       -9.940800    3.526039    2.353325
     90          1           0      -11.066947    1.813549   -0.018628
     91          1           0      -11.004083    0.288075    0.801597
     92          1           0       -9.256745    0.781084   -1.692908
     93          1           0      -10.931836    1.052248   -1.946746
     94          1           0      -10.354025   -0.562683   -1.441451
     95          1           0       -8.953627   -3.416038    0.574039
     96          1           0       -8.039144   -4.308340    1.835513
     97          1           0       -8.046969   -4.831578    0.158464
     98          1           0       -2.957104   -4.143015   -1.145294
     99          1           0       -0.929766   -7.335993    0.984546
    100          1           0       -2.041156   -6.519536    2.248104
    101          1           0       -0.312521   -6.057219    1.901788
    102          1           0        3.447372   -2.189483   -0.117482
    103          1           0        3.034779   -0.589900   -0.521054
    104          1           0        4.877165   -0.398406   -1.771421
    105          1           0        4.388633   -4.066491   -1.216068
    106          1           0        6.217814   -4.189294   -1.035130
    107          1           0        5.370345   -4.394235   -2.645120
    108          1           0        7.729742   -2.719146   -2.097475
    109          1           0        7.414905   -1.187353   -1.503227
    110          1           0        6.229053   -0.566046   -3.715367
    111          1           0        7.075108   -1.975916   -4.287608
    112          1           0        8.733399   -0.434644   -4.698182
    113          1           0        9.045969   -0.940987   -3.015696
    114          1           0        7.433154    1.120773   -2.390983
    115          1           0        8.081324    2.891894   -4.597386
    116          1           0        6.548418    2.142056   -4.093493
    117          1           0        7.489242    1.472253   -5.354088
    118          1           0        9.020798    2.707602   -2.256866
    119          1           0       10.162578    1.952473   -3.282638
    120          1           0       10.521423    0.198593   -1.619934
    121          1           0        9.036621    0.690027   -0.902273
    122          1           0       11.315295    2.754930   -1.028798
    123          1           0       11.679171    1.313416   -0.126646
    124          1           0        9.162509    2.139811    0.889069
    125          1           0       10.199641    4.643701   -0.440391
    126          1           0       10.127576    4.741466    1.262822
    127          1           0        8.648067    4.264820    0.327611
    128          1           0       10.455167    3.086669    2.782533
    129          1           0       12.012085    2.742770    1.959560
    130          1           0       11.743912    0.639687    2.852751
    131          1           0       10.146837    0.443786    1.902940
    132          1           0        9.029592    1.434916    3.943732
    133          1           0       10.510173    1.654532    4.658382
    134          1           0       10.036912   -1.214835    3.794337
    135          1           0        7.837865    0.069276    4.758256
    136          1           0        8.432832   -0.428634    6.270891
    137          1           0        8.036465   -1.584583    4.947484
    138          1           0       11.879393    0.166677    5.511478
    139          1           0       11.657495   -1.527124    5.296321
    140          1           0       10.817940   -0.644421    6.585053
 ---------------------------------------------------------------------

 SCF Done:  E(RwB97XD) =  -3007.89455697     A.U. after   19 cycles

 Excitation energies and oscillator strengths:

 Excited State   1:      Singlet-A      1.6631 eV  745.50 nm  f=0.3866  <S**2>=0.000
     245 -> 248        0.17982
     246 -> 247        0.68554
     245 <- 248        0.11570
 This state for optimization and/or second-order correction.
 Total Energy, E(TD-HF/TD-DFT) =  -3007.83343916
 Copying the excited state density for this state as the 1-particle RhoCI density.

 Excited State   2:      Singlet-A      2.2058 eV  562.09 nm  f=0.1268  <S**2>=0.000
     245 -> 247        0.64072
     246 -> 248       -0.28727

 Excited State   3:      Singlet-A      3.4463 eV  359.76 nm  f=0.0051  <S**2>=0.000
     241 -> 247       -0.12481
     242 -> 247        0.29387
     242 -> 249       -0.26292
     242 -> 250        0.14936
     243 -> 247        0.47132
     243 -> 249       -0.21418

 Excited State   4:      Singlet-A      3.5280 eV  351.43 nm  f=0.0515  <S**2>=0.000
     239 -> 247       -0.13793
     240 -> 247        0.11508
     241 -> 247        0.47185
     242 -> 247        0.35778
     242 -> 249       -0.10968
     243 -> 247       -0.17767
     246 -> 248        0.20160

 Excited State   5:      Singlet-A      3.5926 eV  345.11 nm  f=0.4290  <S**2>=0.000
     242 -> 247       -0.24551
     243 -> 247        0.27671
     245 -> 247        0.21739
     246 -> 248        0.53977

 The electronic state is 1-A.
 Alpha  occ. eigenvalues --  -46.94251 -19.30237 -19.29301 -19.26065 -19.24453
 Alpha  occ. eigenvalues --  -19.23987 -19.23107 -14.46587 -14.46438 -14.44800
 Alpha  occ. eigenvalues --  -14.43299 -10.43326 -10.42132 -10.39270 -10.38113
 Alpha  occ. eigenvalues --  -10.35440 -10.35263 -10.34975 -10.34858 -10.34803
 Alpha  occ. eigenvalues --  -10.34445 -10.34443 -10.34191 -10.33864 -10.32378
 Alpha  occ. eigenvalues --  -10.32255 -10.32240 -10.32146 -10.32135 -10.31816
 Alpha  occ. eigenvalues --  -10.31560 -10.31513 -10.31497 -10.31239 -10.31223
 Alpha  occ. eigenvalues --  -10.31099 -10.31089 -10.31047 -10.30977 -10.30847
 Alpha  occ. eigenvalues --  -10.30755 -10.30248 -10.30191 -10.30142 -10.30111
 Alpha  occ. eigenvalues --  -10.29909 -10.29809 -10.29800 -10.29634 -10.29429
 Alpha  occ. eigenvalues --  -10.29403 -10.29312 -10.29082 -10.28964 -10.28934
 Alpha  occ. eigenvalues --  -10.28876 -10.28826 -10.28789 -10.28697 -10.28551
 Alpha  occ. eigenvalues --  -10.28444 -10.28272 -10.28189 -10.28182 -10.28023
 Alpha  occ. eigenvalues --  -10.27939  -3.20440  -1.94038  -1.93574  -1.93426
 Alpha  occ. eigenvalues --   -1.19304  -1.18035  -1.13931  -1.11615  -1.09968
 Alpha  occ. eigenvalues --   -1.09134  -1.07172  -1.06276  -1.05884  -1.05160
 Alpha  occ. eigenvalues --   -0.94945  -0.92696  -0.91748  -0.91162  -0.90934
 Alpha  occ. eigenvalues --   -0.90591  -0.90299  -0.89410  -0.89103  -0.88864
 Alpha  occ. eigenvalues --   -0.88304  -0.87477  -0.86398  -0.85268  -0.85048
 Alpha  occ. eigenvalues --   -0.84201  -0.83952  -0.83025  -0.82553  -0.82412
 Alpha  occ. eigenvalues --   -0.81833  -0.80526  -0.80006  -0.79120  -0.77803
 Alpha  occ. eigenvalues --   -0.77418  -0.77398  -0.77107  -0.77102  -0.75851
 Alpha  occ. eigenvalues --   -0.75283  -0.74393  -0.73608  -0.72019  -0.71916
 Alpha  occ. eigenvalues --   -0.70508  -0.70134  -0.69138  -0.68594  -0.67829
 Alpha  occ. eigenvalues --   -0.67719  -0.67114  -0.66545  -0.66294  -0.65767
 Alpha  occ. eigenvalues --   -0.65589  -0.65103  -0.64744  -0.63400  -0.62657
 Alpha  occ. eigenvalues --   -0.61787  -0.61597  -0.61141  -0.60885  -0.60195
 Alpha  occ. eigenvalues --   -0.59802  -0.58898  -0.58257  -0.58143  -0.57988
 Alpha  occ. eigenvalues --   -0.57556  -0.56999  -0.56667  -0.56483  -0.55876
 Alpha  occ. eigenvalues --   -0.55677  -0.55317  -0.55115  -0.54964  -0.54858
 Alpha  occ. eigenvalues --   -0.54611  -0.54469  -0.54407  -0.53932  -0.53601
 Alpha  occ. eigenvalues --   -0.53516  -0.53037  -0.52881  -0.52449  -0.52400
 Alpha  occ. eigenvalues --   -0.52304  -0.51956  -0.51721  -0.51649  -0.51301
 Alpha  occ. eigenvalues --   -0.51245  -0.51038  -0.50691  -0.50628  -0.50545
 Alpha  occ. eigenvalues --   -0.50356  -0.50241  -0.50167  -0.49753  -0.49443
 Alpha  occ. eigenvalues --   -0.49424  -0.49333  -0.48806  -0.48688  -0.48578
 Alpha  occ. eigenvalues --   -0.48383  -0.48283  -0.48050  -0.47796  -0.47698
 Alpha  occ. eigenvalues --   -0.47599  -0.47249  -0.46962  -0.46751  -0.46689
 Alpha  occ. eigenvalues --   -0.46464  -0.46376  -0.46184  -0.45971  -0.45824
 Alpha  occ. eigenvalues --   -0.45647  -0.45558  -0.45354  -0.45075  -0.44951
 Alpha  occ. eigenvalues --   -0.44846  -0.44437  -0.44293  -0.44143  -0.44072
 Alpha  occ. eigenvalues --   -0.43879  -0.43589  -0.43275  -0.43108  -0.42974
 Alpha  occ. eigenvalues --   -0.42856  -0.42656  -0.42347  -0.42239  -0.42233
 Alpha  occ. eigenvalues --   -0.41971  -0.41110  -0.41002  -0.40741  -0.40616
 Alpha  occ. eigenvalues --   -0.40551  -0.40077  -0.39848  -0.39696  -0.39403
 Alpha  occ. eigenvalues --   -0.39178  -0.39075  -0.38970  -0.38781  -0.38110
 Alpha  occ. eigenvalues --   -0.37854  -0.37837  -0.37133  -0.37058  -0.36223
 Alpha  occ. eigenvalues --   -0.36019  -0.35680  -0.35398  -0.33706  -0.33506
 Alpha  occ. eigenvalues --   -0.32707  -0.32120  -0.31639  -0.31554  -0.25986
 Alpha  occ. eigenvalues --   -0.22889
 Alpha virt. eigenvalues --   -0.07006   0.00588   0.02476   0.04553   0.05963
 Alpha virt. eigenvalues --    0.06724   0.07218   0.07850   0.08357   0.09126
 Alpha virt. eigenvalues --    0.10621   0.11479   0.11970   0.12189   0.12558

 Mulliken charges:
               1
     1  Mg   0.996033
     2  C   -0.027043
     3  C   -0.081568
     4  C   -0.051727
     5  C   -0.086194
     6  N   -0.310158
     7  C   -0.047040
     8  C   -0.060715
     9  C   -0.140497
    10  C    0.090866
    11  C    0.001480
    12  C    0.037624
    13  C    0.043607
    14  C    0.201220
    15  O   -0.223579
    16  O   -0.374398
    17  N   -0.418952
    18  C    0.137898
    19  C   -0.145914
    20  C   -0.105827
    21  C    0.168822
    22  C    0.063394
    23  C    0.046005
    24  O   -0.207519
    25  C   -0.027464
    26  N   -0.411942
    27  C    0.057741
    28  C   -0.087012
    29  C   -0.020790
    30  C    0.078302
    31  C   -0.002467
    32  C   -0.038938
    33  C   -0.070269
    34  N   -0.463283
    35  C    0.095325
    36  C   -0.167429
    37  C   -0.028155
    38  C    0.202663
    39  C    0.081332
    40  C    0.082692
    41  O   -0.230753
    42  C   -0.131582
    43  C    0.283734
    44  O   -0.260636
    45  O   -0.347126
    46  C    0.148199
    47  C    0.224892
    48  C   -0.131287
    49  C   -0.173686
    50  C    0.020184
    51  C    0.018642
    52  C   -0.017496
    53  C    0.014819
    54  C   -0.171397
    55  C    0.000692
    56  C    0.009443
    57  C   -0.026090
    58  C    0.038655
    59  C   -0.207631
    60  C    0.005405
    61  C    0.017250
    62  C   -0.030261
    63  C   -0.016963
    64  C   -0.193582
    65  C   -0.008192
    66  C    0.001075
    67  H   -0.000468
    68  H    0.017236
    69  H   -0.013376
    70  H    0.059194
    71  H    0.031362
    72  H    0.041050
    73  H    0.061091
    74  H    0.042466
    75  H    0.041059
    76  H    0.037931
    77  H    0.052898
    78  H    0.042397
    79  H    0.048173
    80  H    0.008681
    81  H    0.068448
    82  H    0.062858
    83  H    0.054193
    84  H    0.072245
    85  H    0.043880
    86  H    0.037870
    87  H    0.038192
    88  H    0.044805
    89  H    0.035452
    90  H    0.029227
    91  H    0.037127
    92  H    0.039730
    93  H    0.035053
    94  H    0.042789
    95  H    0.025593
    96  H    0.062500
    97  H    0.051689
    98  H    0.075514
    99  H    0.049140
   100  H    0.066645
   101  H    0.051942
   102  H    0.058808
   103  H    0.022123
   104  H    0.007829
   105  H    0.041621
   106  H    0.044036
   107  H    0.064515
   108  H    0.012647
   109  H    0.010330
   110  H    0.015463
   111  H    0.014882
   112  H    0.024640
   113  H    0.011402
   114  H    0.014512
   115  H    0.031388
   116  H    0.024489
   117  H    0.026301
   118  H    0.004118
   119  H    0.008508
   120  H    0.021818
   121  H    0.005985
   122  H    0.014141
   123  H    0.018991
   124  H    0.016098
   125  H    0.028434
   126  H    0.021593
   127  H    0.035689
   128  H    0.009560
   129  H    0.032029
   130  H    0.018494
   131  H    0.030858
   132  H    0.002289
   133  H    0.010893
   134  H    0.029845
   135  H    0.008333
   136  H    0.031903
   137  H    0.031262
   138  H    0.023450
   139  H    0.026610
   140  H    0.027099
 Sum of Mulliken charges =  -0.00000

 Dipole moment (field-independent basis, Debye):
    X=              2.4232    Y=              4.4551    Z=             -1.3460  Tot=              5.2470
 Quadrupole moment (field-independent basis, Debye-Ang):
   XX=           -367.9951   YY=           -421.2931   ZZ=           -402.3276
   XY=             -7.4512   XZ=             -6.8238   YZ=              5.5203

 Normal termination of Gaussian 16 at Wed May  4 12:17:54 2022.
