 Gaussian 16, Revision A.03,
 Gaussian 16:  ES64L-G16RevA.03 25-Dec-2016

 --------------------
 #p ZINDO=(nstates=5)
 --------------------

 -----------------------------
 step_1651_chromophore_9 ZINDO
 -----------------------------
 Symbolic Z-matrix:
 Charge =  0 Multiplicity = 1

                         Standard orientation:
 ---------------------------------------------------------------------
 Center     Atomic      Atomic             Coordinates (Angstroms)
 Number     Number       Type             X           Y           Z
 ---------------------------------------------------------------------
      1         12           0       -4.910502    0.677649    0.204206
      2          6           0       -3.436961   -2.417600    0.024990
      3          6           0       -1.626042    2.034836   -0.011876
      4          6           0       -6.227968    3.762745    0.392562
      5          6           0       -7.954564   -0.803250    0.715532
      6          7           0       -2.764479   -0.155760   -0.137454
      7          6           0       -2.437845   -1.485463   -0.162401
      8          6           0       -0.934054   -1.635085   -0.597287
      9          6           0       -0.422744   -0.175989   -0.302366
     10          6           0       -1.706692    0.645428   -0.140453
     11          6           0        0.556248   -0.214005    0.921841
     12          6           0       -0.822063   -2.082102   -2.061168
     13          6           0        0.331317   -3.007967   -2.489696
     14          6           0        1.523031   -2.998957   -1.570728
     15          8           0        1.660343   -3.627221   -0.571959
     16          8           0        2.367660   -1.985800   -2.030944
     17          7           0       -4.055379    2.619861    0.156869
     18          6           0       -2.727569    2.959988   -0.010686
     19          6           0       -2.566101    4.392251   -0.217361
     20          6           0       -3.906738    4.889113   -0.182629
     21          6           0       -4.794526    3.725129    0.154033
     22          6           0       -1.139222    5.012212   -0.533467
     23          6           0       -4.384386    6.328806   -0.487853
     24          8           0       -5.555716    6.577016   -0.598642
     25          6           0       -3.380403    7.414455   -0.642527
     26          7           0       -6.753668    1.367099    0.441376
     27          6           0       -7.097039    2.648445    0.545332
     28          6           0       -8.565258    2.825545    0.780584
     29          6           0       -9.108298    1.412437    0.984766
     30          6           0       -7.857072    0.591926    0.672899
     31          6           0       -8.971813    3.779792    1.923140
     32          6           0      -10.402069    0.981547    0.214604
     33          6           0      -10.238493    0.511493   -1.301559
     34          7           0       -5.644261   -1.199278    0.267847
     35          6           0       -6.920796   -1.696493    0.441982
     36          6           0       -6.876134   -3.121027    0.506960
     37          6           0       -5.527878   -3.434302    0.249042
     38          6           0       -4.800594   -2.209684    0.169045
     39          6           0       -8.035072   -3.954451    0.804459
     40          6           0       -4.669242   -4.540966    0.010796
     41          8           0       -4.844857   -5.772997   -0.035348
     42          6           0       -3.241796   -3.899780   -0.121396
     43          6           0       -2.390492   -4.466561    0.950997
     44          8           0       -2.239409   -4.012434    2.080738
     45          8           0       -1.778306   -5.560131    0.441612
     46          6           0       -1.253908   -6.432029    1.499337
     47          6           0        3.293878   -1.542898   -0.981936
     48          6           0        4.634791   -1.450866   -1.625713
     49          6           0        5.635114   -2.371041   -1.687960
     50          6           0        5.370682   -3.917822   -1.665138
     51          6           0        6.988900   -1.923787   -2.184639
     52          6           0        7.107040   -1.186911   -3.536765
     53          6           0        8.380499   -0.376925   -3.668938
     54          6           0        8.169595    1.097448   -3.195401
     55          6           0        7.582665    1.947185   -4.378316
     56          6           0        9.371715    1.724088   -2.568778
     57          6           0        9.947708    1.085609   -1.351856
     58          6           0       10.854983    1.924220   -0.495049
     59          6           0       10.102967    2.669184    0.740392
     60          6           0        9.730523    4.171515    0.422406
     61          6           0       10.955417    2.481666    2.026105
     62          6           0       10.746501    1.009162    2.616330
     63          6           0       10.021800    0.982592    3.952238
     64          6           0        9.947481   -0.435416    4.551119
     65          6           0        8.525909   -0.646823    5.207127
     66          6           0       11.116853   -0.612145    5.536411
     67          1           0       -0.603956    2.420968   -0.025272
     68          1           0       -6.848497    4.661025    0.385258
     69          1           0       -8.884665   -1.350536    0.885956
     70          1           0       -0.623665   -2.393819    0.120345
     71          1           0        0.195379    0.217580   -1.108939
     72          1           0        1.368480    0.501835    0.791655
     73          1           0        0.924115   -1.229349    1.073300
     74          1           0       -0.059458    0.075585    1.772944
     75          1           0       -0.694670   -1.193123   -2.678631
     76          1           0       -1.736493   -2.627180   -2.291317
     77          1           0        0.621074   -2.835140   -3.525854
     78          1           0       -0.112653   -4.003433   -2.520725
     79          1           0       -0.601676    4.991244    0.415014
     80          1           0       -1.214413    6.087579   -0.696506
     81          1           0       -0.477754    4.611574   -1.301846
     82          1           0       -2.817362    7.531676    0.283527
     83          1           0       -4.015173    8.277745   -0.842435
     84          1           0       -2.669563    7.283725   -1.458846
     85          1           0       -9.080718    3.260733   -0.076057
     86          1           0       -9.298004    1.247086    2.044504
     87          1           0       -9.120264    4.768833    1.490593
     88          1           0       -8.259999    3.874638    2.743953
     89          1           0       -9.940800    3.526039    2.353325
     90          1           0      -11.066947    1.813549   -0.018628
     91          1           0      -11.004083    0.288075    0.801597
     92          1           0       -9.256745    0.781084   -1.692908
     93          1           0      -10.931836    1.052248   -1.946746
     94          1           0      -10.354025   -0.562683   -1.441451
     95          1           0       -8.953627   -3.416038    0.574039
     96          1           0       -8.039144   -4.308340    1.835513
     97          1           0       -8.046969   -4.831578    0.158464
     98          1           0       -2.957104   -4.143015   -1.145294
     99          1           0       -0.929766   -7.335993    0.984546
    100          1           0       -2.041156   -6.519536    2.248104
    101          1           0       -0.312521   -6.057219    1.901788
    102          1           0        3.447372   -2.189483   -0.117482
    103          1           0        3.034779   -0.589900   -0.521054
    104          1           0        4.877165   -0.398406   -1.771421
    105          1           0        4.388633   -4.066491   -1.216068
    106          1           0        6.217814   -4.189294   -1.035130
    107          1           0        5.370345   -4.394235   -2.645120
    108          1           0        7.729742   -2.719146   -2.097475
    109          1           0        7.414905   -1.187353   -1.503227
    110          1           0        6.229053   -0.566046   -3.715367
    111          1           0        7.075108   -1.975916   -4.287608
    112          1           0        8.733399   -0.434644   -4.698182
    113          1           0        9.045969   -0.940987   -3.015696
    114          1           0        7.433154    1.120773   -2.390983
    115          1           0        8.081324    2.891894   -4.597386
    116          1           0        6.548418    2.142056   -4.093493
    117          1           0        7.489242    1.472253   -5.354088
    118          1           0        9.020798    2.707602   -2.256866
    119          1           0       10.162578    1.952473   -3.282638
    120          1           0       10.521423    0.198593   -1.619934
    121          1           0        9.036621    0.690027   -0.902273
    122          1           0       11.315295    2.754930   -1.028798
    123          1           0       11.679171    1.313416   -0.126646
    124          1           0        9.162509    2.139811    0.889069
    125          1           0       10.199641    4.643701   -0.440391
    126          1           0       10.127576    4.741466    1.262822
    127          1           0        8.648067    4.264820    0.327611
    128          1           0       10.455167    3.086669    2.782533
    129          1           0       12.012085    2.742770    1.959560
    130          1           0       11.743912    0.639687    2.852751
    131          1           0       10.146837    0.443786    1.902940
    132          1           0        9.029592    1.434916    3.943732
    133          1           0       10.510173    1.654532    4.658382
    134          1           0       10.036912   -1.214835    3.794337
    135          1           0        7.837865    0.069276    4.758256
    136          1           0        8.432832   -0.428634    6.270891
    137          1           0        8.036465   -1.584583    4.947484
    138          1           0       11.879393    0.166677    5.511478
    139          1           0       11.657495   -1.527124    5.296321
    140          1           0       10.817940   -0.644421    6.585053
 ---------------------------------------------------------------------

 SCF Done:  E(RZINDO/S) =  -474.556430523     A.U. after   19 cycles

 Excitation energies and oscillator strengths:

 Excited State   1:      Singlet-A      1.2507 eV  991.32 nm  f=0.6037  <S**2>=0.000
     175 ->178         0.18352
     176 ->177         0.66612
 This state for optimization and/or second-order correction.
 Total Energy, E(CIS/TDA) =  -474.510468427
 Copying the excited state density for this state as the 1-particle RhoCI density.

 Excited State   2:      Singlet-A      1.9423 eV  638.34 nm  f=0.0555  <S**2>=0.000
     175 ->177         0.55148
     176 ->178        -0.41581

 Excited State   3:      Singlet-A      2.9540 eV  419.71 nm  f=0.2155  <S**2>=0.000
     170 ->177        -0.22943
     170 ->178        -0.10923
     170 ->179        -0.25014
     170 ->180         0.20172
     170 ->186        -0.10511
     170 ->189        -0.10841
     175 ->177         0.18719
     176 ->178         0.28666
     176 ->179         0.33257
     176 ->180        -0.11630

 Excited State   4:      Singlet-A      2.9948 eV  414.00 nm  f=0.2303  <S**2>=0.000
     170 ->177         0.20879
     170 ->178         0.10895
     170 ->179         0.25387
     170 ->180        -0.20280
     170 ->186         0.10778
     170 ->189         0.11724
     171 ->177         0.10736
     174 ->177         0.10002
     175 ->177         0.18564
     176 ->178         0.28524
     176 ->179         0.30258

 Excited State   5:      Singlet-A      3.0461 eV  407.03 nm  f=0.0680  <S**2>=0.000
     167 ->177         0.12060
     167 ->179        -0.16073
     167 ->180        -0.15978
     167 ->186        -0.10075
     168 ->177         0.27860
     168 ->179        -0.30683
     168 ->180        -0.30088
     168 ->186        -0.18929
     176 ->178        -0.11566
     176 ->179         0.12094

 The electronic state is 1-A.
 Alpha  occ. eigenvalues --   -1.86552  -1.83080  -1.80583  -1.74821  -1.73554
 Alpha  occ. eigenvalues --   -1.71193  -1.66725  -1.61264  -1.61069  -1.58407
 Alpha  occ. eigenvalues --   -1.54919  -1.51511  -1.48438  -1.47578  -1.46580
 Alpha  occ. eigenvalues --   -1.44715  -1.43278  -1.40518  -1.38828  -1.38186
 Alpha  occ. eigenvalues --   -1.36338  -1.34608  -1.32873  -1.31353  -1.28578
 Alpha  occ. eigenvalues --   -1.27951  -1.25326  -1.22705  -1.21498  -1.18003
 Alpha  occ. eigenvalues --   -1.17578  -1.16847  -1.14890  -1.14810  -1.12962
 Alpha  occ. eigenvalues --   -1.12561  -1.11203  -1.09804  -1.05348  -1.02663
 Alpha  occ. eigenvalues --   -1.01771  -1.01129  -0.98890  -0.97661  -0.96585
 Alpha  occ. eigenvalues --   -0.95281  -0.94754  -0.93587  -0.93440  -0.92875
 Alpha  occ. eigenvalues --   -0.91912  -0.90479  -0.89285  -0.88025  -0.87862
 Alpha  occ. eigenvalues --   -0.85618  -0.85124  -0.83040  -0.82006  -0.80983
 Alpha  occ. eigenvalues --   -0.79643  -0.78734  -0.77231  -0.77024  -0.76492
 Alpha  occ. eigenvalues --   -0.76354  -0.75365  -0.75047  -0.74524  -0.73787
 Alpha  occ. eigenvalues --   -0.72983  -0.72461  -0.72262  -0.71729  -0.71551
 Alpha  occ. eigenvalues --   -0.70267  -0.69437  -0.69196  -0.68504  -0.68063
 Alpha  occ. eigenvalues --   -0.67734  -0.67423  -0.67060  -0.65200  -0.65094
 Alpha  occ. eigenvalues --   -0.64650  -0.64036  -0.63824  -0.63587  -0.63087
 Alpha  occ. eigenvalues --   -0.62609  -0.62550  -0.62505  -0.61974  -0.61463
 Alpha  occ. eigenvalues --   -0.61397  -0.60920  -0.60246  -0.60139  -0.60098
 Alpha  occ. eigenvalues --   -0.59422  -0.59206  -0.59074  -0.58906  -0.58339
 Alpha  occ. eigenvalues --   -0.57745  -0.57302  -0.57084  -0.56613  -0.56375
 Alpha  occ. eigenvalues --   -0.56114  -0.55145  -0.55013  -0.54861  -0.54190
 Alpha  occ. eigenvalues --   -0.54069  -0.53799  -0.53459  -0.53132  -0.52801
 Alpha  occ. eigenvalues --   -0.52311  -0.51929  -0.51837  -0.51696  -0.51356
 Alpha  occ. eigenvalues --   -0.51133  -0.50781  -0.50470  -0.50114  -0.49890
 Alpha  occ. eigenvalues --   -0.49689  -0.49567  -0.49281  -0.48888  -0.48816
 Alpha  occ. eigenvalues --   -0.48537  -0.47877  -0.47733  -0.47525  -0.47357
 Alpha  occ. eigenvalues --   -0.47244  -0.47128  -0.47062  -0.46899  -0.46624
 Alpha  occ. eigenvalues --   -0.46469  -0.46205  -0.45776  -0.45552  -0.45339
 Alpha  occ. eigenvalues --   -0.44976  -0.44820  -0.44734  -0.44239  -0.44178
 Alpha  occ. eigenvalues --   -0.43854  -0.43646  -0.43211  -0.42878  -0.41902
 Alpha  occ. eigenvalues --   -0.41890  -0.41312  -0.40891  -0.39303  -0.38644
 Alpha  occ. eigenvalues --   -0.37812  -0.36616  -0.35897  -0.34766  -0.34136
 Alpha  occ. eigenvalues --   -0.33898  -0.32358  -0.32068  -0.31991  -0.26628
 Alpha  occ. eigenvalues --   -0.21689
 Alpha virt. eigenvalues --   -0.08475  -0.01732  -0.00366   0.01372   0.01959
 Alpha virt. eigenvalues --    0.03143   0.03413   0.03493   0.04035   0.05091
 Alpha virt. eigenvalues --    0.06008   0.06450   0.06787   0.08203   0.08477

 Mulliken charges:
               1
     1  Mg   0.426867
     2  C   -0.026944
     3  C   -0.090861
     4  C   -0.089780
     5  C   -0.062708
     6  N   -0.285615
     7  C    0.098568
     8  C    0.003404
     9  C   -0.000105
    10  C    0.160492
    11  C   -0.054557
    12  C   -0.011488
    13  C    0.003179
    14  C    0.477292
    15  O   -0.495679
    16  O   -0.273376
    17  N   -0.310814
    18  C    0.119742
    19  C   -0.000610
    20  C   -0.043641
    21  C    0.156812
    22  C   -0.045796
    23  C    0.333218
    24  O   -0.505411
    25  C   -0.031260
    26  N   -0.251303
    27  C    0.159844
    28  C    0.013367
    29  C    0.001213
    30  C    0.099182
    31  C   -0.051901
    32  C   -0.036319
    33  C   -0.059766
    34  N   -0.312680
    35  C    0.063227
    36  C    0.033043
    37  C   -0.065370
    38  C    0.120792
    39  C   -0.032729
    40  C    0.323842
    41  O   -0.547460
    42  C    0.048769
    43  C    0.500575
    44  O   -0.534607
    45  O   -0.262993
    46  C    0.073491
    47  C    0.099777
    48  C   -0.084060
    49  C   -0.009941
    50  C   -0.048761
    51  C   -0.023636
    52  C   -0.026363
    53  C   -0.033095
    54  C   -0.000951
    55  C   -0.062886
    56  C   -0.023021
    57  C   -0.027827
    58  C   -0.035060
    59  C   -0.019907
    60  C   -0.062781
    61  C   -0.044132
    62  C   -0.042079
    63  C   -0.030383
    64  C   -0.005750
    65  C   -0.066368
    66  C   -0.055564
    67  H    0.029645
    68  H    0.049765
    69  H    0.031248
    70  H    0.051396
    71  H    0.024677
    72  H    0.019300
    73  H    0.035707
    74  H    0.023561
    75  H    0.025312
    76  H    0.027643
    77  H    0.034244
    78  H    0.029660
    79  H    0.026227
    80  H    0.019107
    81  H    0.043242
    82  H    0.038359
    83  H    0.036213
    84  H    0.041355
    85  H    0.035132
    86  H    0.027298
    87  H    0.015863
    88  H    0.025433
    89  H    0.016778
    90  H    0.015294
    91  H    0.025260
    92  H    0.019441
    93  H    0.017111
    94  H    0.023092
    95  H    0.018818
    96  H    0.039994
    97  H    0.028719
    98  H    0.056326
    99  H    0.029841
   100  H    0.058125
   101  H    0.041469
   102  H    0.052713
   103  H    0.035639
   104  H    0.014177
   105  H    0.033418
   106  H    0.031629
   107  H    0.038177
   108  H    0.015743
   109  H    0.014641
   110  H    0.021600
   111  H    0.008455
   112  H    0.022079
   113  H    0.018527
   114  H    0.020834
   115  H    0.020775
   116  H    0.011213
   117  H    0.018997
   118  H    0.004407
   119  H    0.012783
   120  H    0.009239
   121  H    0.019917
   122  H    0.019377
   123  H    0.017614
   124  H    0.021624
   125  H    0.022373
   126  H    0.016165
   127  H    0.021358
   128  H    0.011743
   129  H    0.031515
   130  H    0.022530
   131  H    0.029490
   132  H    0.014495
   133  H    0.013067
   134  H    0.023926
   135  H    0.007670
   136  H    0.024960
   137  H    0.019371
   138  H    0.016125
   139  H    0.011683
   140  H    0.018937
 Sum of Mulliken charges =  -0.00000

 Dipole moment (field-independent basis, Debye):
    X=              3.9869    Y=              7.1729    Z=             -2.5042  Tot=              8.5800
 N-N= 4.428306900066D+03 E-N= 0.000000000000D+00  KE=-9.531360180135D+03
 Leave Link  601 at Wed May  4 12:31:52 2022, MaxMem=  6710886400 cpu:               0.8 elap:               0.0
 (Enter /sw/apps/gaussian-16.0/g16/l9999.exe)
 1\1\GINC-BP1-COMPUTE036\SP\RZINDO CIS\STO-3G\C55H74Mg1N4O6\OF15641\04-
 May-2022\0\\#p ZINDO=(nstates=5)\\step_1651_chromophore_9 ZINDO\\0,1\M
 g,0,37.015,0.635,30.175\C,0,34.97,1.776,32.685\C,0,39.629,0.597,32.592
 \C,0,39.124,-0.465,27.802\C,0,34.468,1.032,27.922\N,0,37.193,0.998,32.
 467\C,0,36.187,1.479,33.262\C,0,36.644,1.408,34.765\C,0,38.201,1.29,34
 .567\C,0,38.364,0.926,33.087\C,0,38.881,2.617,35.052\C,0,35.987,0.225,
 35.489\C,0,35.616,0.353,36.978\C,0,36.366,1.422,37.726\O,0,36.105,2.58

 Normal termination of Gaussian 16 at Wed May  4 12:31:53 2022.
