 Gaussian 16, Revision A.03,
 Gaussian 16:  ES64L-G16RevA.03 25-Dec-2016

 ------------------------------
 #p blyp/Def2SVP td=(nstates=5)
 ------------------------------

 ---------------------------------------------------
 step_1801_chromophore_14 TDDFT with blyp functional
 ---------------------------------------------------
 Symbolic Z-matrix:
 Charge =  0 Multiplicity = 1

                         Standard orientation:
 ---------------------------------------------------------------------
 Center     Atomic      Atomic             Coordinates (Angstroms)
 Number     Number       Type             X           Y           Z
 ---------------------------------------------------------------------
      1         12           0        5.332511    0.752382   -0.297926
      2          6           0        4.290060   -2.538765    0.536217
      3          6           0        3.714540    0.450112   -3.229712
      4          6           0        5.303425    4.261182   -0.591518
      5          6           0        6.075749    1.210956    3.233299
      6          7           0        3.883179   -0.759900   -1.147503
      7          6           0        3.865732   -2.099128   -0.741594
      8          6           0        3.011013   -2.956687   -1.669475
      9          6           0        3.131604   -2.130167   -2.977151
     10          6           0        3.599832   -0.716811   -2.426829
     11          6           0        3.962935   -2.762327   -4.124482
     12          6           0        1.561382   -3.103726   -1.104720
     13          6           0        0.926879   -4.508858   -1.012209
     14          6           0       -0.524130   -4.570055   -1.467554
     15          8           0       -0.983904   -5.001295   -2.526551
     16          8           0       -1.320239   -4.103525   -0.418018
     17          7           0        4.783166    2.076485   -1.848097
     18          6           0        4.196416    1.689532   -2.992422
     19          6           0        4.318387    2.797050   -3.900349
     20          6           0        4.809582    3.895175   -3.166207
     21          6           0        4.999288    3.435619   -1.781629
     22          6           0        4.035810    2.714067   -5.364483
     23          6           0        5.134617    5.344981   -3.745062
     24          8           0        4.818435    5.632914   -4.899730
     25          6           0        5.792356    6.391397   -2.914224
     26          7           0        5.545725    2.415642    1.111504
     27          6           0        5.388203    3.792849    0.745626
     28          6           0        5.604665    4.733797    1.904995
     29          6           0        5.896601    3.810792    3.097081
     30          6           0        5.851953    2.377696    2.457131
     31          6           0        6.635581    5.933464    1.592738
     32          6           0        4.991067    3.925281    4.362224
     33          6           0        5.656372    4.717440    5.577159
     34          7           0        5.485673   -0.409914    1.452812
     35          6           0        5.806446   -0.099587    2.753149
     36          6           0        5.877479   -1.386371    3.516538
     37          6           0        5.292848   -2.351882    2.676607
     38          6           0        4.996521   -1.717228    1.440879
     39          6           0        6.617255   -1.578917    4.867429
     40          6           0        4.909349   -3.759813    2.597888
     41          8           0        4.894875   -4.628413    3.446581
     42          6           0        4.123294   -3.903539    1.228149
     43          6           0        4.836298   -5.021632    0.503797
     44          8           0        4.292561   -6.080626    0.168058
     45          8           0        6.093072   -4.721157    0.184867
     46          6           0        6.887980   -5.736034   -0.512817
     47          6           0       -2.810529   -4.015071   -0.654001
     48          6           0       -3.200037   -2.605933   -0.216786
     49          6           0       -3.656875   -1.583089   -0.965483
     50          6           0       -3.988309   -1.699173   -2.478211
     51          6           0       -4.182543   -0.338006   -0.238953
     52          6           0       -5.659992   -0.212503    0.057815
     53          6           0       -5.922347    0.720548    1.308531
     54          6           0       -7.022807    1.749810    0.955460
     55          6           0       -6.700749    3.131726    1.554637
     56          6           0       -8.475175    1.371829    1.376001
     57          6           0       -9.159350    0.430330    0.330334
     58          6           0      -10.185609   -0.385597    1.195632
     59          6           0      -11.623049    0.174303    1.102271
     60          6           0      -12.411475    0.027393    2.498853
     61          6           0      -12.462683   -0.459922   -0.019868
     62          6           0      -13.356871    0.550329   -0.740694
     63          6           0      -14.849888    0.325999   -0.377528
     64          6           0      -15.676504    1.651196   -0.388392
     65          6           0      -15.531747    2.370018    0.886630
     66          6           0      -17.162400    1.296074   -0.634289
     67          1           0        3.268023    0.176370   -4.187360
     68          1           0        5.290370    5.353048   -0.595434
     69          1           0        6.197121    1.305059    4.314209
     70          1           0        3.370064   -3.976006   -1.812114
     71          1           0        2.162147   -1.904901   -3.421451
     72          1           0        4.627329   -2.039377   -4.597440
     73          1           0        3.310224   -3.194239   -4.883428
     74          1           0        4.596904   -3.554422   -3.723612
     75          1           0        0.945490   -2.312122   -1.533555
     76          1           0        1.712625   -2.757217   -0.081931
     77          1           0        1.007745   -4.858908    0.016864
     78          1           0        1.550005   -5.165325   -1.619123
     79          1           0        4.708063    3.376015   -5.911211
     80          1           0        3.065688    3.139465   -5.618308
     81          1           0        4.029860    1.671548   -5.683798
     82          1           0        6.776007    6.008882   -2.644398
     83          1           0        5.174401    6.835082   -2.133651
     84          1           0        6.069868    7.263543   -3.506227
     85          1           0        4.591246    5.128823    1.981353
     86          1           0        6.882352    4.017922    3.513334
     87          1           0        7.238459    5.653211    0.729702
     88          1           0        7.160524    6.293768    2.478011
     89          1           0        6.018484    6.759536    1.238973
     90          1           0        4.779690    2.932837    4.759610
     91          1           0        4.048699    4.405994    4.096114
     92          1           0        6.366181    4.156687    6.186226
     93          1           0        4.854615    4.900936    6.292631
     94          1           0        6.079038    5.634618    5.165091
     95          1           0        7.679045   -1.349327    4.781341
     96          1           0        6.555568   -2.619345    5.187664
     97          1           0        6.275899   -0.977303    5.709340
     98          1           0        3.058352   -4.124203    1.297166
     99          1           0        7.313556   -6.285550    0.326706
    100          1           0        7.662277   -5.256828   -1.112485
    101          1           0        6.431650   -6.485721   -1.159070
    102          1           0       -3.135559   -4.773916    0.057629
    103          1           0       -3.255762   -4.350802   -1.590347
    104          1           0       -3.287129   -2.409303    0.852294
    105          1           0       -5.031848   -1.569651   -2.767456
    106          1           0       -3.637852   -2.662118   -2.848538
    107          1           0       -3.377051   -0.982151   -3.025535
    108          1           0       -4.052754    0.434168   -0.996030
    109          1           0       -3.548302   -0.108621    0.617790
    110          1           0       -5.925391   -1.225357    0.359775
    111          1           0       -6.359215    0.024378   -0.743472
    112          1           0       -5.022670    1.291567    1.540975
    113          1           0       -6.099655    0.075591    2.169255
    114          1           0       -6.959240    1.862884   -0.127414
    115          1           0       -5.941316    3.687908    1.005227
    116          1           0       -6.559391    3.150451    2.634739
    117          1           0       -7.585291    3.746542    1.386520
    118          1           0       -9.146942    2.227173    1.457234
    119          1           0       -8.390451    0.961782    2.382304
    120          1           0       -8.396246   -0.207172   -0.118341
    121          1           0       -9.593360    1.097458   -0.413973
    122          1           0       -9.876357   -0.334679    2.239548
    123          1           0      -10.108482   -1.422142    0.867621
    124          1           0      -11.552536    1.251090    0.949738
    125          1           0      -12.458291    0.975989    3.033566
    126          1           0      -11.995454   -0.746669    3.144228
    127          1           0      -13.469479   -0.176352    2.334610
    128          1           0      -12.953764   -1.321013    0.434099
    129          1           0      -11.822355   -0.942298   -0.757726
    130          1           0      -13.336218    0.305592   -1.803099
    131          1           0      -13.121967    1.614277   -0.726014
    132          1           0      -14.871140   -0.118400    0.617019
    133          1           0      -15.286752   -0.437779   -1.021034
    134          1           0      -15.245584    2.298093   -1.152331
    135          1           0      -15.602340    3.454031    0.802354
    136          1           0      -14.588018    2.206769    1.407651
    137          1           0      -16.320590    2.017478    1.552229
    138          1           0      -17.339246    0.237748   -0.440641
    139          1           0      -17.186500    1.545886   -1.695206
    140          1           0      -17.880515    1.860340   -0.039130
 ---------------------------------------------------------------------

 SCF Done:  E(RB-LYP) =  -3007.36745802     A.U. after   21 cycles

 Excitation energies and oscillator strengths:

 Excited State   1:      Singlet-A      1.7525 eV  707.47 nm  f=0.2835  <S**2>=0.000
     245 -> 248        0.17892
     246 -> 247        0.69042
     246 <- 247       -0.15820
 This state for optimization and/or second-order correction.
 Total Energy, E(TD-HF/TD-DFT) =  -3007.30305458
 Copying the excited state density for this state as the 1-particle RhoCI density.

 Excited State   2:      Singlet-A      1.9202 eV  645.67 nm  f=0.0060  <S**2>=0.000
     243 -> 247       -0.10532
     244 -> 247        0.57633
     245 -> 247       -0.37632
     246 -> 248        0.11003

 Excited State   3:      Singlet-A      2.0070 eV  617.75 nm  f=0.0259  <S**2>=0.000
     243 -> 247        0.33296
     244 -> 247        0.38325
     245 -> 247        0.43397
     246 -> 248       -0.20887

 Excited State   4:      Singlet-A      2.1333 eV  581.18 nm  f=0.0158  <S**2>=0.000
     243 -> 247        0.60103
     245 -> 247       -0.25819
     246 -> 248        0.20445

 Excited State   5:      Singlet-A      2.4079 eV  514.91 nm  f=0.0016  <S**2>=0.000
     240 -> 247        0.14879
     242 -> 247        0.67632

 The electronic state is 1-A.
 Alpha  occ. eigenvalues --  -46.28639 -18.83200 -18.80998 -18.76374 -18.76325
 Alpha  occ. eigenvalues --  -18.75983 -18.75930 -14.03802 -14.03578 -14.01540
 Alpha  occ. eigenvalues --  -14.01073 -10.04068 -10.03607 -10.00495 -10.00231
 Alpha  occ. eigenvalues --   -9.98487  -9.97684  -9.97117  -9.96993  -9.96982
 Alpha  occ. eigenvalues --   -9.96799  -9.96761  -9.96233  -9.95182  -9.95052
 Alpha  occ. eigenvalues --   -9.94597  -9.94555  -9.94321  -9.94315  -9.94297
 Alpha  occ. eigenvalues --   -9.94184  -9.94093  -9.93795  -9.93674  -9.93381
 Alpha  occ. eigenvalues --   -9.93303  -9.93275  -9.93092  -9.93075  -9.93045
 Alpha  occ. eigenvalues --   -9.92763  -9.92752  -9.92697  -9.92659  -9.92601
 Alpha  occ. eigenvalues --   -9.92398  -9.92228  -9.91885  -9.91861  -9.91845
 Alpha  occ. eigenvalues --   -9.91796  -9.91639  -9.91556  -9.91537  -9.91418
 Alpha  occ. eigenvalues --   -9.91366  -9.91321  -9.90935  -9.90933  -9.90905
 Alpha  occ. eigenvalues --   -9.90807  -9.90740  -9.90636  -9.90586  -9.90485
 Alpha  occ. eigenvalues --   -9.90086  -2.93073  -1.73437  -1.73016  -1.72760
 Alpha  occ. eigenvalues --   -0.99167  -0.95508  -0.92203  -0.91342  -0.89047
 Alpha  occ. eigenvalues --   -0.88227  -0.87087  -0.85861  -0.85168  -0.83959
 Alpha  occ. eigenvalues --   -0.75675  -0.73467  -0.72950  -0.72814  -0.72029
 Alpha  occ. eigenvalues --   -0.72005  -0.71744  -0.70771  -0.70630  -0.69331
 Alpha  occ. eigenvalues --   -0.69131  -0.68918  -0.67984  -0.67739  -0.67173
 Alpha  occ. eigenvalues --   -0.66461  -0.66104  -0.65308  -0.65194  -0.64312
 Alpha  occ. eigenvalues --   -0.63801  -0.62294  -0.62185  -0.61709  -0.61280
 Alpha  occ. eigenvalues --   -0.60417  -0.60067  -0.59797  -0.59130  -0.58299
 Alpha  occ. eigenvalues --   -0.57981  -0.57593  -0.57226  -0.55847  -0.54678
 Alpha  occ. eigenvalues --   -0.53919  -0.53346  -0.52430  -0.52313  -0.51632
 Alpha  occ. eigenvalues --   -0.51473  -0.51167  -0.50990  -0.50480  -0.49941
 Alpha  occ. eigenvalues --   -0.49831  -0.49652  -0.48875  -0.48744  -0.46223
 Alpha  occ. eigenvalues --   -0.46161  -0.45692  -0.45536  -0.45355  -0.44349
 Alpha  occ. eigenvalues --   -0.43853  -0.43434  -0.42963  -0.42812  -0.42449
 Alpha  occ. eigenvalues --   -0.42250  -0.41660  -0.41354  -0.41154  -0.40773
 Alpha  occ. eigenvalues --   -0.40694  -0.40449  -0.40355  -0.40040  -0.40018
 Alpha  occ. eigenvalues --   -0.39939  -0.39635  -0.39527  -0.39088  -0.38736
 Alpha  occ. eigenvalues --   -0.38676  -0.38541  -0.38481  -0.38152  -0.37973
 Alpha  occ. eigenvalues --   -0.37727  -0.37497  -0.37425  -0.37322  -0.37202
 Alpha  occ. eigenvalues --   -0.36864  -0.36794  -0.36605  -0.36460  -0.36442
 Alpha  occ. eigenvalues --   -0.36274  -0.36036  -0.35793  -0.35712  -0.35522
 Alpha  occ. eigenvalues --   -0.35405  -0.34963  -0.34845  -0.34717  -0.34616
 Alpha  occ. eigenvalues --   -0.34365  -0.34255  -0.34245  -0.33953  -0.33926
 Alpha  occ. eigenvalues --   -0.33797  -0.33719  -0.33524  -0.33416  -0.33243
 Alpha  occ. eigenvalues --   -0.33095  -0.32826  -0.32684  -0.32518  -0.32354
 Alpha  occ. eigenvalues --   -0.32230  -0.32159  -0.31897  -0.31795  -0.31469
 Alpha  occ. eigenvalues --   -0.31277  -0.31132  -0.30895  -0.30867  -0.30724
 Alpha  occ. eigenvalues --   -0.30535  -0.30376  -0.30348  -0.30071  -0.29861
 Alpha  occ. eigenvalues --   -0.29833  -0.29697  -0.29599  -0.29372  -0.29057
 Alpha  occ. eigenvalues --   -0.28790  -0.28560  -0.28529  -0.28013  -0.27964
 Alpha  occ. eigenvalues --   -0.27798  -0.27655  -0.27018  -0.26734  -0.26583
 Alpha  occ. eigenvalues --   -0.26332  -0.26280  -0.25648  -0.25606  -0.25200
 Alpha  occ. eigenvalues --   -0.24825  -0.24385  -0.24279  -0.23903  -0.23673
 Alpha  occ. eigenvalues --   -0.22912  -0.22365  -0.21742  -0.21234  -0.20548
 Alpha  occ. eigenvalues --   -0.20488  -0.19968  -0.19127  -0.18596  -0.17700
 Alpha  occ. eigenvalues --   -0.15591
 Alpha virt. eigenvalues --   -0.11552  -0.07347  -0.06588  -0.05124  -0.04660
 Alpha virt. eigenvalues --   -0.03086  -0.02626  -0.02305  -0.02004  -0.00439
 Alpha virt. eigenvalues --    0.00574   0.01533   0.02473   0.02935   0.03192

 Mulliken charges:
               1
     1  Mg   0.698121
     2  C   -0.029876
     3  C   -0.083906
     4  C   -0.044253
     5  C   -0.058526
     6  N   -0.191313
     7  C   -0.064980
     8  C   -0.022097
     9  C    0.022528
    10  C   -0.066665
    11  C    0.135392
    12  C    0.116668
    13  C    0.169163
    14  C    0.077663
    15  O   -0.195571
    16  O   -0.310772
    17  N   -0.291158
    18  C    0.223090
    19  C   -0.143890
    20  C    0.004349
    21  C    0.120213
    22  C    0.199551
    23  C   -0.062679
    24  O   -0.169027
    25  C    0.148768
    26  N   -0.249967
    27  C   -0.039843
    28  C    0.073235
    29  C    0.032994
    30  C    0.035630
    31  C    0.125108
    32  C    0.066907
    33  C    0.037721
    34  N   -0.280674
    35  C    0.089938
    36  C   -0.165003
    37  C    0.082776
    38  C    0.107269
    39  C    0.143960
    40  C   -0.036893
    41  O   -0.118190
    42  C    0.100087
    43  C    0.088227
    44  O   -0.199309
    45  O   -0.245096
    46  C    0.213736
    47  C    0.331402
    48  C   -0.057548
    49  C   -0.155901
    50  C    0.117562
    51  C    0.141140
    52  C    0.047507
    53  C    0.118735
    54  C   -0.056903
    55  C    0.103324
    56  C    0.056416
    57  C    0.069010
    58  C    0.131784
    59  C   -0.076163
    60  C    0.085617
    61  C    0.125475
    62  C    0.097019
    63  C    0.059871
    64  C   -0.096933
    65  C    0.113452
    66  C    0.116217
    67  H   -0.063390
    68  H   -0.067216
    69  H   -0.050395
    70  H   -0.019378
    71  H   -0.024360
    72  H   -0.013458
    73  H    0.002844
    74  H   -0.010849
    75  H   -0.016190
    76  H   -0.022284
    77  H    0.012540
    78  H   -0.001953
    79  H    0.002586
    80  H   -0.007457
    81  H   -0.017116
    82  H    0.004936
    83  H    0.031396
    84  H   -0.023788
    85  H   -0.018674
    86  H   -0.028255
    87  H    0.005959
    88  H    0.006434
    89  H   -0.009911
    90  H   -0.015444
    91  H   -0.022415
    92  H   -0.000993
    93  H   -0.009499
    94  H    0.001957
    95  H   -0.000775
    96  H    0.004756
    97  H   -0.005816
    98  H   -0.005167
    99  H    0.017907
   100  H    0.016572
   101  H    0.026156
   102  H   -0.022912
   103  H    0.010806
   104  H   -0.037966
   105  H    0.012394
   106  H   -0.013424
   107  H   -0.007010
   108  H   -0.045939
   109  H   -0.013492
   110  H   -0.042684
   111  H   -0.003559
   112  H   -0.031042
   113  H   -0.027377
   114  H   -0.043509
   115  H   -0.021328
   116  H   -0.015175
   117  H   -0.038892
   118  H   -0.033819
   119  H   -0.029464
   120  H   -0.029520
   121  H   -0.018421
   122  H   -0.037375
   123  H   -0.039394
   124  H   -0.039431
   125  H   -0.017934
   126  H   -0.011127
   127  H   -0.024849
   128  H   -0.033208
   129  H   -0.051264
   130  H   -0.041903
   131  H   -0.023030
   132  H   -0.036498
   133  H   -0.035242
   134  H   -0.036239
   135  H   -0.022155
   136  H   -0.028651
   137  H   -0.026085
   138  H   -0.010733
   139  H   -0.009556
   140  H   -0.016743
 Sum of Mulliken charges =  -0.00000

 Dipole moment (field-independent basis, Debye):
    X=              2.0666    Y=              4.6929    Z=              1.3098  Tot=              5.2925
 Quadrupole moment (field-independent basis, Debye-Ang):
   XX=           -360.1765   YY=           -432.7338   ZZ=           -419.1120
   XY=              9.9263   XZ=              4.9500   YZ=             35.1301

 Normal termination of Gaussian 16 at Fri Apr 29 01:22:00 2022.
