 Gaussian 16, Revision A.03,
 Gaussian 16:  ES64L-G16RevA.03 25-Dec-2016

 -----------------------------------
 #p cam-b3lyp/Def2SVP td=(nstates=5)
 -----------------------------------

 --------------------------------------------------------
 step_1801_chromophore_14 TDDFT with cam-b3lyp functional
 --------------------------------------------------------
 Symbolic Z-matrix:
 Charge =  0 Multiplicity = 1

                         Standard orientation:
 ---------------------------------------------------------------------
 Center     Atomic      Atomic             Coordinates (Angstroms)
 Number     Number       Type             X           Y           Z
 ---------------------------------------------------------------------
      1         12           0        5.332511    0.752382   -0.297926
      2          6           0        4.290060   -2.538765    0.536217
      3          6           0        3.714540    0.450112   -3.229712
      4          6           0        5.303425    4.261182   -0.591518
      5          6           0        6.075749    1.210956    3.233299
      6          7           0        3.883179   -0.759900   -1.147503
      7          6           0        3.865732   -2.099128   -0.741594
      8          6           0        3.011013   -2.956687   -1.669475
      9          6           0        3.131604   -2.130167   -2.977151
     10          6           0        3.599832   -0.716811   -2.426829
     11          6           0        3.962935   -2.762327   -4.124482
     12          6           0        1.561382   -3.103726   -1.104720
     13          6           0        0.926879   -4.508858   -1.012209
     14          6           0       -0.524130   -4.570055   -1.467554
     15          8           0       -0.983904   -5.001295   -2.526551
     16          8           0       -1.320239   -4.103525   -0.418018
     17          7           0        4.783166    2.076485   -1.848097
     18          6           0        4.196416    1.689532   -2.992422
     19          6           0        4.318387    2.797050   -3.900349
     20          6           0        4.809582    3.895175   -3.166207
     21          6           0        4.999288    3.435619   -1.781629
     22          6           0        4.035810    2.714067   -5.364483
     23          6           0        5.134617    5.344981   -3.745062
     24          8           0        4.818435    5.632914   -4.899730
     25          6           0        5.792356    6.391397   -2.914224
     26          7           0        5.545725    2.415642    1.111504
     27          6           0        5.388203    3.792849    0.745626
     28          6           0        5.604665    4.733797    1.904995
     29          6           0        5.896601    3.810792    3.097081
     30          6           0        5.851953    2.377696    2.457131
     31          6           0        6.635581    5.933464    1.592738
     32          6           0        4.991067    3.925281    4.362224
     33          6           0        5.656372    4.717440    5.577159
     34          7           0        5.485673   -0.409914    1.452812
     35          6           0        5.806446   -0.099587    2.753149
     36          6           0        5.877479   -1.386371    3.516538
     37          6           0        5.292848   -2.351882    2.676607
     38          6           0        4.996521   -1.717228    1.440879
     39          6           0        6.617255   -1.578917    4.867429
     40          6           0        4.909349   -3.759813    2.597888
     41          8           0        4.894875   -4.628413    3.446581
     42          6           0        4.123294   -3.903539    1.228149
     43          6           0        4.836298   -5.021632    0.503797
     44          8           0        4.292561   -6.080626    0.168058
     45          8           0        6.093072   -4.721157    0.184867
     46          6           0        6.887980   -5.736034   -0.512817
     47          6           0       -2.810529   -4.015071   -0.654001
     48          6           0       -3.200037   -2.605933   -0.216786
     49          6           0       -3.656875   -1.583089   -0.965483
     50          6           0       -3.988309   -1.699173   -2.478211
     51          6           0       -4.182543   -0.338006   -0.238953
     52          6           0       -5.659992   -0.212503    0.057815
     53          6           0       -5.922347    0.720548    1.308531
     54          6           0       -7.022807    1.749810    0.955460
     55          6           0       -6.700749    3.131726    1.554637
     56          6           0       -8.475175    1.371829    1.376001
     57          6           0       -9.159350    0.430330    0.330334
     58          6           0      -10.185609   -0.385597    1.195632
     59          6           0      -11.623049    0.174303    1.102271
     60          6           0      -12.411475    0.027393    2.498853
     61          6           0      -12.462683   -0.459922   -0.019868
     62          6           0      -13.356871    0.550329   -0.740694
     63          6           0      -14.849888    0.325999   -0.377528
     64          6           0      -15.676504    1.651196   -0.388392
     65          6           0      -15.531747    2.370018    0.886630
     66          6           0      -17.162400    1.296074   -0.634289
     67          1           0        3.268023    0.176370   -4.187360
     68          1           0        5.290370    5.353048   -0.595434
     69          1           0        6.197121    1.305059    4.314209
     70          1           0        3.370064   -3.976006   -1.812114
     71          1           0        2.162147   -1.904901   -3.421451
     72          1           0        4.627329   -2.039377   -4.597440
     73          1           0        3.310224   -3.194239   -4.883428
     74          1           0        4.596904   -3.554422   -3.723612
     75          1           0        0.945490   -2.312122   -1.533555
     76          1           0        1.712625   -2.757217   -0.081931
     77          1           0        1.007745   -4.858908    0.016864
     78          1           0        1.550005   -5.165325   -1.619123
     79          1           0        4.708063    3.376015   -5.911211
     80          1           0        3.065688    3.139465   -5.618308
     81          1           0        4.029860    1.671548   -5.683798
     82          1           0        6.776007    6.008882   -2.644398
     83          1           0        5.174401    6.835082   -2.133651
     84          1           0        6.069868    7.263543   -3.506227
     85          1           0        4.591246    5.128823    1.981353
     86          1           0        6.882352    4.017922    3.513334
     87          1           0        7.238459    5.653211    0.729702
     88          1           0        7.160524    6.293768    2.478011
     89          1           0        6.018484    6.759536    1.238973
     90          1           0        4.779690    2.932837    4.759610
     91          1           0        4.048699    4.405994    4.096114
     92          1           0        6.366181    4.156687    6.186226
     93          1           0        4.854615    4.900936    6.292631
     94          1           0        6.079038    5.634618    5.165091
     95          1           0        7.679045   -1.349327    4.781341
     96          1           0        6.555568   -2.619345    5.187664
     97          1           0        6.275899   -0.977303    5.709340
     98          1           0        3.058352   -4.124203    1.297166
     99          1           0        7.313556   -6.285550    0.326706
    100          1           0        7.662277   -5.256828   -1.112485
    101          1           0        6.431650   -6.485721   -1.159070
    102          1           0       -3.135559   -4.773916    0.057629
    103          1           0       -3.255762   -4.350802   -1.590347
    104          1           0       -3.287129   -2.409303    0.852294
    105          1           0       -5.031848   -1.569651   -2.767456
    106          1           0       -3.637852   -2.662118   -2.848538
    107          1           0       -3.377051   -0.982151   -3.025535
    108          1           0       -4.052754    0.434168   -0.996030
    109          1           0       -3.548302   -0.108621    0.617790
    110          1           0       -5.925391   -1.225357    0.359775
    111          1           0       -6.359215    0.024378   -0.743472
    112          1           0       -5.022670    1.291567    1.540975
    113          1           0       -6.099655    0.075591    2.169255
    114          1           0       -6.959240    1.862884   -0.127414
    115          1           0       -5.941316    3.687908    1.005227
    116          1           0       -6.559391    3.150451    2.634739
    117          1           0       -7.585291    3.746542    1.386520
    118          1           0       -9.146942    2.227173    1.457234
    119          1           0       -8.390451    0.961782    2.382304
    120          1           0       -8.396246   -0.207172   -0.118341
    121          1           0       -9.593360    1.097458   -0.413973
    122          1           0       -9.876357   -0.334679    2.239548
    123          1           0      -10.108482   -1.422142    0.867621
    124          1           0      -11.552536    1.251090    0.949738
    125          1           0      -12.458291    0.975989    3.033566
    126          1           0      -11.995454   -0.746669    3.144228
    127          1           0      -13.469479   -0.176352    2.334610
    128          1           0      -12.953764   -1.321013    0.434099
    129          1           0      -11.822355   -0.942298   -0.757726
    130          1           0      -13.336218    0.305592   -1.803099
    131          1           0      -13.121967    1.614277   -0.726014
    132          1           0      -14.871140   -0.118400    0.617019
    133          1           0      -15.286752   -0.437779   -1.021034
    134          1           0      -15.245584    2.298093   -1.152331
    135          1           0      -15.602340    3.454031    0.802354
    136          1           0      -14.588018    2.206769    1.407651
    137          1           0      -16.320590    2.017478    1.552229
    138          1           0      -17.339246    0.237748   -0.440641
    139          1           0      -17.186500    1.545886   -1.695206
    140          1           0      -17.880515    1.860340   -0.039130
 ---------------------------------------------------------------------

 SCF Done:  E(RCAM-B3LYP) =  -3007.14708241     A.U. after   18 cycles

 Excitation energies and oscillator strengths:

 Excited State   1:      Singlet-A      1.6452 eV  753.63 nm  f=0.3575  <S**2>=0.000
     245 -> 248       -0.17214
     246 -> 247        0.68554
     245 <- 248       -0.10763
 This state for optimization and/or second-order correction.
 Total Energy, E(TD-HF/TD-DFT) =  -3007.08662358
 Copying the excited state density for this state as the 1-particle RhoCI density.

 Excited State   2:      Singlet-A      2.2880 eV  541.88 nm  f=0.0384  <S**2>=0.000
     245 -> 247        0.58778
     246 -> 248        0.37617

 Excited State   3:      Singlet-A      3.2132 eV  385.86 nm  f=0.0544  <S**2>=0.000
     243 -> 247        0.11803
     244 -> 247        0.62182
     245 -> 247        0.10023
     246 -> 248       -0.25886

 Excited State   4:      Singlet-A      3.3525 eV  369.82 nm  f=0.1729  <S**2>=0.000
     243 -> 247        0.21299
     244 -> 247       -0.20430
     245 -> 247        0.18922
     246 -> 248       -0.29991
     246 -> 249        0.42309
     246 -> 250        0.30638

 Excited State   5:      Singlet-A      3.3891 eV  365.84 nm  f=0.1912  <S**2>=0.000
     243 -> 247       -0.30638
     244 -> 247        0.19987
     245 -> 247       -0.18981
     246 -> 248        0.31018
     246 -> 249        0.31401
     246 -> 250        0.35368

 The electronic state is 1-A.
 Alpha  occ. eigenvalues --  -46.90305 -19.26168 -19.23819 -19.19691 -19.19319
 Alpha  occ. eigenvalues --  -19.19269 -19.19079 -14.42930 -14.42255 -14.39887
 Alpha  occ. eigenvalues --  -14.39602 -10.39500 -10.38980 -10.35821 -10.35638
 Alpha  occ. eigenvalues --  -10.32469 -10.31835 -10.31829 -10.31729 -10.31559
 Alpha  occ. eigenvalues --  -10.31308 -10.31127 -10.30446 -10.29528 -10.29181
 Alpha  occ. eigenvalues --  -10.29054 -10.28790 -10.28568 -10.28545 -10.28385
 Alpha  occ. eigenvalues --  -10.28120 -10.28086 -10.27854 -10.27842 -10.27489
 Alpha  occ. eigenvalues --  -10.27484 -10.27224 -10.27169 -10.27156 -10.27036
 Alpha  occ. eigenvalues --  -10.26893 -10.26834 -10.26519 -10.26486 -10.26316
 Alpha  occ. eigenvalues --  -10.26302 -10.25884 -10.25719 -10.25639 -10.25636
 Alpha  occ. eigenvalues --  -10.25483 -10.25481 -10.25317 -10.25250 -10.25170
 Alpha  occ. eigenvalues --  -10.25017 -10.24979 -10.24598 -10.24572 -10.24566
 Alpha  occ. eigenvalues --  -10.24430 -10.24380 -10.24314 -10.24150 -10.24050
 Alpha  occ. eigenvalues --  -10.23627  -3.18626  -1.93471  -1.93121  -1.92897
 Alpha  occ. eigenvalues --   -1.17715  -1.13905  -1.10717  -1.09839  -1.07043
 Alpha  occ. eigenvalues --   -1.06019  -1.04930  -1.03601  -1.02625  -1.01395
 Alpha  occ. eigenvalues --   -0.92817  -0.90284  -0.89746  -0.89592  -0.88701
 Alpha  occ. eigenvalues --   -0.88604  -0.88482  -0.87334  -0.87182  -0.85959
 Alpha  occ. eigenvalues --   -0.85621  -0.85285  -0.84205  -0.83860  -0.83377
 Alpha  occ. eigenvalues --   -0.82552  -0.82209  -0.81200  -0.81002  -0.80114
 Alpha  occ. eigenvalues --   -0.79532  -0.77881  -0.77746  -0.77320  -0.76808
 Alpha  occ. eigenvalues --   -0.75737  -0.75424  -0.75139  -0.74402  -0.73439
 Alpha  occ. eigenvalues --   -0.73005  -0.72548  -0.72159  -0.70686  -0.69255
 Alpha  occ. eigenvalues --   -0.68474  -0.67859  -0.66946  -0.66659  -0.65712
 Alpha  occ. eigenvalues --   -0.65667  -0.65425  -0.64937  -0.64452  -0.63831
 Alpha  occ. eigenvalues --   -0.63639  -0.63639  -0.62642  -0.62569  -0.59890
 Alpha  occ. eigenvalues --   -0.59812  -0.59098  -0.58901  -0.58825  -0.57880
 Alpha  occ. eigenvalues --   -0.57498  -0.56696  -0.56203  -0.56021  -0.55531
 Alpha  occ. eigenvalues --   -0.55236  -0.54775  -0.54090  -0.53876  -0.53551
 Alpha  occ. eigenvalues --   -0.53435  -0.53171  -0.53147  -0.52920  -0.52730
 Alpha  occ. eigenvalues --   -0.52640  -0.52437  -0.52215  -0.51802  -0.51636
 Alpha  occ. eigenvalues --   -0.51296  -0.50989  -0.50835  -0.50671  -0.50503
 Alpha  occ. eigenvalues --   -0.50138  -0.49989  -0.49796  -0.49674  -0.49584
 Alpha  occ. eigenvalues --   -0.49530  -0.49305  -0.48987  -0.48751  -0.48573
 Alpha  occ. eigenvalues --   -0.48488  -0.48371  -0.47716  -0.47660  -0.47554
 Alpha  occ. eigenvalues --   -0.47262  -0.47100  -0.46885  -0.46770  -0.46463
 Alpha  occ. eigenvalues --   -0.46284  -0.46028  -0.45965  -0.45878  -0.45730
 Alpha  occ. eigenvalues --   -0.45676  -0.45621  -0.45311  -0.45156  -0.44993
 Alpha  occ. eigenvalues --   -0.44763  -0.44363  -0.44260  -0.44089  -0.43883
 Alpha  occ. eigenvalues --   -0.43770  -0.43706  -0.43535  -0.43264  -0.43034
 Alpha  occ. eigenvalues --   -0.42884  -0.42648  -0.42612  -0.42571  -0.42311
 Alpha  occ. eigenvalues --   -0.42230  -0.41969  -0.41789  -0.41456  -0.41126
 Alpha  occ. eigenvalues --   -0.40991  -0.40824  -0.40703  -0.40336  -0.40172
 Alpha  occ. eigenvalues --   -0.39862  -0.39704  -0.39549  -0.39036  -0.38917
 Alpha  occ. eigenvalues --   -0.38604  -0.38510  -0.37817  -0.37489  -0.37466
 Alpha  occ. eigenvalues --   -0.37283  -0.37014  -0.36726  -0.36581  -0.36356
 Alpha  occ. eigenvalues --   -0.35380  -0.35135  -0.34918  -0.34862  -0.34068
 Alpha  occ. eigenvalues --   -0.33597  -0.33286  -0.33229  -0.31373  -0.31237
 Alpha  occ. eigenvalues --   -0.31016  -0.30477  -0.29707  -0.29253  -0.24752
 Alpha  occ. eigenvalues --   -0.20699
 Alpha virt. eigenvalues --   -0.08514  -0.02307  -0.00160   0.00493   0.01929
 Alpha virt. eigenvalues --    0.04378   0.04713   0.05460   0.05727   0.06989
 Alpha virt. eigenvalues --    0.07450   0.08206   0.08810   0.09178   0.09346

 Mulliken charges:
               1
     1  Mg   0.825679
     2  C   -0.050534
     3  C   -0.093450
     4  C   -0.073771
     5  C   -0.073653
     6  N   -0.249732
     7  C   -0.032714
     8  C   -0.071552
     9  C   -0.031104
    10  C   -0.045576
    11  C    0.078058
    12  C    0.064774
    13  C    0.096709
    14  C    0.161744
    15  O   -0.238165
    16  O   -0.375224
    17  N   -0.380305
    18  C    0.222115
    19  C   -0.144476
    20  C   -0.063523
    21  C    0.152375
    22  C    0.142558
    23  C    0.017438
    24  O   -0.207750
    25  C    0.058568
    26  N   -0.322983
    27  C    0.000799
    28  C    0.006133
    29  C   -0.021545
    30  C    0.060921
    31  C    0.065591
    32  C    0.012213
    33  C   -0.018814
    34  N   -0.365185
    35  C    0.098128
    36  C   -0.160820
    37  C    0.003383
    38  C    0.136961
    39  C    0.093902
    40  C    0.060223
    41  O   -0.153774
    42  C    0.024678
    43  C    0.175792
    44  O   -0.239763
    45  O   -0.306101
    46  C    0.173234
    47  C    0.293619
    48  C   -0.081498
    49  C   -0.174695
    50  C    0.059065
    51  C    0.080121
    52  C   -0.004956
    53  C    0.065960
    54  C   -0.118911
    55  C    0.044208
    56  C    0.011348
    57  C    0.016128
    58  C    0.071947
    59  C   -0.126741
    60  C    0.031169
    61  C    0.067139
    62  C    0.035657
    63  C    0.014108
    64  C   -0.155189
    65  C    0.054697
    66  C    0.052583
    67  H   -0.026529
    68  H   -0.033631
    69  H   -0.018463
    70  H    0.013167
    71  H    0.011023
    72  H    0.011776
    73  H    0.027975
    74  H    0.013347
    75  H    0.014893
    76  H    0.010276
    77  H    0.044177
    78  H    0.030709
    79  H    0.032658
    80  H    0.022584
    81  H    0.007773
    82  H    0.034046
    83  H    0.057806
    84  H    0.014043
    85  H    0.017026
    86  H    0.007698
    87  H    0.030876
    88  H    0.030634
    89  H    0.012983
    90  H    0.014224
    91  H    0.005921
    92  H    0.021188
    93  H    0.015318
    94  H    0.020442
    95  H    0.024116
    96  H    0.031021
    97  H    0.017555
    98  H    0.035681
    99  H    0.040988
   100  H    0.039342
   101  H    0.051262
   102  H    0.009376
   103  H    0.042673
   104  H   -0.004722
   105  H    0.034959
   106  H    0.010443
   107  H    0.017625
   108  H   -0.016740
   109  H    0.017033
   110  H   -0.013697
   111  H    0.018640
   112  H   -0.001009
   113  H    0.001228
   114  H   -0.010608
   115  H    0.004524
   116  H    0.008979
   117  H   -0.013219
   118  H   -0.006019
   119  H   -0.003453
   120  H   -0.002898
   121  H    0.008438
   122  H   -0.007097
   123  H   -0.009513
   124  H   -0.010118
   125  H    0.005494
   126  H    0.013161
   127  H   -0.003841
   128  H   -0.003084
   129  H   -0.019332
   130  H   -0.010446
   131  H    0.004241
   132  H   -0.012322
   133  H   -0.005633
   134  H   -0.005485
   135  H    0.003824
   136  H   -0.007087
   137  H   -0.001692
   138  H    0.013194
   139  H    0.014387
   140  H    0.008671
 Sum of Mulliken charges =  -0.00000

 Dipole moment (field-independent basis, Debye):
    X=              2.2478    Y=              5.0812    Z=              0.9225  Tot=              5.6322
 Quadrupole moment (field-independent basis, Debye-Ang):
   XX=           -359.1505   YY=           -429.3855   ZZ=           -417.3394
   XY=             11.8361   XZ=              2.4371   YZ=             35.3421

 Normal termination of Gaussian 16 at Fri Apr 29 00:19:19 2022.
