 Gaussian 16, Revision A.03,
 Gaussian 16:  ES64L-G16RevA.03 25-Dec-2016

 ---------------------------------
 #p PBE1PBE/Def2SVP td=(nstates=5)
 ---------------------------------

 ------------------------------------------------------
 step_1801_chromophore_14 TDDFT with PBE1PBE functional
 ------------------------------------------------------
 Symbolic Z-matrix:
 Charge =  0 Multiplicity = 1

                         Standard orientation:
 ---------------------------------------------------------------------
 Center     Atomic      Atomic             Coordinates (Angstroms)
 Number     Number       Type             X           Y           Z
 ---------------------------------------------------------------------
      1         12           0        5.332511    0.752382   -0.297926
      2          6           0        4.290060   -2.538765    0.536217
      3          6           0        3.714540    0.450112   -3.229712
      4          6           0        5.303425    4.261182   -0.591518
      5          6           0        6.075749    1.210956    3.233299
      6          7           0        3.883179   -0.759900   -1.147503
      7          6           0        3.865732   -2.099128   -0.741594
      8          6           0        3.011013   -2.956687   -1.669475
      9          6           0        3.131604   -2.130167   -2.977151
     10          6           0        3.599832   -0.716811   -2.426829
     11          6           0        3.962935   -2.762327   -4.124482
     12          6           0        1.561382   -3.103726   -1.104720
     13          6           0        0.926879   -4.508858   -1.012209
     14          6           0       -0.524130   -4.570055   -1.467554
     15          8           0       -0.983904   -5.001295   -2.526551
     16          8           0       -1.320239   -4.103525   -0.418018
     17          7           0        4.783166    2.076485   -1.848097
     18          6           0        4.196416    1.689532   -2.992422
     19          6           0        4.318387    2.797050   -3.900349
     20          6           0        4.809582    3.895175   -3.166207
     21          6           0        4.999288    3.435619   -1.781629
     22          6           0        4.035810    2.714067   -5.364483
     23          6           0        5.134617    5.344981   -3.745062
     24          8           0        4.818435    5.632914   -4.899730
     25          6           0        5.792356    6.391397   -2.914224
     26          7           0        5.545725    2.415642    1.111504
     27          6           0        5.388203    3.792849    0.745626
     28          6           0        5.604665    4.733797    1.904995
     29          6           0        5.896601    3.810792    3.097081
     30          6           0        5.851953    2.377696    2.457131
     31          6           0        6.635581    5.933464    1.592738
     32          6           0        4.991067    3.925281    4.362224
     33          6           0        5.656372    4.717440    5.577159
     34          7           0        5.485673   -0.409914    1.452812
     35          6           0        5.806446   -0.099587    2.753149
     36          6           0        5.877479   -1.386371    3.516538
     37          6           0        5.292848   -2.351882    2.676607
     38          6           0        4.996521   -1.717228    1.440879
     39          6           0        6.617255   -1.578917    4.867429
     40          6           0        4.909349   -3.759813    2.597888
     41          8           0        4.894875   -4.628413    3.446581
     42          6           0        4.123294   -3.903539    1.228149
     43          6           0        4.836298   -5.021632    0.503797
     44          8           0        4.292561   -6.080626    0.168058
     45          8           0        6.093072   -4.721157    0.184867
     46          6           0        6.887980   -5.736034   -0.512817
     47          6           0       -2.810529   -4.015071   -0.654001
     48          6           0       -3.200037   -2.605933   -0.216786
     49          6           0       -3.656875   -1.583089   -0.965483
     50          6           0       -3.988309   -1.699173   -2.478211
     51          6           0       -4.182543   -0.338006   -0.238953
     52          6           0       -5.659992   -0.212503    0.057815
     53          6           0       -5.922347    0.720548    1.308531
     54          6           0       -7.022807    1.749810    0.955460
     55          6           0       -6.700749    3.131726    1.554637
     56          6           0       -8.475175    1.371829    1.376001
     57          6           0       -9.159350    0.430330    0.330334
     58          6           0      -10.185609   -0.385597    1.195632
     59          6           0      -11.623049    0.174303    1.102271
     60          6           0      -12.411475    0.027393    2.498853
     61          6           0      -12.462683   -0.459922   -0.019868
     62          6           0      -13.356871    0.550329   -0.740694
     63          6           0      -14.849888    0.325999   -0.377528
     64          6           0      -15.676504    1.651196   -0.388392
     65          6           0      -15.531747    2.370018    0.886630
     66          6           0      -17.162400    1.296074   -0.634289
     67          1           0        3.268023    0.176370   -4.187360
     68          1           0        5.290370    5.353048   -0.595434
     69          1           0        6.197121    1.305059    4.314209
     70          1           0        3.370064   -3.976006   -1.812114
     71          1           0        2.162147   -1.904901   -3.421451
     72          1           0        4.627329   -2.039377   -4.597440
     73          1           0        3.310224   -3.194239   -4.883428
     74          1           0        4.596904   -3.554422   -3.723612
     75          1           0        0.945490   -2.312122   -1.533555
     76          1           0        1.712625   -2.757217   -0.081931
     77          1           0        1.007745   -4.858908    0.016864
     78          1           0        1.550005   -5.165325   -1.619123
     79          1           0        4.708063    3.376015   -5.911211
     80          1           0        3.065688    3.139465   -5.618308
     81          1           0        4.029860    1.671548   -5.683798
     82          1           0        6.776007    6.008882   -2.644398
     83          1           0        5.174401    6.835082   -2.133651
     84          1           0        6.069868    7.263543   -3.506227
     85          1           0        4.591246    5.128823    1.981353
     86          1           0        6.882352    4.017922    3.513334
     87          1           0        7.238459    5.653211    0.729702
     88          1           0        7.160524    6.293768    2.478011
     89          1           0        6.018484    6.759536    1.238973
     90          1           0        4.779690    2.932837    4.759610
     91          1           0        4.048699    4.405994    4.096114
     92          1           0        6.366181    4.156687    6.186226
     93          1           0        4.854615    4.900936    6.292631
     94          1           0        6.079038    5.634618    5.165091
     95          1           0        7.679045   -1.349327    4.781341
     96          1           0        6.555568   -2.619345    5.187664
     97          1           0        6.275899   -0.977303    5.709340
     98          1           0        3.058352   -4.124203    1.297166
     99          1           0        7.313556   -6.285550    0.326706
    100          1           0        7.662277   -5.256828   -1.112485
    101          1           0        6.431650   -6.485721   -1.159070
    102          1           0       -3.135559   -4.773916    0.057629
    103          1           0       -3.255762   -4.350802   -1.590347
    104          1           0       -3.287129   -2.409303    0.852294
    105          1           0       -5.031848   -1.569651   -2.767456
    106          1           0       -3.637852   -2.662118   -2.848538
    107          1           0       -3.377051   -0.982151   -3.025535
    108          1           0       -4.052754    0.434168   -0.996030
    109          1           0       -3.548302   -0.108621    0.617790
    110          1           0       -5.925391   -1.225357    0.359775
    111          1           0       -6.359215    0.024378   -0.743472
    112          1           0       -5.022670    1.291567    1.540975
    113          1           0       -6.099655    0.075591    2.169255
    114          1           0       -6.959240    1.862884   -0.127414
    115          1           0       -5.941316    3.687908    1.005227
    116          1           0       -6.559391    3.150451    2.634739
    117          1           0       -7.585291    3.746542    1.386520
    118          1           0       -9.146942    2.227173    1.457234
    119          1           0       -8.390451    0.961782    2.382304
    120          1           0       -8.396246   -0.207172   -0.118341
    121          1           0       -9.593360    1.097458   -0.413973
    122          1           0       -9.876357   -0.334679    2.239548
    123          1           0      -10.108482   -1.422142    0.867621
    124          1           0      -11.552536    1.251090    0.949738
    125          1           0      -12.458291    0.975989    3.033566
    126          1           0      -11.995454   -0.746669    3.144228
    127          1           0      -13.469479   -0.176352    2.334610
    128          1           0      -12.953764   -1.321013    0.434099
    129          1           0      -11.822355   -0.942298   -0.757726
    130          1           0      -13.336218    0.305592   -1.803099
    131          1           0      -13.121967    1.614277   -0.726014
    132          1           0      -14.871140   -0.118400    0.617019
    133          1           0      -15.286752   -0.437779   -1.021034
    134          1           0      -15.245584    2.298093   -1.152331
    135          1           0      -15.602340    3.454031    0.802354
    136          1           0      -14.588018    2.206769    1.407651
    137          1           0      -16.320590    2.017478    1.552229
    138          1           0      -17.339246    0.237748   -0.440641
    139          1           0      -17.186500    1.545886   -1.695206
    140          1           0      -17.880515    1.860340   -0.039130
 ---------------------------------------------------------------------

 SCF Done:  E(RPBE1PBE) =  -3005.33578642     A.U. after   15 cycles

 Excitation energies and oscillator strengths:

 Excited State   1:      Singlet-A      1.8011 eV  688.40 nm  f=0.3493  <S**2>=0.000
     245 -> 248       -0.16544
     246 -> 247        0.69461
     246 <- 247       -0.11613
 This state for optimization and/or second-order correction.
 Total Energy, E(TD-HF/TD-DFT) =  -3005.26959864
 Copying the excited state density for this state as the 1-particle RhoCI density.

 Excited State   2:      Singlet-A      2.2794 eV  543.93 nm  f=0.0435  <S**2>=0.000
     245 -> 247        0.60953
     246 -> 248        0.34020

 Excited State   3:      Singlet-A      2.8540 eV  434.42 nm  f=0.0002  <S**2>=0.000
     244 -> 247        0.68679
     246 -> 248       -0.13513

 Excited State   4:      Singlet-A      3.0597 eV  405.21 nm  f=0.0393  <S**2>=0.000
     241 -> 247        0.15771
     243 -> 247        0.58451
     245 -> 247        0.10340
     246 -> 248       -0.28552

 Excited State   5:      Singlet-A      3.1991 eV  387.56 nm  f=0.0048  <S**2>=0.000
     239 -> 247        0.10462
     240 -> 247       -0.25519
     240 -> 249       -0.10654
     241 -> 247        0.57066
     241 -> 249        0.11346
     243 -> 247       -0.18978

 The electronic state is 1-A.
 Alpha  occ. eigenvalues --  -46.93684 -19.26761 -19.24558 -19.19898 -19.19610
 Alpha  occ. eigenvalues --  -19.19400 -19.19342 -14.42259 -14.41957 -14.39625
 Alpha  occ. eigenvalues --  -14.39162 -10.36516 -10.36028 -10.32917 -10.32808
 Alpha  occ. eigenvalues --  -10.29670 -10.29368 -10.29363 -10.29326 -10.29233
 Alpha  occ. eigenvalues --  -10.29054 -10.28961 -10.28273 -10.27078 -10.27045
 Alpha  occ. eigenvalues --  -10.26670 -10.26539 -10.26492 -10.26360 -10.26142
 Alpha  occ. eigenvalues --  -10.25946 -10.25942 -10.25632 -10.25310 -10.25170
 Alpha  occ. eigenvalues --  -10.25002 -10.24784 -10.24725 -10.24725 -10.24684
 Alpha  occ. eigenvalues --  -10.24561 -10.24545 -10.23932 -10.23857 -10.23788
 Alpha  occ. eigenvalues --  -10.23748 -10.23428 -10.23343 -10.23280 -10.23261
 Alpha  occ. eigenvalues --  -10.23198 -10.23040 -10.22833 -10.22763 -10.22654
 Alpha  occ. eigenvalues --  -10.22634 -10.22539 -10.22175 -10.22157 -10.22105
 Alpha  occ. eigenvalues --  -10.21976 -10.21878 -10.21800 -10.21545 -10.21456
 Alpha  occ. eigenvalues --  -10.20963  -3.15590  -1.88371  -1.88004  -1.87781
 Alpha  occ. eigenvalues --   -1.12478  -1.08703  -1.05469  -1.04493  -1.01853
 Alpha  occ. eigenvalues --   -1.00899  -0.99480  -0.98164  -0.97353  -0.96041
 Alpha  occ. eigenvalues --   -0.87173  -0.84398  -0.83940  -0.83718  -0.82931
 Alpha  occ. eigenvalues --   -0.82820  -0.82729  -0.81486  -0.81449  -0.80168
 Alpha  occ. eigenvalues --   -0.79864  -0.79620  -0.78404  -0.78141  -0.77599
 Alpha  occ. eigenvalues --   -0.76693  -0.76384  -0.75487  -0.75354  -0.74315
 Alpha  occ. eigenvalues --   -0.73714  -0.72158  -0.72052  -0.71594  -0.71080
 Alpha  occ. eigenvalues --   -0.69892  -0.69498  -0.69461  -0.68506  -0.67641
 Alpha  occ. eigenvalues --   -0.67339  -0.66963  -0.66572  -0.64988  -0.63665
 Alpha  occ. eigenvalues --   -0.63000  -0.62072  -0.61292  -0.60873  -0.60149
 Alpha  occ. eigenvalues --   -0.59893  -0.59810  -0.59495  -0.58951  -0.58229
 Alpha  occ. eigenvalues --   -0.57948  -0.57786  -0.57105  -0.56814  -0.54411
 Alpha  occ. eigenvalues --   -0.54324  -0.53583  -0.53489  -0.53362  -0.52491
 Alpha  occ. eigenvalues --   -0.51857  -0.51180  -0.50716  -0.50501  -0.50170
 Alpha  occ. eigenvalues --   -0.49611  -0.49391  -0.48602  -0.48386  -0.48084
 Alpha  occ. eigenvalues --   -0.48020  -0.47764  -0.47576  -0.47371  -0.47236
 Alpha  occ. eigenvalues --   -0.47131  -0.46902  -0.46819  -0.46330  -0.46129
 Alpha  occ. eigenvalues --   -0.45917  -0.45505  -0.45319  -0.45252  -0.45114
 Alpha  occ. eigenvalues --   -0.44729  -0.44512  -0.44401  -0.44302  -0.44168
 Alpha  occ. eigenvalues --   -0.44097  -0.43851  -0.43645  -0.43349  -0.43195
 Alpha  occ. eigenvalues --   -0.43136  -0.43038  -0.42353  -0.42239  -0.42199
 Alpha  occ. eigenvalues --   -0.41857  -0.41683  -0.41537  -0.41480  -0.41089
 Alpha  occ. eigenvalues --   -0.40986  -0.40759  -0.40637  -0.40593  -0.40418
 Alpha  occ. eigenvalues --   -0.40246  -0.40233  -0.40019  -0.39912  -0.39666
 Alpha  occ. eigenvalues --   -0.39529  -0.39181  -0.38944  -0.38833  -0.38680
 Alpha  occ. eigenvalues --   -0.38617  -0.38354  -0.38333  -0.38019  -0.37789
 Alpha  occ. eigenvalues --   -0.37717  -0.37383  -0.37342  -0.37299  -0.37085
 Alpha  occ. eigenvalues --   -0.37011  -0.36849  -0.36604  -0.36205  -0.35973
 Alpha  occ. eigenvalues --   -0.35903  -0.35762  -0.35472  -0.35327  -0.35115
 Alpha  occ. eigenvalues --   -0.34679  -0.34599  -0.34309  -0.33965  -0.33670
 Alpha  occ. eigenvalues --   -0.33368  -0.33282  -0.32610  -0.32473  -0.32342
 Alpha  occ. eigenvalues --   -0.32301  -0.31831  -0.31721  -0.31574  -0.31272
 Alpha  occ. eigenvalues --   -0.30231  -0.30116  -0.30090  -0.29773  -0.29177
 Alpha  occ. eigenvalues --   -0.28641  -0.28406  -0.28192  -0.26883  -0.26076
 Alpha  occ. eigenvalues --   -0.26012  -0.25789  -0.25358  -0.24613  -0.21564
 Alpha  occ. eigenvalues --   -0.18417
 Alpha virt. eigenvalues --   -0.11061  -0.05755  -0.04251  -0.02566  -0.02305
 Alpha virt. eigenvalues --   -0.00108   0.00242   0.00853   0.01151   0.02637
 Alpha virt. eigenvalues --    0.03703   0.04281   0.05233   0.05857   0.06167

 Mulliken charges:
               1
     1  Mg   0.961644
     2  C   -0.060913
     3  C   -0.094447
     4  C   -0.072695
     5  C   -0.064047
     6  N   -0.346287
     7  C    0.031670
     8  C   -0.141802
     9  C   -0.105121
    10  C    0.006882
    11  C    0.021352
    12  C    0.022584
    13  C    0.016446
    14  C    0.227854
    15  O   -0.272590
    16  O   -0.399828
    17  N   -0.494080
    18  C    0.239856
    19  C   -0.173775
    20  C   -0.107969
    21  C    0.177728
    22  C    0.086837
    23  C    0.066955
    24  O   -0.241911
    25  C   -0.018467
    26  N   -0.414957
    27  C    0.041235
    28  C   -0.069532
    29  C   -0.092741
    30  C    0.094886
    31  C   -0.000729
    32  C   -0.046136
    33  C   -0.094696
    34  N   -0.481414
    35  C    0.114960
    36  C   -0.165782
    37  C   -0.052999
    38  C    0.184673
    39  C    0.038970
    40  C    0.155306
    41  O   -0.199190
    42  C   -0.094997
    43  C    0.271620
    44  O   -0.277882
    45  O   -0.336891
    46  C    0.118158
    47  C    0.247593
    48  C   -0.097528
    49  C   -0.207979
    50  C   -0.004393
    51  C    0.013154
    52  C   -0.070873
    53  C    0.022076
    54  C   -0.213010
    55  C   -0.018005
    56  C   -0.036909
    57  C   -0.050479
    58  C    0.010977
    59  C   -0.206503
    60  C   -0.030028
    61  C    0.011169
    62  C   -0.028217
    63  C   -0.039157
    64  C   -0.251850
    65  C   -0.005813
    66  C   -0.009604
    67  H    0.004796
    68  H    0.001460
    69  H    0.013347
    70  H    0.052314
    71  H    0.047752
    72  H    0.039497
    73  H    0.054765
    74  H    0.040304
    75  H    0.046685
    76  H    0.046422
    77  H    0.075744
    78  H    0.062597
    79  H    0.059737
    80  H    0.050654
    81  H    0.034108
    82  H    0.061577
    83  H    0.081350
    84  H    0.042558
    85  H    0.055477
    86  H    0.046461
    87  H    0.059243
    88  H    0.057775
    89  H    0.040674
    90  H    0.047221
    91  H    0.038529
    92  H    0.048487
    93  H    0.043986
    94  H    0.049519
    95  H    0.052470
    96  H    0.059309
    97  H    0.044616
    98  H    0.074978
    99  H    0.063363
   100  H    0.060759
   101  H    0.071493
   102  H    0.038075
   103  H    0.066582
   104  H    0.024807
   105  H    0.061219
   106  H    0.038538
   107  H    0.046027
   108  H    0.019854
   109  H    0.047393
   110  H    0.021930
   111  H    0.045791
   112  H    0.031768
   113  H    0.032139
   114  H    0.029479
   115  H    0.032891
   116  H    0.037017
   117  H    0.016101
   118  H    0.026011
   119  H    0.028147
   120  H    0.034822
   121  H    0.040854
   122  H    0.026432
   123  H    0.022737
   124  H    0.027986
   125  H    0.032701
   126  H    0.040228
   127  H    0.024966
   128  H    0.029095
   129  H    0.014054
   130  H    0.024591
   131  H    0.033962
   132  H    0.022462
   133  H    0.026715
   134  H    0.031376
   135  H    0.032145
   136  H    0.023745
   137  H    0.026216
   138  H    0.040258
   139  H    0.042626
   140  H    0.035874
 Sum of Mulliken charges =  -0.00000

 Dipole moment (field-independent basis, Debye):
    X=              2.2825    Y=              5.0866    Z=              1.2284  Tot=              5.7090
 Quadrupole moment (field-independent basis, Debye-Ang):
   XX=           -355.3569   YY=           -426.2954   ZZ=           -413.1405
   XY=             12.0592   XZ=              4.5116   YZ=             36.6329

 Normal termination of Gaussian 16 at Fri Apr 29 00:38:40 2022.
