 Gaussian 16, Revision A.03,
 Gaussian 16:  ES64L-G16RevA.03 25-Dec-2016

 --------------------------------
 #p wB97XD/Def2SVP td=(nstates=5)
 --------------------------------

 -----------------------------------------------------
 step_1801_chromophore_14 TDDFT with wB97XD functional
 -----------------------------------------------------
 Symbolic Z-matrix:
 Charge =  0 Multiplicity = 1

                         Standard orientation:
 ---------------------------------------------------------------------
 Center     Atomic      Atomic             Coordinates (Angstroms)
 Number     Number       Type             X           Y           Z
 ---------------------------------------------------------------------
      1         12           0        5.332511    0.752382   -0.297926
      2          6           0        4.290060   -2.538765    0.536217
      3          6           0        3.714540    0.450112   -3.229712
      4          6           0        5.303425    4.261182   -0.591518
      5          6           0        6.075749    1.210956    3.233299
      6          7           0        3.883179   -0.759900   -1.147503
      7          6           0        3.865732   -2.099128   -0.741594
      8          6           0        3.011013   -2.956687   -1.669475
      9          6           0        3.131604   -2.130167   -2.977151
     10          6           0        3.599832   -0.716811   -2.426829
     11          6           0        3.962935   -2.762327   -4.124482
     12          6           0        1.561382   -3.103726   -1.104720
     13          6           0        0.926879   -4.508858   -1.012209
     14          6           0       -0.524130   -4.570055   -1.467554
     15          8           0       -0.983904   -5.001295   -2.526551
     16          8           0       -1.320239   -4.103525   -0.418018
     17          7           0        4.783166    2.076485   -1.848097
     18          6           0        4.196416    1.689532   -2.992422
     19          6           0        4.318387    2.797050   -3.900349
     20          6           0        4.809582    3.895175   -3.166207
     21          6           0        4.999288    3.435619   -1.781629
     22          6           0        4.035810    2.714067   -5.364483
     23          6           0        5.134617    5.344981   -3.745062
     24          8           0        4.818435    5.632914   -4.899730
     25          6           0        5.792356    6.391397   -2.914224
     26          7           0        5.545725    2.415642    1.111504
     27          6           0        5.388203    3.792849    0.745626
     28          6           0        5.604665    4.733797    1.904995
     29          6           0        5.896601    3.810792    3.097081
     30          6           0        5.851953    2.377696    2.457131
     31          6           0        6.635581    5.933464    1.592738
     32          6           0        4.991067    3.925281    4.362224
     33          6           0        5.656372    4.717440    5.577159
     34          7           0        5.485673   -0.409914    1.452812
     35          6           0        5.806446   -0.099587    2.753149
     36          6           0        5.877479   -1.386371    3.516538
     37          6           0        5.292848   -2.351882    2.676607
     38          6           0        4.996521   -1.717228    1.440879
     39          6           0        6.617255   -1.578917    4.867429
     40          6           0        4.909349   -3.759813    2.597888
     41          8           0        4.894875   -4.628413    3.446581
     42          6           0        4.123294   -3.903539    1.228149
     43          6           0        4.836298   -5.021632    0.503797
     44          8           0        4.292561   -6.080626    0.168058
     45          8           0        6.093072   -4.721157    0.184867
     46          6           0        6.887980   -5.736034   -0.512817
     47          6           0       -2.810529   -4.015071   -0.654001
     48          6           0       -3.200037   -2.605933   -0.216786
     49          6           0       -3.656875   -1.583089   -0.965483
     50          6           0       -3.988309   -1.699173   -2.478211
     51          6           0       -4.182543   -0.338006   -0.238953
     52          6           0       -5.659992   -0.212503    0.057815
     53          6           0       -5.922347    0.720548    1.308531
     54          6           0       -7.022807    1.749810    0.955460
     55          6           0       -6.700749    3.131726    1.554637
     56          6           0       -8.475175    1.371829    1.376001
     57          6           0       -9.159350    0.430330    0.330334
     58          6           0      -10.185609   -0.385597    1.195632
     59          6           0      -11.623049    0.174303    1.102271
     60          6           0      -12.411475    0.027393    2.498853
     61          6           0      -12.462683   -0.459922   -0.019868
     62          6           0      -13.356871    0.550329   -0.740694
     63          6           0      -14.849888    0.325999   -0.377528
     64          6           0      -15.676504    1.651196   -0.388392
     65          6           0      -15.531747    2.370018    0.886630
     66          6           0      -17.162400    1.296074   -0.634289
     67          1           0        3.268023    0.176370   -4.187360
     68          1           0        5.290370    5.353048   -0.595434
     69          1           0        6.197121    1.305059    4.314209
     70          1           0        3.370064   -3.976006   -1.812114
     71          1           0        2.162147   -1.904901   -3.421451
     72          1           0        4.627329   -2.039377   -4.597440
     73          1           0        3.310224   -3.194239   -4.883428
     74          1           0        4.596904   -3.554422   -3.723612
     75          1           0        0.945490   -2.312122   -1.533555
     76          1           0        1.712625   -2.757217   -0.081931
     77          1           0        1.007745   -4.858908    0.016864
     78          1           0        1.550005   -5.165325   -1.619123
     79          1           0        4.708063    3.376015   -5.911211
     80          1           0        3.065688    3.139465   -5.618308
     81          1           0        4.029860    1.671548   -5.683798
     82          1           0        6.776007    6.008882   -2.644398
     83          1           0        5.174401    6.835082   -2.133651
     84          1           0        6.069868    7.263543   -3.506227
     85          1           0        4.591246    5.128823    1.981353
     86          1           0        6.882352    4.017922    3.513334
     87          1           0        7.238459    5.653211    0.729702
     88          1           0        7.160524    6.293768    2.478011
     89          1           0        6.018484    6.759536    1.238973
     90          1           0        4.779690    2.932837    4.759610
     91          1           0        4.048699    4.405994    4.096114
     92          1           0        6.366181    4.156687    6.186226
     93          1           0        4.854615    4.900936    6.292631
     94          1           0        6.079038    5.634618    5.165091
     95          1           0        7.679045   -1.349327    4.781341
     96          1           0        6.555568   -2.619345    5.187664
     97          1           0        6.275899   -0.977303    5.709340
     98          1           0        3.058352   -4.124203    1.297166
     99          1           0        7.313556   -6.285550    0.326706
    100          1           0        7.662277   -5.256828   -1.112485
    101          1           0        6.431650   -6.485721   -1.159070
    102          1           0       -3.135559   -4.773916    0.057629
    103          1           0       -3.255762   -4.350802   -1.590347
    104          1           0       -3.287129   -2.409303    0.852294
    105          1           0       -5.031848   -1.569651   -2.767456
    106          1           0       -3.637852   -2.662118   -2.848538
    107          1           0       -3.377051   -0.982151   -3.025535
    108          1           0       -4.052754    0.434168   -0.996030
    109          1           0       -3.548302   -0.108621    0.617790
    110          1           0       -5.925391   -1.225357    0.359775
    111          1           0       -6.359215    0.024378   -0.743472
    112          1           0       -5.022670    1.291567    1.540975
    113          1           0       -6.099655    0.075591    2.169255
    114          1           0       -6.959240    1.862884   -0.127414
    115          1           0       -5.941316    3.687908    1.005227
    116          1           0       -6.559391    3.150451    2.634739
    117          1           0       -7.585291    3.746542    1.386520
    118          1           0       -9.146942    2.227173    1.457234
    119          1           0       -8.390451    0.961782    2.382304
    120          1           0       -8.396246   -0.207172   -0.118341
    121          1           0       -9.593360    1.097458   -0.413973
    122          1           0       -9.876357   -0.334679    2.239548
    123          1           0      -10.108482   -1.422142    0.867621
    124          1           0      -11.552536    1.251090    0.949738
    125          1           0      -12.458291    0.975989    3.033566
    126          1           0      -11.995454   -0.746669    3.144228
    127          1           0      -13.469479   -0.176352    2.334610
    128          1           0      -12.953764   -1.321013    0.434099
    129          1           0      -11.822355   -0.942298   -0.757726
    130          1           0      -13.336218    0.305592   -1.803099
    131          1           0      -13.121967    1.614277   -0.726014
    132          1           0      -14.871140   -0.118400    0.617019
    133          1           0      -15.286752   -0.437779   -1.021034
    134          1           0      -15.245584    2.298093   -1.152331
    135          1           0      -15.602340    3.454031    0.802354
    136          1           0      -14.588018    2.206769    1.407651
    137          1           0      -16.320590    2.017478    1.552229
    138          1           0      -17.339246    0.237748   -0.440641
    139          1           0      -17.186500    1.545886   -1.695206
    140          1           0      -17.880515    1.860340   -0.039130
 ---------------------------------------------------------------------

 SCF Done:  E(RwB97XD) =  -3007.84611554     A.U. after   20 cycles

 Excitation energies and oscillator strengths:

 Excited State   1:      Singlet-A      1.5890 eV  780.25 nm  f=0.3566  <S**2>=0.000
     245 -> 248       -0.17776
     246 -> 247        0.68275
     245 <- 248       -0.11659
 This state for optimization and/or second-order correction.
 Total Energy, E(TD-HF/TD-DFT) =  -3007.78771951
 Copying the excited state density for this state as the 1-particle RhoCI density.

 Excited State   2:      Singlet-A      2.2367 eV  554.32 nm  f=0.0385  <S**2>=0.000
     245 -> 247        0.58745
     246 -> 248        0.37444

 Excited State   3:      Singlet-A      3.2194 eV  385.12 nm  f=0.0666  <S**2>=0.000
     243 -> 247        0.12316
     244 -> 247        0.60620
     245 -> 247        0.10400
     246 -> 248       -0.27523

 Excited State   4:      Singlet-A      3.3839 eV  366.40 nm  f=0.3627  <S**2>=0.000
     243 -> 247       -0.36241
     244 -> 247        0.29876
     245 -> 247       -0.26299
     246 -> 248        0.42355

 Excited State   5:      Singlet-A      3.5983 eV  344.57 nm  f=0.4496  <S**2>=0.000
     243 -> 247        0.54148
     245 -> 247       -0.25061
     246 -> 248        0.29021
     246 -> 249       -0.13285

 The electronic state is 1-A.
 Alpha  occ. eigenvalues --  -46.96655 -19.31370 -19.29082 -19.24727 -19.24304
 Alpha  occ. eigenvalues --  -19.24281 -19.24051 -14.47537 -14.46844 -14.44469
 Alpha  occ. eigenvalues --  -14.44201 -10.43359 -10.42809 -10.39818 -10.39654
 Alpha  occ. eigenvalues --  -10.36196 -10.35955 -10.35809 -10.35743 -10.35568
 Alpha  occ. eigenvalues --  -10.35323 -10.35139 -10.34454 -10.33562 -10.33160
 Alpha  occ. eigenvalues --  -10.33106 -10.32943 -10.32679 -10.32584 -10.32431
 Alpha  occ. eigenvalues --  -10.32179 -10.32115 -10.32009 -10.31932 -10.31483
 Alpha  occ. eigenvalues --  -10.31396 -10.31290 -10.31266 -10.31125 -10.30969
 Alpha  occ. eigenvalues --  -10.30849 -10.30824 -10.30375 -10.30370 -10.30175
 Alpha  occ. eigenvalues --  -10.30127 -10.29707 -10.29672 -10.29642 -10.29621
 Alpha  occ. eigenvalues --  -10.29457 -10.29409 -10.29260 -10.29184 -10.29099
 Alpha  occ. eigenvalues --  -10.28934 -10.28900 -10.28530 -10.28505 -10.28477
 Alpha  occ. eigenvalues --  -10.28341 -10.28239 -10.28226 -10.27962 -10.27876
 Alpha  occ. eigenvalues --  -10.27413  -3.22458  -1.95980  -1.95613  -1.95390
 Alpha  occ. eigenvalues --   -1.19899  -1.16081  -1.12950  -1.12068  -1.09243
 Alpha  occ. eigenvalues --   -1.08236  -1.06940  -1.05670  -1.04615  -1.03385
 Alpha  occ. eigenvalues --   -0.94779  -0.92057  -0.91565  -0.91375  -0.90523
 Alpha  occ. eigenvalues --   -0.90473  -0.90373  -0.89107  -0.89094  -0.87939
 Alpha  occ. eigenvalues --   -0.87513  -0.87195  -0.86057  -0.85759  -0.85262
 Alpha  occ. eigenvalues --   -0.84386  -0.84108  -0.83106  -0.82958  -0.81962
 Alpha  occ. eigenvalues --   -0.81372  -0.79779  -0.79674  -0.79271  -0.78732
 Alpha  occ. eigenvalues --   -0.77562  -0.77197  -0.77104  -0.76200  -0.75283
 Alpha  occ. eigenvalues --   -0.74917  -0.74507  -0.74128  -0.72602  -0.71194
 Alpha  occ. eigenvalues --   -0.70470  -0.69713  -0.68942  -0.68508  -0.67625
 Alpha  occ. eigenvalues --   -0.67544  -0.67389  -0.66936  -0.66413  -0.65623
 Alpha  occ. eigenvalues --   -0.65617  -0.65448  -0.64562  -0.64458  -0.61885
 Alpha  occ. eigenvalues --   -0.61771  -0.61016  -0.60879  -0.60813  -0.59891
 Alpha  occ. eigenvalues --   -0.59403  -0.58652  -0.58153  -0.57907  -0.57507
 Alpha  occ. eigenvalues --   -0.57094  -0.56743  -0.55977  -0.55774  -0.55491
 Alpha  occ. eigenvalues --   -0.55367  -0.55137  -0.55059  -0.54793  -0.54653
 Alpha  occ. eigenvalues --   -0.54563  -0.54299  -0.54116  -0.53766  -0.53512
 Alpha  occ. eigenvalues --   -0.53243  -0.52891  -0.52691  -0.52590  -0.52415
 Alpha  occ. eigenvalues --   -0.52078  -0.51920  -0.51733  -0.51610  -0.51526
 Alpha  occ. eigenvalues --   -0.51461  -0.51182  -0.50902  -0.50630  -0.50457
 Alpha  occ. eigenvalues --   -0.50394  -0.50265  -0.49609  -0.49523  -0.49453
 Alpha  occ. eigenvalues --   -0.49141  -0.49035  -0.48818  -0.48677  -0.48328
 Alpha  occ. eigenvalues --   -0.48186  -0.47908  -0.47862  -0.47815  -0.47675
 Alpha  occ. eigenvalues --   -0.47594  -0.47506  -0.47213  -0.47061  -0.46863
 Alpha  occ. eigenvalues --   -0.46676  -0.46284  -0.46135  -0.45985  -0.45812
 Alpha  occ. eigenvalues --   -0.45666  -0.45553  -0.45465  -0.45150  -0.44938
 Alpha  occ. eigenvalues --   -0.44812  -0.44627  -0.44582  -0.44431  -0.44242
 Alpha  occ. eigenvalues --   -0.44114  -0.43917  -0.43717  -0.43309  -0.43007
 Alpha  occ. eigenvalues --   -0.42868  -0.42731  -0.42549  -0.42253  -0.42079
 Alpha  occ. eigenvalues --   -0.41721  -0.41586  -0.41382  -0.40930  -0.40748
 Alpha  occ. eigenvalues --   -0.40416  -0.40327  -0.39652  -0.39417  -0.39382
 Alpha  occ. eigenvalues --   -0.39302  -0.38864  -0.38713  -0.38606  -0.38268
 Alpha  occ. eigenvalues --   -0.37212  -0.37071  -0.36948  -0.36699  -0.36060
 Alpha  occ. eigenvalues --   -0.35573  -0.35430  -0.35050  -0.33501  -0.33244
 Alpha  occ. eigenvalues --   -0.33038  -0.32490  -0.31831  -0.31417  -0.26684
 Alpha  occ. eigenvalues --   -0.22499
 Alpha virt. eigenvalues --   -0.06850  -0.00400   0.02071   0.03625   0.04040
 Alpha virt. eigenvalues --    0.06601   0.06948   0.07662   0.07999   0.09387
 Alpha virt. eigenvalues --    0.10402   0.10972   0.11773   0.12652   0.12853

 Mulliken charges:
               1
     1  Mg   0.956970
     2  C   -0.059897
     3  C   -0.105011
     4  C   -0.085312
     5  C   -0.085300
     6  N   -0.312011
     7  C    0.001162
     8  C   -0.113758
     9  C   -0.080346
    10  C   -0.016548
    11  C    0.031182
    12  C    0.028734
    13  C    0.034428
    14  C    0.218989
    15  O   -0.270151
    16  O   -0.400778
    17  N   -0.462822
    18  C    0.234389
    19  C   -0.162447
    20  C   -0.104213
    21  C    0.177235
    22  C    0.097078
    23  C    0.063269
    24  O   -0.237259
    25  C   -0.007163
    26  N   -0.390979
    27  C    0.033037
    28  C   -0.048029
    29  C   -0.070032
    30  C    0.088485
    31  C    0.016149
    32  C   -0.033572
    33  C   -0.075242
    34  N   -0.448625
    35  C    0.110908
    36  C   -0.170627
    37  C   -0.043279
    38  C    0.165142
    39  C    0.050083
    40  C    0.136514
    41  O   -0.189672
    42  C   -0.049687
    43  C    0.245362
    44  O   -0.271137
    45  O   -0.336098
    46  C    0.132473
    47  C    0.259743
    48  C   -0.104486
    49  C   -0.199923
    50  C    0.010480
    51  C    0.034812
    52  C   -0.050823
    53  C    0.027653
    54  C   -0.176687
    55  C   -0.004645
    56  C   -0.022835
    57  C   -0.032639
    58  C    0.031261
    59  C   -0.180260
    60  C   -0.015259
    61  C    0.027864
    62  C   -0.015112
    63  C   -0.020200
    64  C   -0.218794
    65  C    0.006464
    66  C    0.001471
    67  H   -0.000745
    68  H   -0.014771
    69  H    0.006837
    70  H    0.036059
    71  H    0.037674
    72  H    0.032743
    73  H    0.050488
    74  H    0.034586
    75  H    0.039718
    76  H    0.034647
    77  H    0.070457
    78  H    0.057599
    79  H    0.055833
    80  H    0.047674
    81  H    0.028926
    82  H    0.056018
    83  H    0.079047
    84  H    0.041258
    85  H    0.044107
    86  H    0.034348
    87  H    0.051090
    88  H    0.053469
    89  H    0.034213
    90  H    0.038007
    91  H    0.031131
    92  H    0.042538
    93  H    0.038230
    94  H    0.040968
    95  H    0.046292
    96  H    0.055101
    97  H    0.039057
    98  H    0.066100
    99  H    0.059352
   100  H    0.057551
   101  H    0.068295
   102  H    0.034910
   103  H    0.062758
   104  H    0.021948
   105  H    0.056644
   106  H    0.031505
   107  H    0.040057
   108  H    0.009213
   109  H    0.040512
   110  H    0.010431
   111  H    0.035933
   112  H    0.021861
   113  H    0.026072
   114  H    0.015196
   115  H    0.027745
   116  H    0.031116
   117  H    0.008315
   118  H    0.016187
   119  H    0.016842
   120  H    0.021816
   121  H    0.032458
   122  H    0.014631
   123  H    0.015727
   124  H    0.012127
   125  H    0.027500
   126  H    0.035277
   127  H    0.014858
   128  H    0.019606
   129  H    0.006120
   130  H    0.016990
   131  H    0.025335
   132  H    0.005808
   133  H    0.018851
   134  H    0.020586
   135  H    0.027452
   136  H    0.013270
   137  H    0.018991
   138  H    0.034158
   139  H    0.036675
   140  H    0.030941
 Sum of Mulliken charges =  -0.00000

 Dipole moment (field-independent basis, Debye):
    X=              2.3167    Y=              5.2017    Z=              0.8511  Tot=              5.7575
 Quadrupole moment (field-independent basis, Debye-Ang):
   XX=           -354.7018   YY=           -425.3843   ZZ=           -412.9280
   XY=             12.3093   XZ=              2.1961   YZ=             35.6160

 Normal termination of Gaussian 16 at Fri Apr 29 01:06:07 2022.
