 Gaussian 16, Revision A.03,
 Gaussian 16:  ES64L-G16RevA.03 25-Dec-2016

 --------------------
 #p ZINDO=(nstates=5)
 --------------------

 ------------------------------
 step_1801_chromophore_14 ZINDO
 ------------------------------
 Symbolic Z-matrix:
 Charge =  0 Multiplicity = 1

                         Standard orientation:
 ---------------------------------------------------------------------
 Center     Atomic      Atomic             Coordinates (Angstroms)
 Number     Number       Type             X           Y           Z
 ---------------------------------------------------------------------
      1         12           0        5.332511    0.752382   -0.297926
      2          6           0        4.290060   -2.538765    0.536217
      3          6           0        3.714540    0.450112   -3.229712
      4          6           0        5.303425    4.261182   -0.591518
      5          6           0        6.075749    1.210956    3.233299
      6          7           0        3.883179   -0.759900   -1.147503
      7          6           0        3.865732   -2.099128   -0.741594
      8          6           0        3.011013   -2.956687   -1.669475
      9          6           0        3.131604   -2.130167   -2.977151
     10          6           0        3.599832   -0.716811   -2.426829
     11          6           0        3.962935   -2.762327   -4.124482
     12          6           0        1.561382   -3.103726   -1.104720
     13          6           0        0.926879   -4.508858   -1.012209
     14          6           0       -0.524130   -4.570055   -1.467554
     15          8           0       -0.983904   -5.001295   -2.526551
     16          8           0       -1.320239   -4.103525   -0.418018
     17          7           0        4.783166    2.076485   -1.848097
     18          6           0        4.196416    1.689532   -2.992422
     19          6           0        4.318387    2.797050   -3.900349
     20          6           0        4.809582    3.895175   -3.166207
     21          6           0        4.999288    3.435619   -1.781629
     22          6           0        4.035810    2.714067   -5.364483
     23          6           0        5.134617    5.344981   -3.745062
     24          8           0        4.818435    5.632914   -4.899730
     25          6           0        5.792356    6.391397   -2.914224
     26          7           0        5.545725    2.415642    1.111504
     27          6           0        5.388203    3.792849    0.745626
     28          6           0        5.604665    4.733797    1.904995
     29          6           0        5.896601    3.810792    3.097081
     30          6           0        5.851953    2.377696    2.457131
     31          6           0        6.635581    5.933464    1.592738
     32          6           0        4.991067    3.925281    4.362224
     33          6           0        5.656372    4.717440    5.577159
     34          7           0        5.485673   -0.409914    1.452812
     35          6           0        5.806446   -0.099587    2.753149
     36          6           0        5.877479   -1.386371    3.516538
     37          6           0        5.292848   -2.351882    2.676607
     38          6           0        4.996521   -1.717228    1.440879
     39          6           0        6.617255   -1.578917    4.867429
     40          6           0        4.909349   -3.759813    2.597888
     41          8           0        4.894875   -4.628413    3.446581
     42          6           0        4.123294   -3.903539    1.228149
     43          6           0        4.836298   -5.021632    0.503797
     44          8           0        4.292561   -6.080626    0.168058
     45          8           0        6.093072   -4.721157    0.184867
     46          6           0        6.887980   -5.736034   -0.512817
     47          6           0       -2.810529   -4.015071   -0.654001
     48          6           0       -3.200037   -2.605933   -0.216786
     49          6           0       -3.656875   -1.583089   -0.965483
     50          6           0       -3.988309   -1.699173   -2.478211
     51          6           0       -4.182543   -0.338006   -0.238953
     52          6           0       -5.659992   -0.212503    0.057815
     53          6           0       -5.922347    0.720548    1.308531
     54          6           0       -7.022807    1.749810    0.955460
     55          6           0       -6.700749    3.131726    1.554637
     56          6           0       -8.475175    1.371829    1.376001
     57          6           0       -9.159350    0.430330    0.330334
     58          6           0      -10.185609   -0.385597    1.195632
     59          6           0      -11.623049    0.174303    1.102271
     60          6           0      -12.411475    0.027393    2.498853
     61          6           0      -12.462683   -0.459922   -0.019868
     62          6           0      -13.356871    0.550329   -0.740694
     63          6           0      -14.849888    0.325999   -0.377528
     64          6           0      -15.676504    1.651196   -0.388392
     65          6           0      -15.531747    2.370018    0.886630
     66          6           0      -17.162400    1.296074   -0.634289
     67          1           0        3.268023    0.176370   -4.187360
     68          1           0        5.290370    5.353048   -0.595434
     69          1           0        6.197121    1.305059    4.314209
     70          1           0        3.370064   -3.976006   -1.812114
     71          1           0        2.162147   -1.904901   -3.421451
     72          1           0        4.627329   -2.039377   -4.597440
     73          1           0        3.310224   -3.194239   -4.883428
     74          1           0        4.596904   -3.554422   -3.723612
     75          1           0        0.945490   -2.312122   -1.533555
     76          1           0        1.712625   -2.757217   -0.081931
     77          1           0        1.007745   -4.858908    0.016864
     78          1           0        1.550005   -5.165325   -1.619123
     79          1           0        4.708063    3.376015   -5.911211
     80          1           0        3.065688    3.139465   -5.618308
     81          1           0        4.029860    1.671548   -5.683798
     82          1           0        6.776007    6.008882   -2.644398
     83          1           0        5.174401    6.835082   -2.133651
     84          1           0        6.069868    7.263543   -3.506227
     85          1           0        4.591246    5.128823    1.981353
     86          1           0        6.882352    4.017922    3.513334
     87          1           0        7.238459    5.653211    0.729702
     88          1           0        7.160524    6.293768    2.478011
     89          1           0        6.018484    6.759536    1.238973
     90          1           0        4.779690    2.932837    4.759610
     91          1           0        4.048699    4.405994    4.096114
     92          1           0        6.366181    4.156687    6.186226
     93          1           0        4.854615    4.900936    6.292631
     94          1           0        6.079038    5.634618    5.165091
     95          1           0        7.679045   -1.349327    4.781341
     96          1           0        6.555568   -2.619345    5.187664
     97          1           0        6.275899   -0.977303    5.709340
     98          1           0        3.058352   -4.124203    1.297166
     99          1           0        7.313556   -6.285550    0.326706
    100          1           0        7.662277   -5.256828   -1.112485
    101          1           0        6.431650   -6.485721   -1.159070
    102          1           0       -3.135559   -4.773916    0.057629
    103          1           0       -3.255762   -4.350802   -1.590347
    104          1           0       -3.287129   -2.409303    0.852294
    105          1           0       -5.031848   -1.569651   -2.767456
    106          1           0       -3.637852   -2.662118   -2.848538
    107          1           0       -3.377051   -0.982151   -3.025535
    108          1           0       -4.052754    0.434168   -0.996030
    109          1           0       -3.548302   -0.108621    0.617790
    110          1           0       -5.925391   -1.225357    0.359775
    111          1           0       -6.359215    0.024378   -0.743472
    112          1           0       -5.022670    1.291567    1.540975
    113          1           0       -6.099655    0.075591    2.169255
    114          1           0       -6.959240    1.862884   -0.127414
    115          1           0       -5.941316    3.687908    1.005227
    116          1           0       -6.559391    3.150451    2.634739
    117          1           0       -7.585291    3.746542    1.386520
    118          1           0       -9.146942    2.227173    1.457234
    119          1           0       -8.390451    0.961782    2.382304
    120          1           0       -8.396246   -0.207172   -0.118341
    121          1           0       -9.593360    1.097458   -0.413973
    122          1           0       -9.876357   -0.334679    2.239548
    123          1           0      -10.108482   -1.422142    0.867621
    124          1           0      -11.552536    1.251090    0.949738
    125          1           0      -12.458291    0.975989    3.033566
    126          1           0      -11.995454   -0.746669    3.144228
    127          1           0      -13.469479   -0.176352    2.334610
    128          1           0      -12.953764   -1.321013    0.434099
    129          1           0      -11.822355   -0.942298   -0.757726
    130          1           0      -13.336218    0.305592   -1.803099
    131          1           0      -13.121967    1.614277   -0.726014
    132          1           0      -14.871140   -0.118400    0.617019
    133          1           0      -15.286752   -0.437779   -1.021034
    134          1           0      -15.245584    2.298093   -1.152331
    135          1           0      -15.602340    3.454031    0.802354
    136          1           0      -14.588018    2.206769    1.407651
    137          1           0      -16.320590    2.017478    1.552229
    138          1           0      -17.339246    0.237748   -0.440641
    139          1           0      -17.186500    1.545886   -1.695206
    140          1           0      -17.880515    1.860340   -0.039130
 ---------------------------------------------------------------------

 SCF Done:  E(RZINDO/S) =  -473.893828192     A.U. after   19 cycles

 Excitation energies and oscillator strengths:

 Excited State   1:      Singlet-A      1.1980 eV 1034.95 nm  f=0.5592  <S**2>=0.000
     175 ->178         0.17958
     176 ->177         0.66318
 This state for optimization and/or second-order correction.
 Total Energy, E(CIS/TDA) =  -473.849803361
 Copying the excited state density for this state as the 1-particle RhoCI density.

 Excited State   2:      Singlet-A      1.8933 eV  654.87 nm  f=0.0081  <S**2>=0.000
     175 ->177        -0.45279
     176 ->178         0.51838

 Excited State   3:      Singlet-A      2.6167 eV  473.82 nm  f=0.0034  <S**2>=0.000
     176 ->179         0.22203
     176 ->180         0.66453

 Excited State   4:      Singlet-A      2.7857 eV  445.08 nm  f=0.2717  <S**2>=0.000
     175 ->177        -0.26319
     176 ->178        -0.26524
     176 ->179         0.48529
     176 ->180        -0.20410
     176 ->181        -0.13826

 Excited State   5:      Singlet-A      2.9594 eV  418.95 nm  f=0.0112  <S**2>=0.000
     169 ->177         0.23162
     169 ->178        -0.18291
     169 ->179         0.32163
     169 ->181        -0.24517
     169 ->185        -0.15267
     169 ->187         0.14001
     170 ->177        -0.14644
     170 ->178         0.11185
     170 ->179        -0.19958
     170 ->181         0.14363

 The electronic state is 1-A.
 Alpha  occ. eigenvalues --   -1.83378  -1.81386  -1.77559  -1.73823  -1.70305
 Alpha  occ. eigenvalues --   -1.68782  -1.65558  -1.62056  -1.58702  -1.58106
 Alpha  occ. eigenvalues --   -1.55227  -1.50616  -1.48030  -1.46382  -1.45260
 Alpha  occ. eigenvalues --   -1.44942  -1.43862  -1.39995  -1.38708  -1.38259
 Alpha  occ. eigenvalues --   -1.35781  -1.33564  -1.31911  -1.30445  -1.27428
 Alpha  occ. eigenvalues --   -1.26995  -1.26441  -1.22687  -1.20811  -1.18011
 Alpha  occ. eigenvalues --   -1.15913  -1.15732  -1.14863  -1.14060  -1.13152
 Alpha  occ. eigenvalues --   -1.12603  -1.09639  -1.08227  -1.06068  -1.04523
 Alpha  occ. eigenvalues --   -1.02507  -1.01556  -0.98727  -0.98357  -0.95896
 Alpha  occ. eigenvalues --   -0.95226  -0.95136  -0.94144  -0.93034  -0.92812
 Alpha  occ. eigenvalues --   -0.91884  -0.91164  -0.90207  -0.88403  -0.87340
 Alpha  occ. eigenvalues --   -0.86358  -0.84501  -0.83676  -0.83250  -0.81282
 Alpha  occ. eigenvalues --   -0.79685  -0.79237  -0.77205  -0.76775  -0.76501
 Alpha  occ. eigenvalues --   -0.75819  -0.74890  -0.74413  -0.73838  -0.73293
 Alpha  occ. eigenvalues --   -0.72958  -0.71729  -0.71318  -0.70840  -0.70682
 Alpha  occ. eigenvalues --   -0.70495  -0.69751  -0.69364  -0.68880  -0.68390
 Alpha  occ. eigenvalues --   -0.67727  -0.67405  -0.66352  -0.65955  -0.65634
 Alpha  occ. eigenvalues --   -0.65399  -0.64887  -0.64172  -0.63318  -0.63083
 Alpha  occ. eigenvalues --   -0.62828  -0.62445  -0.62044  -0.61766  -0.61483
 Alpha  occ. eigenvalues --   -0.61196  -0.61003  -0.60773  -0.60725  -0.60496
 Alpha  occ. eigenvalues --   -0.60104  -0.59337  -0.59301  -0.58727  -0.58394
 Alpha  occ. eigenvalues --   -0.58037  -0.57540  -0.57130  -0.56896  -0.56376
 Alpha  occ. eigenvalues --   -0.55941  -0.55750  -0.55521  -0.55040  -0.54868
 Alpha  occ. eigenvalues --   -0.54821  -0.54499  -0.53902  -0.53715  -0.53272
 Alpha  occ. eigenvalues --   -0.53016  -0.52849  -0.52662  -0.52177  -0.51791
 Alpha  occ. eigenvalues --   -0.51676  -0.51348  -0.51290  -0.50995  -0.50833
 Alpha  occ. eigenvalues --   -0.50258  -0.50066  -0.49943  -0.49612  -0.49280
 Alpha  occ. eigenvalues --   -0.48590  -0.48349  -0.48291  -0.48213  -0.47928
 Alpha  occ. eigenvalues --   -0.47766  -0.47418  -0.47178  -0.46995  -0.46780
 Alpha  occ. eigenvalues --   -0.46734  -0.46328  -0.46105  -0.46007  -0.45754
 Alpha  occ. eigenvalues --   -0.45672  -0.45495  -0.45028  -0.44394  -0.44249
 Alpha  occ. eigenvalues --   -0.43418  -0.43216  -0.42809  -0.42708  -0.42018
 Alpha  occ. eigenvalues --   -0.41486  -0.41345  -0.40507  -0.39400  -0.38969
 Alpha  occ. eigenvalues --   -0.38691  -0.37896  -0.36237  -0.35551  -0.35111
 Alpha  occ. eigenvalues --   -0.33020  -0.32908  -0.32823  -0.32292  -0.27627
 Alpha  occ. eigenvalues --   -0.21532
 Alpha virt. eigenvalues --   -0.08468  -0.03033  -0.00925  -0.00297   0.00825
 Alpha virt. eigenvalues --    0.01752   0.02097   0.02567   0.03835   0.04176
 Alpha virt. eigenvalues --    0.05214   0.06198   0.06843   0.07466   0.07711

 Mulliken charges:
               1
     1  Mg   0.434943
     2  C   -0.027113
     3  C   -0.056818
     4  C   -0.118150
     5  C   -0.095364
     6  N   -0.249788
     7  C    0.077774
     8  C    0.005676
     9  C    0.003554
    10  C    0.142186
    11  C   -0.047181
    12  C   -0.024591
    13  C    0.014835
    14  C    0.469959
    15  O   -0.514922
    16  O   -0.279088
    17  N   -0.328364
    18  C    0.131914
    19  C    0.054915
    20  C   -0.061159
    21  C    0.147552
    22  C   -0.039945
    23  C    0.326515
    24  O   -0.515262
    25  C   -0.027069
    26  N   -0.308676
    27  C    0.142532
    28  C    0.005075
    29  C    0.004412
    30  C    0.127228
    31  C   -0.053847
    32  C   -0.034771
    33  C   -0.064637
    34  N   -0.321701
    35  C    0.113290
    36  C   -0.000467
    37  C   -0.043237
    38  C    0.074979
    39  C   -0.039507
    40  C    0.334520
    41  O   -0.500268
    42  C    0.056180
    43  C    0.488968
    44  O   -0.545138
    45  O   -0.253193
    46  C    0.075980
    47  C    0.103408
    48  C   -0.079497
    49  C   -0.011336
    50  C   -0.046221
    51  C   -0.019150
    52  C   -0.034930
    53  C   -0.035962
    54  C   -0.012883
    55  C   -0.063240
    56  C   -0.037749
    57  C   -0.046044
    58  C   -0.033571
    59  C   -0.012473
    60  C   -0.068916
    61  C   -0.023952
    62  C   -0.038065
    63  C   -0.038668
    64  C   -0.006967
    65  C   -0.049711
    66  C   -0.062000
    67  H    0.021252
    68  H    0.037552
    69  H    0.032431
    70  H    0.036100
    71  H    0.027816
    72  H    0.021632
    73  H    0.026548
    74  H    0.022123
    75  H    0.031485
    76  H    0.017807
    77  H    0.047011
    78  H    0.040760
    79  H    0.045165
    80  H    0.036840
    81  H    0.024550
    82  H    0.037242
    83  H    0.048702
    84  H    0.027037
    85  H    0.034739
    86  H    0.029711
    87  H    0.032371
    88  H    0.031859
    89  H    0.014387
    90  H    0.025381
    91  H    0.022608
    92  H    0.026638
    93  H    0.015129
    94  H    0.023075
    95  H    0.026493
    96  H    0.028421
    97  H    0.027262
    98  H    0.065546
    99  H    0.039415
   100  H    0.031172
   101  H    0.054301
   102  H    0.031333
   103  H    0.066073
   104  H    0.030827
   105  H    0.034590
   106  H    0.022154
   107  H    0.022438
   108  H    0.008268
   109  H    0.030531
   110  H    0.006880
   111  H    0.034986
   112  H    0.017066
   113  H    0.024877
   114  H    0.019584
   115  H    0.016928
   116  H    0.024187
   117  H    0.002806
   118  H    0.017973
   119  H    0.022266
   120  H    0.023412
   121  H    0.027680
   122  H    0.021418
   123  H    0.016326
   124  H    0.020849
   125  H    0.014675
   126  H    0.023689
   127  H    0.016392
   128  H    0.023478
   129  H    0.008095
   130  H    0.005865
   131  H    0.032597
   132  H    0.016633
   133  H    0.016473
   134  H    0.020912
   135  H    0.012104
   136  H    0.010221
   137  H    0.014165
   138  H    0.023731
   139  H    0.019305
   140  H    0.022846
 Sum of Mulliken charges =  -0.00000

 Dipole moment (field-independent basis, Debye):
    X=              1.8305    Y=              7.5164    Z=              0.5757  Tot=              7.7574
 N-N= 4.293944474187D+03 E-N= 0.000000000000D+00  KE=-9.261280322838D+03
 Leave Link  601 at Fri Apr 29 01:22:09 2022, MaxMem=  6710886400 cpu:               1.1 elap:               0.1
 (Enter /sw/apps/gaussian-16.0/g16/l9999.exe)
 1\1\GINC-BP1-COMPUTE150\SP\RZINDO CIS\STO-3G\C55H74Mg1N4O6\OF15641\29-
 Apr-2022\0\\#p ZINDO=(nstates=5)\\step_1801_chromophore_14 ZINDO\\0,1\
 Mg,0,46.824,45.88,43.39\C,0,43.488,44.795,42.835\C,0,47.906,42.879,42.
 328\C,0,49.993,47.289,42.781\C,0,45.508,49.27,43.481\N,0,45.833,44.115
 ,42.384\C,0,44.474,43.821,42.543\C,0,44.133,42.433,42.01\C,0,45.51,41.
 739,42.183\C,0,46.489,42.983,42.3\C,0,45.605,40.648,43.282\C,0,43.61,4
 2.52,40.54\C,0,42.303,41.79,40.16\C,0,42.365,41.049,38.832\O,0,42.488,

 Normal termination of Gaussian 16 at Fri Apr 29 01:22:09 2022.
