 Gaussian 16, Revision A.03,
 Gaussian 16:  ES64L-G16RevA.03 25-Dec-2016

 ------------------------------
 #p blyp/Def2SVP td=(nstates=5)
 ------------------------------

 ---------------------------------------------------
 step_1451_chromophore_27 TDDFT with blyp functional
 ---------------------------------------------------
 Symbolic Z-matrix:
 Charge =  0 Multiplicity = 1

                         Standard orientation:
 ---------------------------------------------------------------------
 Center     Atomic      Atomic             Coordinates (Angstroms)
 Number     Number       Type             X           Y           Z
 ---------------------------------------------------------------------
      1         12           0       -4.284869    0.851014   -0.173118
      2          6           0       -3.891406   -2.619960    0.423674
      3          6           0       -0.831981    1.127370    0.259293
      4          6           0       -4.609187    4.144247   -0.019987
      5          6           0       -7.761544    0.417037   -0.128618
      6          7           0       -2.595393   -0.580330    0.449977
      7          6           0       -2.638436   -1.946167    0.416280
      8          6           0       -1.241433   -2.522152    0.397467
      9          6           0       -0.362957   -1.284645    0.741007
     10          6           0       -1.362572   -0.184869    0.360496
     11          6           0        0.080558   -1.262690    2.219280
     12          6           0       -1.044718   -3.108426   -1.029409
     13          6           0       -0.321289   -4.469906   -1.022269
     14          6           0        0.956215   -4.516760   -1.914748
     15          8           0        0.927766   -4.438245   -3.138519
     16          8           0        2.099668   -4.485872   -1.196476
     17          7           0       -2.915199    2.433942   -0.039782
     18          6           0       -1.559797    2.392805    0.159491
     19          6           0       -0.990863    3.702288    0.104234
     20          6           0       -2.125713    4.590870   -0.009484
     21          6           0       -3.284223    3.694501    0.003015
     22          6           0        0.469744    3.948028    0.020610
     23          6           0       -2.146594    6.172501   -0.059647
     24          8           0       -3.174593    6.864432   -0.121438
     25          6           0       -0.889559    6.919412   -0.121459
     26          7           0       -5.922806    2.101902   -0.081795
     27          6           0       -5.852847    3.431851   -0.056194
     28          6           0       -7.182026    4.109486   -0.061637
     29          6           0       -8.173922    2.966108   -0.391957
     30          6           0       -7.229970    1.732754   -0.267781
     31          6           0       -7.456786    4.738891    1.377153
     32          6           0       -8.911729    3.022464   -1.725210
     33          6           0      -10.034475    3.923494   -2.012449
     34          7           0       -5.644870   -0.712336    0.206924
     35          6           0       -6.984108   -0.770034    0.248990
     36          6           0       -7.431558   -2.133274    0.460505
     37          6           0       -6.226572   -2.877543    0.549248
     38          6           0       -5.165632   -1.981557    0.335370
     39          6           0       -8.797021   -2.634337    0.584633
     40          6           0       -5.666164   -4.224724    0.857851
     41          8           0       -6.267018   -5.260923    1.016274
     42          6           0       -4.143170   -4.073065    0.684635
     43          6           0       -3.461979   -4.590055    1.916626
     44          8           0       -3.675790   -4.281280    3.041364
     45          8           0       -2.599776   -5.574724    1.513783
     46          6           0       -1.933390   -6.396677    2.530615
     47          6           0        3.348406   -4.630290   -1.930488
     48          6           0        3.937802   -3.311374   -2.354138
     49          6           0        5.148220   -2.755566   -2.112933
     50          6           0        6.340312   -3.496053   -1.320667
     51          6           0        5.446310   -1.342036   -2.588150
     52          6           0        6.218094   -1.161920   -3.826919
     53          6           0        7.550984   -0.381277   -3.717156
     54          6           0        7.258746    1.160161   -3.789994
     55          6           0        6.922273    1.689522   -5.235813
     56          6           0        8.344840    2.000023   -3.162518
     57          6           0        8.359067    1.962366   -1.599488
     58          6           0        9.631268    1.335305   -1.035877
     59          6           0        9.491885    1.090003    0.500746
     60          6           0       10.336297   -0.100947    0.898358
     61          6           0        9.984482    2.296121    1.351883
     62          6           0        9.032150    2.694223    2.518433
     63          6           0        9.695276    2.409996    3.934510
     64          6           0        9.277075    1.141690    4.605513
     65          6           0        8.017253    1.382412    5.514476
     66          6           0       10.442974    0.432875    5.398685
     67          1           0        0.253584    1.165171    0.374822
     68          1           0       -4.750444    5.226492    0.012190
     69          1           0       -8.836534    0.230410   -0.160696
     70          1           0       -1.043167   -3.291804    1.143048
     71          1           0        0.524375   -1.365759    0.113862
     72          1           0       -0.141822   -0.316414    2.713375
     73          1           0        1.166203   -1.283652    2.130900
     74          1           0       -0.237161   -2.144575    2.776766
     75          1           0       -0.413618   -2.381527   -1.541658
     76          1           0       -1.946742   -3.188704   -1.636281
     77          1           0       -1.031294   -5.272022   -1.224575
     78          1           0        0.013335   -4.692329   -0.008862
     79          1           0        0.786060    4.358708   -0.937206
     80          1           0        1.004929    3.012671    0.182442
     81          1           0        0.764154    4.590738    0.850971
     82          1           0       -1.050902    7.980264   -0.311708
     83          1           0       -0.255480    6.487829   -0.896845
     84          1           0       -0.344567    6.719757    0.801461
     85          1           0       -7.064118    4.737294   -0.945189
     86          1           0       -8.943493    2.958504    0.380139
     87          1           0       -6.524266    4.662919    1.936014
     88          1           0       -8.259365    4.212921    1.894518
     89          1           0       -7.695339    5.787772    1.197690
     90          1           0       -9.316485    2.031770   -1.930853
     91          1           0       -8.164970    3.355104   -2.445537
     92          1           0       -9.914697    4.474699   -2.944358
     93          1           0      -10.155046    4.620318   -1.183565
     94          1           0      -11.021079    3.463997   -2.073827
     95          1           0       -9.498625   -2.032398    0.006848
     96          1           0       -9.124810   -2.585276    1.623610
     97          1           0       -8.774606   -3.667336    0.237369
     98          1           0       -3.822770   -4.647156   -0.184121
     99          1           0       -1.686761   -5.894632    3.465474
    100          1           0       -1.086669   -6.841943    2.008013
    101          1           0       -2.608740   -7.206932    2.804546
    102          1           0        3.307794   -5.263165   -2.816990
    103          1           0        4.025035   -5.122762   -1.232623
    104          1           0        3.201443   -2.843209   -3.006357
    105          1           0        7.092782   -3.602077   -2.102827
    106          1           0        6.040536   -4.489881   -0.990019
    107          1           0        6.619057   -2.910578   -0.444560
    108          1           0        5.842665   -0.996098   -1.633472
    109          1           0        4.555854   -0.729274   -2.727077
    110          1           0        5.584766   -0.728745   -4.600671
    111          1           0        6.515062   -2.128199   -4.234743
    112          1           0        8.146321   -0.709150   -4.570319
    113          1           0        8.148432   -0.505968   -2.814406
    114          1           0        6.345652    1.377069   -3.235321
    115          1           0        7.296310    1.099328   -6.072620
    116          1           0        7.454523    2.623443   -5.412525
    117          1           0        5.841713    1.823696   -5.288114
    118          1           0        8.190629    3.024530   -3.502910
    119          1           0        9.347050    1.607695   -3.330846
    120          1           0        7.423904    1.476410   -1.321701
    121          1           0        8.302248    2.967128   -1.180307
    122          1           0       10.407138    2.079029   -1.212560
    123          1           0        9.863588    0.400008   -1.544726
    124          1           0        8.484497    0.774900    0.773033
    125          1           0       11.211483   -0.191895    0.255034
    126          1           0        9.671790   -0.959044    0.802850
    127          1           0       10.651671   -0.063695    1.940883
    128          1           0       10.101969    3.149419    0.683768
    129          1           0       10.914485    2.035227    1.857721
    130          1           0        8.121567    2.095847    2.537370
    131          1           0        8.882657    3.763621    2.369844
    132          1           0        9.683924    3.321240    4.533394
    133          1           0       10.781452    2.462587    3.852014
    134          1           0        8.927680    0.469361    3.821330
    135          1           0        7.850342    2.360662    5.964677
    136          1           0        7.952455    0.638389    6.307406
    137          1           0        7.168624    1.187520    4.858628
    138          1           0       11.448520    0.755509    5.127778
    139          1           0       10.535056   -0.586936    5.026089
    140          1           0       10.284827    0.456642    6.476806
 ---------------------------------------------------------------------

 SCF Done:  E(RB-LYP) =  -3007.37784870     A.U. after   21 cycles

 Excitation energies and oscillator strengths:

 Excited State   1:      Singlet-A      1.8193 eV  681.51 nm  f=0.2959  <S**2>=0.000
     245 -> 248        0.20052
     246 -> 247        0.68364
     246 <- 247       -0.14365
 This state for optimization and/or second-order correction.
 Total Energy, E(TD-HF/TD-DFT) =  -3007.31099213
 Copying the excited state density for this state as the 1-particle RhoCI density.

 Excited State   2:      Singlet-A      1.9782 eV  626.76 nm  f=0.0889  <S**2>=0.000
     243 -> 247        0.17208
     245 -> 247        0.63691
     246 -> 248       -0.21942

 Excited State   3:      Singlet-A      2.0300 eV  610.76 nm  f=0.0006  <S**2>=0.000
     244 -> 247        0.70507

 Excited State   4:      Singlet-A      2.0844 eV  594.82 nm  f=0.0090  <S**2>=0.000
     243 -> 247        0.68136
     245 -> 247       -0.15853

 Excited State   5:      Singlet-A      2.5135 eV  493.27 nm  f=0.0040  <S**2>=0.000
     242 -> 247        0.69466

 The electronic state is 1-A.
 Alpha  occ. eigenvalues --  -46.27744 -18.82809 -18.82206 -18.77118 -18.76385
 Alpha  occ. eigenvalues --  -18.75869 -18.75657 -14.03137 -14.03110 -14.00991
 Alpha  occ. eigenvalues --  -14.00547 -10.04187 -10.03879 -10.00226  -9.99613
 Alpha  occ. eigenvalues --   -9.98072  -9.97990  -9.96546  -9.96413  -9.96061
 Alpha  occ. eigenvalues --   -9.95965  -9.95665  -9.95341  -9.95100  -9.94164
 Alpha  occ. eigenvalues --   -9.94028  -9.93783  -9.93757  -9.93701  -9.93585
 Alpha  occ. eigenvalues --   -9.93572  -9.93533  -9.93493  -9.93475  -9.93447
 Alpha  occ. eigenvalues --   -9.93394  -9.93246  -9.93094  -9.93073  -9.92980
 Alpha  occ. eigenvalues --   -9.92835  -9.92681  -9.92573  -9.92335  -9.92074
 Alpha  occ. eigenvalues --   -9.92023  -9.92005  -9.91953  -9.91838  -9.91816
 Alpha  occ. eigenvalues --   -9.91797  -9.91709  -9.91647  -9.91568  -9.91546
 Alpha  occ. eigenvalues --   -9.91493  -9.91320  -9.91186  -9.91077  -9.91068
 Alpha  occ. eigenvalues --   -9.91054  -9.90973  -9.90838  -9.90763  -9.90685
 Alpha  occ. eigenvalues --   -9.90447  -2.92341  -1.72752  -1.72230  -1.72050
 Alpha  occ. eigenvalues --   -0.98661  -0.98625  -0.92075  -0.91206  -0.90830
 Alpha  occ. eigenvalues --   -0.89694  -0.87793  -0.87005  -0.86402  -0.85675
 Alpha  occ. eigenvalues --   -0.75720  -0.74077  -0.73332  -0.73096  -0.72728
 Alpha  occ. eigenvalues --   -0.72114  -0.71612  -0.71092  -0.70411  -0.70377
 Alpha  occ. eigenvalues --   -0.69605  -0.69272  -0.68315  -0.67804  -0.67292
 Alpha  occ. eigenvalues --   -0.66682  -0.66282  -0.65600  -0.65145  -0.64462
 Alpha  occ. eigenvalues --   -0.64117  -0.62482  -0.62207  -0.61963  -0.61122
 Alpha  occ. eigenvalues --   -0.60845  -0.60345  -0.59956  -0.59596  -0.59134
 Alpha  occ. eigenvalues --   -0.58660  -0.57355  -0.56532  -0.55618  -0.54592
 Alpha  occ. eigenvalues --   -0.54133  -0.53385  -0.52850  -0.52341  -0.51509
 Alpha  occ. eigenvalues --   -0.51476  -0.51054  -0.50581  -0.50389  -0.50039
 Alpha  occ. eigenvalues --   -0.49797  -0.49678  -0.48810  -0.48794  -0.46853
 Alpha  occ. eigenvalues --   -0.46667  -0.46396  -0.45618  -0.45417  -0.44819
 Alpha  occ. eigenvalues --   -0.44416  -0.44114  -0.42958  -0.42868  -0.42138
 Alpha  occ. eigenvalues --   -0.42057  -0.41904  -0.41812  -0.41480  -0.41357
 Alpha  occ. eigenvalues --   -0.41128  -0.41056  -0.40589  -0.40367  -0.40064
 Alpha  occ. eigenvalues --   -0.39924  -0.39777  -0.39682  -0.39589  -0.39202
 Alpha  occ. eigenvalues --   -0.39033  -0.38866  -0.38723  -0.38388  -0.38295
 Alpha  occ. eigenvalues --   -0.38191  -0.38011  -0.37978  -0.37714  -0.37612
 Alpha  occ. eigenvalues --   -0.37544  -0.37203  -0.36993  -0.36825  -0.36439
 Alpha  occ. eigenvalues --   -0.36359  -0.36284  -0.36103  -0.35776  -0.35633
 Alpha  occ. eigenvalues --   -0.35562  -0.35339  -0.35306  -0.35037  -0.34886
 Alpha  occ. eigenvalues --   -0.34741  -0.34471  -0.34320  -0.34257  -0.34193
 Alpha  occ. eigenvalues --   -0.34147  -0.33634  -0.33504  -0.33340  -0.33184
 Alpha  occ. eigenvalues --   -0.33126  -0.33065  -0.32993  -0.32817  -0.32258
 Alpha  occ. eigenvalues --   -0.32167  -0.32147  -0.32017  -0.31916  -0.31691
 Alpha  occ. eigenvalues --   -0.31524  -0.31453  -0.31291  -0.31029  -0.30781
 Alpha  occ. eigenvalues --   -0.30620  -0.30512  -0.30428  -0.30302  -0.30154
 Alpha  occ. eigenvalues --   -0.29884  -0.29656  -0.29606  -0.29269  -0.28993
 Alpha  occ. eigenvalues --   -0.28701  -0.28069  -0.27963  -0.27829  -0.27784
 Alpha  occ. eigenvalues --   -0.27703  -0.27461  -0.26943  -0.26717  -0.26433
 Alpha  occ. eigenvalues --   -0.26390  -0.25991  -0.25964  -0.25735  -0.25685
 Alpha  occ. eigenvalues --   -0.25383  -0.24965  -0.24487  -0.24123  -0.23718
 Alpha  occ. eigenvalues --   -0.23537  -0.22627  -0.21594  -0.21426  -0.20929
 Alpha  occ. eigenvalues --   -0.20594  -0.19999  -0.18858  -0.18694  -0.16802
 Alpha  occ. eigenvalues --   -0.15692
 Alpha virt. eigenvalues --   -0.11328  -0.06527  -0.05928  -0.04424  -0.03306
 Alpha virt. eigenvalues --   -0.02966  -0.02046  -0.01917  -0.01131  -0.00141
 Alpha virt. eigenvalues --    0.01125   0.01376   0.01941   0.02518   0.02728

 Mulliken charges:
               1
     1  Mg   0.706257
     2  C   -0.045223
     3  C   -0.078206
     4  C   -0.061588
     5  C   -0.068459
     6  N   -0.134239
     7  C   -0.076725
     8  C   -0.025718
     9  C   -0.024370
    10  C    0.003082
    11  C    0.151720
    12  C    0.125822
    13  C    0.137685
    14  C    0.062827
    15  O   -0.209399
    16  O   -0.245359
    17  N   -0.246226
    18  C    0.124607
    19  C   -0.145413
    20  C   -0.005290
    21  C    0.111180
    22  C    0.177448
    23  C   -0.048693
    24  O   -0.177625
    25  C    0.155511
    26  N   -0.224280
    27  C   -0.051871
    28  C    0.053342
    29  C    0.027643
    30  C    0.062510
    31  C    0.141260
    32  C    0.087696
    33  C    0.091477
    34  N   -0.232933
    35  C    0.058371
    36  C   -0.185554
    37  C    0.035425
    38  C    0.094835
    39  C    0.174444
    40  C   -0.032359
    41  O   -0.113156
    42  C    0.110864
    43  C    0.078339
    44  O   -0.128045
    45  O   -0.286934
    46  C    0.210834
    47  C    0.338586
    48  C   -0.128737
    49  C   -0.148237
    50  C    0.119821
    51  C    0.146936
    52  C    0.106822
    53  C    0.114726
    54  C   -0.100279
    55  C    0.103580
    56  C    0.143146
    57  C    0.037656
    58  C    0.100245
    59  C   -0.084074
    60  C    0.107156
    61  C    0.119105
    62  C    0.080457
    63  C    0.080104
    64  C   -0.060519
    65  C    0.098939
    66  C    0.098919
    67  H   -0.063804
    68  H   -0.055522
    69  H   -0.056279
    70  H   -0.017709
    71  H   -0.030609
    72  H   -0.001117
    73  H   -0.017086
    74  H    0.005964
    75  H   -0.014570
    76  H   -0.002746
    77  H    0.007600
    78  H   -0.026166
    79  H    0.018819
    80  H   -0.027228
    81  H   -0.003624
    82  H    0.003221
    83  H   -0.003882
    84  H    0.002249
    85  H   -0.025132
    86  H   -0.039622
    87  H    0.005792
    88  H    0.001370
    89  H    0.009224
    90  H   -0.023861
    91  H   -0.030840
    92  H   -0.007773
    93  H   -0.028231
    94  H   -0.018555
    95  H   -0.016621
    96  H    0.009034
    97  H    0.011184
    98  H   -0.003617
    99  H    0.023060
   100  H    0.017354
   101  H    0.014819
   102  H    0.003204
   103  H   -0.034232
   104  H   -0.027706
   105  H    0.012805
   106  H   -0.016085
   107  H    0.011121
   108  H   -0.027131
   109  H   -0.035189
   110  H   -0.031375
   111  H   -0.034051
   112  H   -0.036078
   113  H   -0.030961
   114  H   -0.040102
   115  H   -0.020325
   116  H   -0.027266
   117  H   -0.007964
   118  H   -0.039939
   119  H   -0.039637
   120  H   -0.037738
   121  H   -0.042559
   122  H   -0.025157
   123  H   -0.027634
   124  H   -0.041559
   125  H   -0.014393
   126  H   -0.028108
   127  H   -0.017394
   128  H   -0.037013
   129  H   -0.032999
   130  H   -0.023667
   131  H   -0.034877
   132  H   -0.050424
   133  H   -0.058517
   134  H   -0.030778
   135  H   -0.006361
   136  H   -0.022167
   137  H   -0.024765
   138  H   -0.023288
   139  H   -0.022439
   140  H   -0.002217
 Sum of Mulliken charges =  -0.00000

 Dipole moment (field-independent basis, Debye):
    X=              4.7984    Y=              1.3583    Z=             -0.6575  Tot=              5.0301
 Quadrupole moment (field-independent basis, Debye-Ang):
   XX=           -385.0002   YY=           -425.2069   ZZ=           -417.4707
   XY=            -23.5130   XZ=             13.0180   YZ=             -4.9486

 Normal termination of Gaussian 16 at Thu Apr 28 06:33:14 2022.
