 Gaussian 16, Revision A.03,
 Gaussian 16:  ES64L-G16RevA.03 25-Dec-2016

 -----------------------------------
 #p cam-b3lyp/Def2SVP td=(nstates=5)
 -----------------------------------

 --------------------------------------------------------
 step_1451_chromophore_27 TDDFT with cam-b3lyp functional
 --------------------------------------------------------
 Symbolic Z-matrix:
 Charge =  0 Multiplicity = 1

                         Standard orientation:
 ---------------------------------------------------------------------
 Center     Atomic      Atomic             Coordinates (Angstroms)
 Number     Number       Type             X           Y           Z
 ---------------------------------------------------------------------
      1         12           0       -4.284869    0.851014   -0.173118
      2          6           0       -3.891406   -2.619960    0.423674
      3          6           0       -0.831981    1.127370    0.259293
      4          6           0       -4.609187    4.144247   -0.019987
      5          6           0       -7.761544    0.417037   -0.128618
      6          7           0       -2.595393   -0.580330    0.449977
      7          6           0       -2.638436   -1.946167    0.416280
      8          6           0       -1.241433   -2.522152    0.397467
      9          6           0       -0.362957   -1.284645    0.741007
     10          6           0       -1.362572   -0.184869    0.360496
     11          6           0        0.080558   -1.262690    2.219280
     12          6           0       -1.044718   -3.108426   -1.029409
     13          6           0       -0.321289   -4.469906   -1.022269
     14          6           0        0.956215   -4.516760   -1.914748
     15          8           0        0.927766   -4.438245   -3.138519
     16          8           0        2.099668   -4.485872   -1.196476
     17          7           0       -2.915199    2.433942   -0.039782
     18          6           0       -1.559797    2.392805    0.159491
     19          6           0       -0.990863    3.702288    0.104234
     20          6           0       -2.125713    4.590870   -0.009484
     21          6           0       -3.284223    3.694501    0.003015
     22          6           0        0.469744    3.948028    0.020610
     23          6           0       -2.146594    6.172501   -0.059647
     24          8           0       -3.174593    6.864432   -0.121438
     25          6           0       -0.889559    6.919412   -0.121459
     26          7           0       -5.922806    2.101902   -0.081795
     27          6           0       -5.852847    3.431851   -0.056194
     28          6           0       -7.182026    4.109486   -0.061637
     29          6           0       -8.173922    2.966108   -0.391957
     30          6           0       -7.229970    1.732754   -0.267781
     31          6           0       -7.456786    4.738891    1.377153
     32          6           0       -8.911729    3.022464   -1.725210
     33          6           0      -10.034475    3.923494   -2.012449
     34          7           0       -5.644870   -0.712336    0.206924
     35          6           0       -6.984108   -0.770034    0.248990
     36          6           0       -7.431558   -2.133274    0.460505
     37          6           0       -6.226572   -2.877543    0.549248
     38          6           0       -5.165632   -1.981557    0.335370
     39          6           0       -8.797021   -2.634337    0.584633
     40          6           0       -5.666164   -4.224724    0.857851
     41          8           0       -6.267018   -5.260923    1.016274
     42          6           0       -4.143170   -4.073065    0.684635
     43          6           0       -3.461979   -4.590055    1.916626
     44          8           0       -3.675790   -4.281280    3.041364
     45          8           0       -2.599776   -5.574724    1.513783
     46          6           0       -1.933390   -6.396677    2.530615
     47          6           0        3.348406   -4.630290   -1.930488
     48          6           0        3.937802   -3.311374   -2.354138
     49          6           0        5.148220   -2.755566   -2.112933
     50          6           0        6.340312   -3.496053   -1.320667
     51          6           0        5.446310   -1.342036   -2.588150
     52          6           0        6.218094   -1.161920   -3.826919
     53          6           0        7.550984   -0.381277   -3.717156
     54          6           0        7.258746    1.160161   -3.789994
     55          6           0        6.922273    1.689522   -5.235813
     56          6           0        8.344840    2.000023   -3.162518
     57          6           0        8.359067    1.962366   -1.599488
     58          6           0        9.631268    1.335305   -1.035877
     59          6           0        9.491885    1.090003    0.500746
     60          6           0       10.336297   -0.100947    0.898358
     61          6           0        9.984482    2.296121    1.351883
     62          6           0        9.032150    2.694223    2.518433
     63          6           0        9.695276    2.409996    3.934510
     64          6           0        9.277075    1.141690    4.605513
     65          6           0        8.017253    1.382412    5.514476
     66          6           0       10.442974    0.432875    5.398685
     67          1           0        0.253584    1.165171    0.374822
     68          1           0       -4.750444    5.226492    0.012190
     69          1           0       -8.836534    0.230410   -0.160696
     70          1           0       -1.043167   -3.291804    1.143048
     71          1           0        0.524375   -1.365759    0.113862
     72          1           0       -0.141822   -0.316414    2.713375
     73          1           0        1.166203   -1.283652    2.130900
     74          1           0       -0.237161   -2.144575    2.776766
     75          1           0       -0.413618   -2.381527   -1.541658
     76          1           0       -1.946742   -3.188704   -1.636281
     77          1           0       -1.031294   -5.272022   -1.224575
     78          1           0        0.013335   -4.692329   -0.008862
     79          1           0        0.786060    4.358708   -0.937206
     80          1           0        1.004929    3.012671    0.182442
     81          1           0        0.764154    4.590738    0.850971
     82          1           0       -1.050902    7.980264   -0.311708
     83          1           0       -0.255480    6.487829   -0.896845
     84          1           0       -0.344567    6.719757    0.801461
     85          1           0       -7.064118    4.737294   -0.945189
     86          1           0       -8.943493    2.958504    0.380139
     87          1           0       -6.524266    4.662919    1.936014
     88          1           0       -8.259365    4.212921    1.894518
     89          1           0       -7.695339    5.787772    1.197690
     90          1           0       -9.316485    2.031770   -1.930853
     91          1           0       -8.164970    3.355104   -2.445537
     92          1           0       -9.914697    4.474699   -2.944358
     93          1           0      -10.155046    4.620318   -1.183565
     94          1           0      -11.021079    3.463997   -2.073827
     95          1           0       -9.498625   -2.032398    0.006848
     96          1           0       -9.124810   -2.585276    1.623610
     97          1           0       -8.774606   -3.667336    0.237369
     98          1           0       -3.822770   -4.647156   -0.184121
     99          1           0       -1.686761   -5.894632    3.465474
    100          1           0       -1.086669   -6.841943    2.008013
    101          1           0       -2.608740   -7.206932    2.804546
    102          1           0        3.307794   -5.263165   -2.816990
    103          1           0        4.025035   -5.122762   -1.232623
    104          1           0        3.201443   -2.843209   -3.006357
    105          1           0        7.092782   -3.602077   -2.102827
    106          1           0        6.040536   -4.489881   -0.990019
    107          1           0        6.619057   -2.910578   -0.444560
    108          1           0        5.842665   -0.996098   -1.633472
    109          1           0        4.555854   -0.729274   -2.727077
    110          1           0        5.584766   -0.728745   -4.600671
    111          1           0        6.515062   -2.128199   -4.234743
    112          1           0        8.146321   -0.709150   -4.570319
    113          1           0        8.148432   -0.505968   -2.814406
    114          1           0        6.345652    1.377069   -3.235321
    115          1           0        7.296310    1.099328   -6.072620
    116          1           0        7.454523    2.623443   -5.412525
    117          1           0        5.841713    1.823696   -5.288114
    118          1           0        8.190629    3.024530   -3.502910
    119          1           0        9.347050    1.607695   -3.330846
    120          1           0        7.423904    1.476410   -1.321701
    121          1           0        8.302248    2.967128   -1.180307
    122          1           0       10.407138    2.079029   -1.212560
    123          1           0        9.863588    0.400008   -1.544726
    124          1           0        8.484497    0.774900    0.773033
    125          1           0       11.211483   -0.191895    0.255034
    126          1           0        9.671790   -0.959044    0.802850
    127          1           0       10.651671   -0.063695    1.940883
    128          1           0       10.101969    3.149419    0.683768
    129          1           0       10.914485    2.035227    1.857721
    130          1           0        8.121567    2.095847    2.537370
    131          1           0        8.882657    3.763621    2.369844
    132          1           0        9.683924    3.321240    4.533394
    133          1           0       10.781452    2.462587    3.852014
    134          1           0        8.927680    0.469361    3.821330
    135          1           0        7.850342    2.360662    5.964677
    136          1           0        7.952455    0.638389    6.307406
    137          1           0        7.168624    1.187520    4.858628
    138          1           0       11.448520    0.755509    5.127778
    139          1           0       10.535056   -0.586936    5.026089
    140          1           0       10.284827    0.456642    6.476806
 ---------------------------------------------------------------------

 SCF Done:  E(RCAM-B3LYP) =  -3007.18092068     A.U. after   17 cycles

 Excitation energies and oscillator strengths:

 Excited State   1:      Singlet-A      1.7316 eV  716.01 nm  f=0.3760  <S**2>=0.000
     245 -> 248        0.18650
     246 -> 247        0.68417
     245 <- 248        0.10866
 This state for optimization and/or second-order correction.
 Total Energy, E(TD-HF/TD-DFT) =  -3007.11728589
 Copying the excited state density for this state as the 1-particle RhoCI density.

 Excited State   2:      Singlet-A      2.1878 eV  566.70 nm  f=0.1380  <S**2>=0.000
     245 -> 247        0.65009
     246 -> 248       -0.26873

 Excited State   3:      Singlet-A      3.4025 eV  364.39 nm  f=0.0064  <S**2>=0.000
     243 -> 247       -0.24536
     244 -> 247        0.64854

 Excited State   4:      Singlet-A      3.5169 eV  352.54 nm  f=0.1397  <S**2>=0.000
     240 -> 247       -0.15669
     242 -> 247        0.19671
     243 -> 247        0.44824
     244 -> 247        0.20350
     245 -> 247        0.11556
     246 -> 248        0.40847

 Excited State   5:      Singlet-A      3.6426 eV  340.37 nm  f=0.4508  <S**2>=0.000
     240 -> 247        0.21548
     242 -> 247        0.16861
     242 -> 249        0.16548
     242 -> 251       -0.12026
     243 -> 247       -0.34932
     244 -> 247       -0.10340
     245 -> 247        0.20590
     246 -> 248        0.40585

 The electronic state is 1-A.
 Alpha  occ. eigenvalues --  -46.89319 -19.25718 -19.25117 -19.20201 -19.19373
 Alpha  occ. eigenvalues --  -19.19118 -19.18908 -14.42042 -14.41882 -14.39538
 Alpha  occ. eigenvalues --  -14.38770 -10.39466 -10.39213 -10.35743 -10.34729
 Alpha  occ. eigenvalues --  -10.32080 -10.32074 -10.30777 -10.30719 -10.30709
 Alpha  occ. eigenvalues --  -10.30541 -10.30367 -10.29985 -10.28955 -10.28771
 Alpha  occ. eigenvalues --  -10.28265 -10.28146 -10.28052 -10.27926 -10.27788
 Alpha  occ. eigenvalues --  -10.27681 -10.27608 -10.27476 -10.27396 -10.27379
 Alpha  occ. eigenvalues --  -10.27316 -10.27316 -10.27282 -10.27224 -10.27083
 Alpha  occ. eigenvalues --  -10.26779 -10.26444 -10.26274 -10.26195 -10.26049
 Alpha  occ. eigenvalues --  -10.25861 -10.25757 -10.25711 -10.25578 -10.25572
 Alpha  occ. eigenvalues --  -10.25508 -10.25467 -10.25413 -10.25304 -10.25281
 Alpha  occ. eigenvalues --  -10.25090 -10.24844 -10.24844 -10.24798 -10.24719
 Alpha  occ. eigenvalues --  -10.24715 -10.24699 -10.24548 -10.24465 -10.24312
 Alpha  occ. eigenvalues --  -10.24275  -3.17815  -1.92703  -1.92275  -1.92110
 Alpha  occ. eigenvalues --   -1.17224  -1.17133  -1.10354  -1.09450  -1.09155
 Alpha  occ. eigenvalues --   -1.07595  -1.05633  -1.04784  -1.04103  -1.03011
 Alpha  occ. eigenvalues --   -0.92781  -0.90994  -0.90182  -0.89873  -0.89375
 Alpha  occ. eigenvalues --   -0.88856  -0.88551  -0.87709  -0.87120  -0.86924
 Alpha  occ. eigenvalues --   -0.85862  -0.85647  -0.84683  -0.83882  -0.83453
 Alpha  occ. eigenvalues --   -0.82760  -0.82664  -0.81564  -0.81022  -0.80276
 Alpha  occ. eigenvalues --   -0.79913  -0.78401  -0.77766  -0.77480  -0.76538
 Alpha  occ. eigenvalues --   -0.76202  -0.75730  -0.75227  -0.74931  -0.74412
 Alpha  occ. eigenvalues --   -0.73695  -0.72235  -0.71466  -0.70428  -0.69130
 Alpha  occ. eigenvalues --   -0.68703  -0.67849  -0.67323  -0.66881  -0.65798
 Alpha  occ. eigenvalues --   -0.65649  -0.65052  -0.64672  -0.64421  -0.64009
 Alpha  occ. eigenvalues --   -0.63758  -0.63605  -0.62686  -0.62508  -0.60641
 Alpha  occ. eigenvalues --   -0.60375  -0.59926  -0.59134  -0.58928  -0.58355
 Alpha  occ. eigenvalues --   -0.57934  -0.57478  -0.56277  -0.55903  -0.55336
 Alpha  occ. eigenvalues --   -0.55175  -0.54873  -0.54804  -0.54506  -0.54285
 Alpha  occ. eigenvalues --   -0.54021  -0.53864  -0.53441  -0.53026  -0.52902
 Alpha  occ. eigenvalues --   -0.52799  -0.52539  -0.52431  -0.52158  -0.52081
 Alpha  occ. eigenvalues --   -0.51590  -0.51528  -0.51317  -0.50903  -0.50672
 Alpha  occ. eigenvalues --   -0.50615  -0.50562  -0.50351  -0.50110  -0.49967
 Alpha  occ. eigenvalues --   -0.49766  -0.49634  -0.49264  -0.49142  -0.48989
 Alpha  occ. eigenvalues --   -0.48735  -0.48452  -0.48337  -0.48150  -0.47901
 Alpha  occ. eigenvalues --   -0.47695  -0.47494  -0.47288  -0.46898  -0.46873
 Alpha  occ. eigenvalues --   -0.46693  -0.46452  -0.46338  -0.46100  -0.46040
 Alpha  occ. eigenvalues --   -0.45967  -0.45495  -0.45225  -0.45180  -0.44994
 Alpha  occ. eigenvalues --   -0.44734  -0.44668  -0.44642  -0.44585  -0.44116
 Alpha  occ. eigenvalues --   -0.43742  -0.43641  -0.43525  -0.43386  -0.43306
 Alpha  occ. eigenvalues --   -0.43147  -0.42976  -0.42919  -0.42793  -0.42425
 Alpha  occ. eigenvalues --   -0.42154  -0.42006  -0.41791  -0.41689  -0.41436
 Alpha  occ. eigenvalues --   -0.41363  -0.41289  -0.40793  -0.40536  -0.40151
 Alpha  occ. eigenvalues --   -0.39826  -0.39173  -0.38802  -0.38761  -0.38676
 Alpha  occ. eigenvalues --   -0.38646  -0.38327  -0.38020  -0.37510  -0.37494
 Alpha  occ. eigenvalues --   -0.37196  -0.37089  -0.36722  -0.36704  -0.36633
 Alpha  occ. eigenvalues --   -0.36301  -0.35626  -0.35202  -0.34960  -0.34587
 Alpha  occ. eigenvalues --   -0.34495  -0.33541  -0.32736  -0.31223  -0.30882
 Alpha  occ. eigenvalues --   -0.30778  -0.30654  -0.30122  -0.28965  -0.23432
 Alpha  occ. eigenvalues --   -0.21063
 Alpha virt. eigenvalues --   -0.08469  -0.01302   0.00644   0.01663   0.02632
 Alpha virt. eigenvalues --    0.04705   0.05371   0.05933   0.06104   0.07212
 Alpha virt. eigenvalues --    0.07355   0.07976   0.08520   0.08726   0.09031

 Mulliken charges:
               1
     1  Mg   0.837223
     2  C   -0.066112
     3  C   -0.086191
     4  C   -0.082860
     5  C   -0.070779
     6  N   -0.199060
     7  C   -0.043309
     8  C   -0.074645
     9  C   -0.074375
    10  C    0.016565
    11  C    0.093740
    12  C    0.072347
    13  C    0.073147
    14  C    0.142184
    15  O   -0.250127
    16  O   -0.309793
    17  N   -0.336648
    18  C    0.131611
    19  C   -0.150459
    20  C   -0.064730
    21  C    0.135516
    22  C    0.119209
    23  C    0.034818
    24  O   -0.217290
    25  C    0.070607
    26  N   -0.299474
    27  C   -0.022126
    28  C   -0.015024
    29  C   -0.021737
    30  C    0.072358
    31  C    0.084955
    32  C    0.035736
    33  C    0.026844
    34  N   -0.320745
    35  C    0.066597
    36  C   -0.188763
    37  C   -0.040352
    38  C    0.127935
    39  C    0.122108
    40  C    0.067041
    41  O   -0.152167
    42  C    0.032230
    43  C    0.165251
    44  O   -0.164673
    45  O   -0.351675
    46  C    0.171744
    47  C    0.295593
    48  C   -0.141587
    49  C   -0.175530
    50  C    0.069505
    51  C    0.089734
    52  C    0.044250
    53  C    0.065409
    54  C   -0.155336
    55  C    0.045320
    56  C    0.085595
    57  C   -0.009605
    58  C    0.042418
    59  C   -0.138142
    60  C    0.053852
    61  C    0.065687
    62  C    0.025531
    63  C    0.023679
    64  C   -0.124213
    65  C    0.042301
    66  C    0.039788
    67  H   -0.029343
    68  H   -0.012898
    69  H   -0.022302
    70  H    0.013500
    71  H    0.004817
    72  H    0.025101
    73  H    0.007673
    74  H    0.030469
    75  H    0.015243
    76  H    0.029176
    77  H    0.038752
    78  H    0.007279
    79  H    0.045540
    80  H    0.003021
    81  H    0.023671
    82  H    0.039227
    83  H    0.023310
    84  H    0.029200
    85  H    0.010824
    86  H   -0.004547
    87  H    0.031299
    88  H    0.026099
    89  H    0.032735
    90  H    0.005189
    91  H   -0.004403
    92  H    0.016924
    93  H   -0.004831
    94  H    0.006525
    95  H    0.005621
    96  H    0.034109
    97  H    0.036175
    98  H    0.039387
    99  H    0.047353
   100  H    0.038605
   101  H    0.037854
   102  H    0.035865
   103  H   -0.003251
   104  H    0.005030
   105  H    0.033837
   106  H    0.007399
   107  H    0.032713
   108  H   -0.000836
   109  H   -0.003453
   110  H   -0.000805
   111  H   -0.003310
   112  H   -0.006001
   113  H   -0.007843
   114  H   -0.009459
   115  H    0.004290
   116  H   -0.001386
   117  H    0.014591
   118  H   -0.008471
   119  H   -0.009967
   120  H   -0.012156
   121  H   -0.013743
   122  H    0.003580
   123  H   -0.000752
   124  H   -0.011073
   125  H    0.010337
   126  H   -0.004093
   127  H    0.002675
   128  H   -0.008548
   129  H   -0.003755
   130  H    0.001094
   131  H   -0.003587
   132  H   -0.018984
   133  H   -0.027988
   134  H   -0.001360
   135  H    0.017058
   136  H    0.002862
   137  H   -0.001862
   138  H    0.001316
   139  H    0.001532
   140  H    0.021250
 Sum of Mulliken charges =  -0.00000

 Dipole moment (field-independent basis, Debye):
    X=              5.6568    Y=              2.0359    Z=             -0.6593  Tot=              6.0481
 Quadrupole moment (field-independent basis, Debye-Ang):
   XX=           -387.3038   YY=           -420.4223   ZZ=           -418.1466
   XY=            -25.4345   XZ=             14.0814   YZ=             -5.4768

 Normal termination of Gaussian 16 at Thu Apr 28 05:09:54 2022.
