 Gaussian 16, Revision A.03,
 Gaussian 16:  ES64L-G16RevA.03 25-Dec-2016

 ---------------------------------
 #p PBE1PBE/Def2SVP td=(nstates=5)
 ---------------------------------

 ------------------------------------------------------
 step_1451_chromophore_27 TDDFT with PBE1PBE functional
 ------------------------------------------------------
 Symbolic Z-matrix:
 Charge =  0 Multiplicity = 1

                         Standard orientation:
 ---------------------------------------------------------------------
 Center     Atomic      Atomic             Coordinates (Angstroms)
 Number     Number       Type             X           Y           Z
 ---------------------------------------------------------------------
      1         12           0       -4.284869    0.851014   -0.173118
      2          6           0       -3.891406   -2.619960    0.423674
      3          6           0       -0.831981    1.127370    0.259293
      4          6           0       -4.609187    4.144247   -0.019987
      5          6           0       -7.761544    0.417037   -0.128618
      6          7           0       -2.595393   -0.580330    0.449977
      7          6           0       -2.638436   -1.946167    0.416280
      8          6           0       -1.241433   -2.522152    0.397467
      9          6           0       -0.362957   -1.284645    0.741007
     10          6           0       -1.362572   -0.184869    0.360496
     11          6           0        0.080558   -1.262690    2.219280
     12          6           0       -1.044718   -3.108426   -1.029409
     13          6           0       -0.321289   -4.469906   -1.022269
     14          6           0        0.956215   -4.516760   -1.914748
     15          8           0        0.927766   -4.438245   -3.138519
     16          8           0        2.099668   -4.485872   -1.196476
     17          7           0       -2.915199    2.433942   -0.039782
     18          6           0       -1.559797    2.392805    0.159491
     19          6           0       -0.990863    3.702288    0.104234
     20          6           0       -2.125713    4.590870   -0.009484
     21          6           0       -3.284223    3.694501    0.003015
     22          6           0        0.469744    3.948028    0.020610
     23          6           0       -2.146594    6.172501   -0.059647
     24          8           0       -3.174593    6.864432   -0.121438
     25          6           0       -0.889559    6.919412   -0.121459
     26          7           0       -5.922806    2.101902   -0.081795
     27          6           0       -5.852847    3.431851   -0.056194
     28          6           0       -7.182026    4.109486   -0.061637
     29          6           0       -8.173922    2.966108   -0.391957
     30          6           0       -7.229970    1.732754   -0.267781
     31          6           0       -7.456786    4.738891    1.377153
     32          6           0       -8.911729    3.022464   -1.725210
     33          6           0      -10.034475    3.923494   -2.012449
     34          7           0       -5.644870   -0.712336    0.206924
     35          6           0       -6.984108   -0.770034    0.248990
     36          6           0       -7.431558   -2.133274    0.460505
     37          6           0       -6.226572   -2.877543    0.549248
     38          6           0       -5.165632   -1.981557    0.335370
     39          6           0       -8.797021   -2.634337    0.584633
     40          6           0       -5.666164   -4.224724    0.857851
     41          8           0       -6.267018   -5.260923    1.016274
     42          6           0       -4.143170   -4.073065    0.684635
     43          6           0       -3.461979   -4.590055    1.916626
     44          8           0       -3.675790   -4.281280    3.041364
     45          8           0       -2.599776   -5.574724    1.513783
     46          6           0       -1.933390   -6.396677    2.530615
     47          6           0        3.348406   -4.630290   -1.930488
     48          6           0        3.937802   -3.311374   -2.354138
     49          6           0        5.148220   -2.755566   -2.112933
     50          6           0        6.340312   -3.496053   -1.320667
     51          6           0        5.446310   -1.342036   -2.588150
     52          6           0        6.218094   -1.161920   -3.826919
     53          6           0        7.550984   -0.381277   -3.717156
     54          6           0        7.258746    1.160161   -3.789994
     55          6           0        6.922273    1.689522   -5.235813
     56          6           0        8.344840    2.000023   -3.162518
     57          6           0        8.359067    1.962366   -1.599488
     58          6           0        9.631268    1.335305   -1.035877
     59          6           0        9.491885    1.090003    0.500746
     60          6           0       10.336297   -0.100947    0.898358
     61          6           0        9.984482    2.296121    1.351883
     62          6           0        9.032150    2.694223    2.518433
     63          6           0        9.695276    2.409996    3.934510
     64          6           0        9.277075    1.141690    4.605513
     65          6           0        8.017253    1.382412    5.514476
     66          6           0       10.442974    0.432875    5.398685
     67          1           0        0.253584    1.165171    0.374822
     68          1           0       -4.750444    5.226492    0.012190
     69          1           0       -8.836534    0.230410   -0.160696
     70          1           0       -1.043167   -3.291804    1.143048
     71          1           0        0.524375   -1.365759    0.113862
     72          1           0       -0.141822   -0.316414    2.713375
     73          1           0        1.166203   -1.283652    2.130900
     74          1           0       -0.237161   -2.144575    2.776766
     75          1           0       -0.413618   -2.381527   -1.541658
     76          1           0       -1.946742   -3.188704   -1.636281
     77          1           0       -1.031294   -5.272022   -1.224575
     78          1           0        0.013335   -4.692329   -0.008862
     79          1           0        0.786060    4.358708   -0.937206
     80          1           0        1.004929    3.012671    0.182442
     81          1           0        0.764154    4.590738    0.850971
     82          1           0       -1.050902    7.980264   -0.311708
     83          1           0       -0.255480    6.487829   -0.896845
     84          1           0       -0.344567    6.719757    0.801461
     85          1           0       -7.064118    4.737294   -0.945189
     86          1           0       -8.943493    2.958504    0.380139
     87          1           0       -6.524266    4.662919    1.936014
     88          1           0       -8.259365    4.212921    1.894518
     89          1           0       -7.695339    5.787772    1.197690
     90          1           0       -9.316485    2.031770   -1.930853
     91          1           0       -8.164970    3.355104   -2.445537
     92          1           0       -9.914697    4.474699   -2.944358
     93          1           0      -10.155046    4.620318   -1.183565
     94          1           0      -11.021079    3.463997   -2.073827
     95          1           0       -9.498625   -2.032398    0.006848
     96          1           0       -9.124810   -2.585276    1.623610
     97          1           0       -8.774606   -3.667336    0.237369
     98          1           0       -3.822770   -4.647156   -0.184121
     99          1           0       -1.686761   -5.894632    3.465474
    100          1           0       -1.086669   -6.841943    2.008013
    101          1           0       -2.608740   -7.206932    2.804546
    102          1           0        3.307794   -5.263165   -2.816990
    103          1           0        4.025035   -5.122762   -1.232623
    104          1           0        3.201443   -2.843209   -3.006357
    105          1           0        7.092782   -3.602077   -2.102827
    106          1           0        6.040536   -4.489881   -0.990019
    107          1           0        6.619057   -2.910578   -0.444560
    108          1           0        5.842665   -0.996098   -1.633472
    109          1           0        4.555854   -0.729274   -2.727077
    110          1           0        5.584766   -0.728745   -4.600671
    111          1           0        6.515062   -2.128199   -4.234743
    112          1           0        8.146321   -0.709150   -4.570319
    113          1           0        8.148432   -0.505968   -2.814406
    114          1           0        6.345652    1.377069   -3.235321
    115          1           0        7.296310    1.099328   -6.072620
    116          1           0        7.454523    2.623443   -5.412525
    117          1           0        5.841713    1.823696   -5.288114
    118          1           0        8.190629    3.024530   -3.502910
    119          1           0        9.347050    1.607695   -3.330846
    120          1           0        7.423904    1.476410   -1.321701
    121          1           0        8.302248    2.967128   -1.180307
    122          1           0       10.407138    2.079029   -1.212560
    123          1           0        9.863588    0.400008   -1.544726
    124          1           0        8.484497    0.774900    0.773033
    125          1           0       11.211483   -0.191895    0.255034
    126          1           0        9.671790   -0.959044    0.802850
    127          1           0       10.651671   -0.063695    1.940883
    128          1           0       10.101969    3.149419    0.683768
    129          1           0       10.914485    2.035227    1.857721
    130          1           0        8.121567    2.095847    2.537370
    131          1           0        8.882657    3.763621    2.369844
    132          1           0        9.683924    3.321240    4.533394
    133          1           0       10.781452    2.462587    3.852014
    134          1           0        8.927680    0.469361    3.821330
    135          1           0        7.850342    2.360662    5.964677
    136          1           0        7.952455    0.638389    6.307406
    137          1           0        7.168624    1.187520    4.858628
    138          1           0       11.448520    0.755509    5.127778
    139          1           0       10.535056   -0.586936    5.026089
    140          1           0       10.284827    0.456642    6.476806
 ---------------------------------------------------------------------

 SCF Done:  E(RPBE1PBE) =  -3005.37106486     A.U. after   15 cycles

 Excitation energies and oscillator strengths:

 Excited State   1:      Singlet-A      1.8745 eV  661.44 nm  f=0.3645  <S**2>=0.000
     245 -> 248        0.18295
     246 -> 247        0.69028
     246 <- 247       -0.10214
 This state for optimization and/or second-order correction.
 Total Energy, E(TD-HF/TD-DFT) =  -3005.30217950
 Copying the excited state density for this state as the 1-particle RhoCI density.

 Excited State   2:      Singlet-A      2.1964 eV  564.48 nm  f=0.1305  <S**2>=0.000
     245 -> 247        0.65967
     246 -> 248       -0.24692

 Excited State   3:      Singlet-A      3.0293 eV  409.29 nm  f=0.0046  <S**2>=0.000
     244 -> 247        0.69260

 Excited State   4:      Singlet-A      3.1403 eV  394.82 nm  f=0.0001  <S**2>=0.000
     241 -> 247        0.61613
     241 -> 249       -0.14935
     241 -> 250       -0.10430
     242 -> 247        0.27114

 Excited State   5:      Singlet-A      3.1526 eV  393.28 nm  f=0.0023  <S**2>=0.000
     241 -> 247        0.16217
     242 -> 247       -0.40248
     242 -> 249       -0.12948
     243 -> 247        0.51511

 The electronic state is 1-A.
 Alpha  occ. eigenvalues --  -46.92715 -19.26422 -19.25810 -19.20415 -19.19678
 Alpha  occ. eigenvalues --  -19.19258 -19.19170 -14.41451 -14.41423 -14.39063
 Alpha  occ. eigenvalues --  -14.38528 -10.36544 -10.36245 -10.32705 -10.32023
 Alpha  occ. eigenvalues --  -10.29469 -10.29323 -10.28694 -10.28616 -10.28261
 Alpha  occ. eigenvalues --  -10.28087 -10.27809 -10.27396 -10.26939 -10.26137
 Alpha  occ. eigenvalues --  -10.26071 -10.25981 -10.25878 -10.25535 -10.25463
 Alpha  occ. eigenvalues --  -10.25418 -10.25365 -10.25171 -10.25150 -10.25004
 Alpha  occ. eigenvalues --  -10.24903 -10.24882 -10.24858 -10.24758 -10.24726
 Alpha  occ. eigenvalues --  -10.24629 -10.24099 -10.23756 -10.23555 -10.23478
 Alpha  occ. eigenvalues --  -10.23322 -10.23310 -10.23237 -10.23234 -10.23137
 Alpha  occ. eigenvalues --  -10.23118 -10.23108 -10.22979 -10.22855 -10.22844
 Alpha  occ. eigenvalues --  -10.22686 -10.22325 -10.22267 -10.22259 -10.22242
 Alpha  occ. eigenvalues --  -10.22237 -10.22123 -10.22101 -10.22092 -10.22028
 Alpha  occ. eigenvalues --  -10.21686  -3.14792  -1.87619  -1.87170  -1.87008
 Alpha  occ. eigenvalues --   -1.12019  -1.11985  -1.05243  -1.04029  -1.03997
 Alpha  occ. eigenvalues --   -1.02480  -1.00221  -0.99365  -0.98725  -0.97868
 Alpha  occ. eigenvalues --   -0.87217  -0.85081  -0.84307  -0.84094  -0.83661
 Alpha  occ. eigenvalues --   -0.82958  -0.82691  -0.81825  -0.81320  -0.81250
 Alpha  occ. eigenvalues --   -0.80310  -0.79878  -0.78869  -0.78226  -0.77718
 Alpha  occ. eigenvalues --   -0.76950  -0.76731  -0.75828  -0.75246  -0.74485
 Alpha  occ. eigenvalues --   -0.74234  -0.72569  -0.72073  -0.71823  -0.70685
 Alpha  occ. eigenvalues --   -0.70578  -0.69802  -0.69578  -0.69054  -0.68576
 Alpha  occ. eigenvalues --   -0.68024  -0.66757  -0.65861  -0.64726  -0.63547
 Alpha  occ. eigenvalues --   -0.62946  -0.62407  -0.61546  -0.61215  -0.60114
 Alpha  occ. eigenvalues --   -0.60006  -0.59458  -0.59189  -0.58657  -0.58318
 Alpha  occ. eigenvalues --   -0.58235  -0.57876  -0.57118  -0.56903  -0.55062
 Alpha  occ. eigenvalues --   -0.54834  -0.54323  -0.53712  -0.53505  -0.52880
 Alpha  occ. eigenvalues --   -0.52338  -0.52146  -0.50786  -0.50364  -0.49876
 Alpha  occ. eigenvalues --   -0.49736  -0.49341  -0.49222  -0.49119  -0.48869
 Alpha  occ. eigenvalues --   -0.48494  -0.48382  -0.48069  -0.47488  -0.47322
 Alpha  occ. eigenvalues --   -0.47220  -0.47046  -0.46931  -0.46738  -0.46579
 Alpha  occ. eigenvalues --   -0.46167  -0.46077  -0.45810  -0.45517  -0.45265
 Alpha  occ. eigenvalues --   -0.45159  -0.44981  -0.44883  -0.44645  -0.44525
 Alpha  occ. eigenvalues --   -0.44293  -0.44172  -0.43909  -0.43782  -0.43567
 Alpha  occ. eigenvalues --   -0.43325  -0.43076  -0.42938  -0.42779  -0.42564
 Alpha  occ. eigenvalues --   -0.42272  -0.42152  -0.41915  -0.41535  -0.41513
 Alpha  occ. eigenvalues --   -0.41298  -0.41094  -0.41016  -0.40829  -0.40776
 Alpha  occ. eigenvalues --   -0.40668  -0.40254  -0.40029  -0.39809  -0.39751
 Alpha  occ. eigenvalues --   -0.39510  -0.39469  -0.39461  -0.39250  -0.38791
 Alpha  occ. eigenvalues --   -0.38525  -0.38475  -0.38314  -0.38245  -0.38029
 Alpha  occ. eigenvalues --   -0.37932  -0.37740  -0.37714  -0.37628  -0.37284
 Alpha  occ. eigenvalues --   -0.37037  -0.36719  -0.36584  -0.36525  -0.36241
 Alpha  occ. eigenvalues --   -0.36092  -0.35971  -0.35571  -0.35378  -0.35046
 Alpha  occ. eigenvalues --   -0.34752  -0.34070  -0.33693  -0.33475  -0.33455
 Alpha  occ. eigenvalues --   -0.33424  -0.33075  -0.32970  -0.32497  -0.32361
 Alpha  occ. eigenvalues --   -0.32140  -0.31970  -0.31763  -0.31602  -0.31504
 Alpha  occ. eigenvalues --   -0.31368  -0.30540  -0.30139  -0.29860  -0.29708
 Alpha  occ. eigenvalues --   -0.29521  -0.28412  -0.28311  -0.26438  -0.26068
 Alpha  occ. eigenvalues --   -0.25807  -0.25748  -0.25585  -0.24778  -0.20405
 Alpha  occ. eigenvalues --   -0.18646
 Alpha virt. eigenvalues --   -0.10914  -0.04832  -0.03600  -0.01813  -0.01033
 Alpha virt. eigenvalues --    0.00164   0.00979   0.01276   0.01755   0.02921
 Alpha virt. eigenvalues --    0.04109   0.04281   0.04543   0.05387   0.05715

 Mulliken charges:
               1
     1  Mg   0.979400
     2  C   -0.073739
     3  C   -0.071447
     4  C   -0.061362
     5  C   -0.063359
     6  N   -0.303123
     7  C    0.028054
     8  C   -0.153579
     9  C   -0.146406
    10  C    0.048324
    11  C    0.040578
    12  C    0.029627
    13  C   -0.001687
    14  C    0.207173
    15  O   -0.281111
    16  O   -0.340296
    17  N   -0.454718
    18  C    0.152621
    19  C   -0.179858
    20  C   -0.100395
    21  C    0.154333
    22  C    0.057469
    23  C    0.081970
    24  O   -0.255727
    25  C   -0.003023
    26  N   -0.405171
    27  C    0.013908
    28  C   -0.097298
    29  C   -0.095265
    30  C    0.103107
    31  C    0.028696
    32  C   -0.023856
    33  C   -0.042549
    34  N   -0.447283
    35  C    0.104838
    36  C   -0.218120
    37  C   -0.087012
    38  C    0.180335
    39  C    0.066262
    40  C    0.172017
    41  O   -0.198583
    42  C   -0.082105
    43  C    0.259799
    44  O   -0.203161
    45  O   -0.384836
    46  C    0.116648
    47  C    0.243834
    48  C   -0.143483
    49  C   -0.221738
    50  C    0.006453
    51  C    0.032490
    52  C   -0.023064
    53  C    0.004559
    54  C   -0.240996
    55  C   -0.010644
    56  C    0.025629
    57  C   -0.065797
    58  C   -0.020598
    59  C   -0.221206
    60  C   -0.008103
    61  C    0.012402
    62  C   -0.040182
    63  C   -0.023135
    64  C   -0.224280
    65  C   -0.015029
    66  C   -0.019648
    67  H    0.001710
    68  H    0.019667
    69  H    0.008941
    70  H    0.052819
    71  H    0.040155
    72  H    0.053004
    73  H    0.035515
    74  H    0.055963
    75  H    0.048615
    76  H    0.061226
    77  H    0.070065
    78  H    0.040688
    79  H    0.070920
    80  H    0.031389
    81  H    0.051123
    82  H    0.065233
    83  H    0.050693
    84  H    0.056388
    85  H    0.047320
    86  H    0.032719
    87  H    0.059793
    88  H    0.051761
    89  H    0.059804
    90  H    0.038312
    91  H    0.029305
    92  H    0.044267
    93  H    0.024078
    94  H    0.034042
    95  H    0.033964
    96  H    0.063625
    97  H    0.064532
    98  H    0.077754
    99  H    0.067967
   100  H    0.060059
   101  H    0.060284
   102  H    0.063520
   103  H    0.025960
   104  H    0.034654
   105  H    0.061916
   106  H    0.034609
   107  H    0.058368
   108  H    0.031965
   109  H    0.027781
   110  H    0.032526
   111  H    0.030063
   112  H    0.026679
   113  H    0.029463
   114  H    0.030821
   115  H    0.031192
   116  H    0.025796
   117  H    0.040895
   118  H    0.024271
   119  H    0.025366
   120  H    0.020855
   121  H    0.020579
   122  H    0.037119
   123  H    0.030377
   124  H    0.024784
   125  H    0.038049
   126  H    0.024386
   127  H    0.033046
   128  H    0.023455
   129  H    0.028439
   130  H    0.033818
   131  H    0.029757
   132  H    0.013009
   133  H    0.003365
   134  H    0.037939
   135  H    0.043325
   136  H    0.030588
   137  H    0.025857
   138  H    0.027642
   139  H    0.028832
   140  H    0.047676
 Sum of Mulliken charges =  -0.00000

 Dipole moment (field-independent basis, Debye):
    X=              5.3078    Y=              1.7195    Z=             -0.6874  Tot=              5.6216
 Quadrupole moment (field-independent basis, Debye-Ang):
   XX=           -378.8778   YY=           -418.4223   ZZ=           -415.5313
   XY=            -25.0398   XZ=             14.2594   YZ=             -5.8385

 Normal termination of Gaussian 16 at Thu Apr 28 05:31:29 2022.
