 Gaussian 16, Revision A.03,
 Gaussian 16:  ES64L-G16RevA.03 25-Dec-2016

 --------------------------------
 #p wB97XD/Def2SVP td=(nstates=5)
 --------------------------------

 -----------------------------------------------------
 step_1451_chromophore_27 TDDFT with wB97XD functional
 -----------------------------------------------------
 Symbolic Z-matrix:
 Charge =  0 Multiplicity = 1

                         Standard orientation:
 ---------------------------------------------------------------------
 Center     Atomic      Atomic             Coordinates (Angstroms)
 Number     Number       Type             X           Y           Z
 ---------------------------------------------------------------------
      1         12           0       -4.284869    0.851014   -0.173118
      2          6           0       -3.891406   -2.619960    0.423674
      3          6           0       -0.831981    1.127370    0.259293
      4          6           0       -4.609187    4.144247   -0.019987
      5          6           0       -7.761544    0.417037   -0.128618
      6          7           0       -2.595393   -0.580330    0.449977
      7          6           0       -2.638436   -1.946167    0.416280
      8          6           0       -1.241433   -2.522152    0.397467
      9          6           0       -0.362957   -1.284645    0.741007
     10          6           0       -1.362572   -0.184869    0.360496
     11          6           0        0.080558   -1.262690    2.219280
     12          6           0       -1.044718   -3.108426   -1.029409
     13          6           0       -0.321289   -4.469906   -1.022269
     14          6           0        0.956215   -4.516760   -1.914748
     15          8           0        0.927766   -4.438245   -3.138519
     16          8           0        2.099668   -4.485872   -1.196476
     17          7           0       -2.915199    2.433942   -0.039782
     18          6           0       -1.559797    2.392805    0.159491
     19          6           0       -0.990863    3.702288    0.104234
     20          6           0       -2.125713    4.590870   -0.009484
     21          6           0       -3.284223    3.694501    0.003015
     22          6           0        0.469744    3.948028    0.020610
     23          6           0       -2.146594    6.172501   -0.059647
     24          8           0       -3.174593    6.864432   -0.121438
     25          6           0       -0.889559    6.919412   -0.121459
     26          7           0       -5.922806    2.101902   -0.081795
     27          6           0       -5.852847    3.431851   -0.056194
     28          6           0       -7.182026    4.109486   -0.061637
     29          6           0       -8.173922    2.966108   -0.391957
     30          6           0       -7.229970    1.732754   -0.267781
     31          6           0       -7.456786    4.738891    1.377153
     32          6           0       -8.911729    3.022464   -1.725210
     33          6           0      -10.034475    3.923494   -2.012449
     34          7           0       -5.644870   -0.712336    0.206924
     35          6           0       -6.984108   -0.770034    0.248990
     36          6           0       -7.431558   -2.133274    0.460505
     37          6           0       -6.226572   -2.877543    0.549248
     38          6           0       -5.165632   -1.981557    0.335370
     39          6           0       -8.797021   -2.634337    0.584633
     40          6           0       -5.666164   -4.224724    0.857851
     41          8           0       -6.267018   -5.260923    1.016274
     42          6           0       -4.143170   -4.073065    0.684635
     43          6           0       -3.461979   -4.590055    1.916626
     44          8           0       -3.675790   -4.281280    3.041364
     45          8           0       -2.599776   -5.574724    1.513783
     46          6           0       -1.933390   -6.396677    2.530615
     47          6           0        3.348406   -4.630290   -1.930488
     48          6           0        3.937802   -3.311374   -2.354138
     49          6           0        5.148220   -2.755566   -2.112933
     50          6           0        6.340312   -3.496053   -1.320667
     51          6           0        5.446310   -1.342036   -2.588150
     52          6           0        6.218094   -1.161920   -3.826919
     53          6           0        7.550984   -0.381277   -3.717156
     54          6           0        7.258746    1.160161   -3.789994
     55          6           0        6.922273    1.689522   -5.235813
     56          6           0        8.344840    2.000023   -3.162518
     57          6           0        8.359067    1.962366   -1.599488
     58          6           0        9.631268    1.335305   -1.035877
     59          6           0        9.491885    1.090003    0.500746
     60          6           0       10.336297   -0.100947    0.898358
     61          6           0        9.984482    2.296121    1.351883
     62          6           0        9.032150    2.694223    2.518433
     63          6           0        9.695276    2.409996    3.934510
     64          6           0        9.277075    1.141690    4.605513
     65          6           0        8.017253    1.382412    5.514476
     66          6           0       10.442974    0.432875    5.398685
     67          1           0        0.253584    1.165171    0.374822
     68          1           0       -4.750444    5.226492    0.012190
     69          1           0       -8.836534    0.230410   -0.160696
     70          1           0       -1.043167   -3.291804    1.143048
     71          1           0        0.524375   -1.365759    0.113862
     72          1           0       -0.141822   -0.316414    2.713375
     73          1           0        1.166203   -1.283652    2.130900
     74          1           0       -0.237161   -2.144575    2.776766
     75          1           0       -0.413618   -2.381527   -1.541658
     76          1           0       -1.946742   -3.188704   -1.636281
     77          1           0       -1.031294   -5.272022   -1.224575
     78          1           0        0.013335   -4.692329   -0.008862
     79          1           0        0.786060    4.358708   -0.937206
     80          1           0        1.004929    3.012671    0.182442
     81          1           0        0.764154    4.590738    0.850971
     82          1           0       -1.050902    7.980264   -0.311708
     83          1           0       -0.255480    6.487829   -0.896845
     84          1           0       -0.344567    6.719757    0.801461
     85          1           0       -7.064118    4.737294   -0.945189
     86          1           0       -8.943493    2.958504    0.380139
     87          1           0       -6.524266    4.662919    1.936014
     88          1           0       -8.259365    4.212921    1.894518
     89          1           0       -7.695339    5.787772    1.197690
     90          1           0       -9.316485    2.031770   -1.930853
     91          1           0       -8.164970    3.355104   -2.445537
     92          1           0       -9.914697    4.474699   -2.944358
     93          1           0      -10.155046    4.620318   -1.183565
     94          1           0      -11.021079    3.463997   -2.073827
     95          1           0       -9.498625   -2.032398    0.006848
     96          1           0       -9.124810   -2.585276    1.623610
     97          1           0       -8.774606   -3.667336    0.237369
     98          1           0       -3.822770   -4.647156   -0.184121
     99          1           0       -1.686761   -5.894632    3.465474
    100          1           0       -1.086669   -6.841943    2.008013
    101          1           0       -2.608740   -7.206932    2.804546
    102          1           0        3.307794   -5.263165   -2.816990
    103          1           0        4.025035   -5.122762   -1.232623
    104          1           0        3.201443   -2.843209   -3.006357
    105          1           0        7.092782   -3.602077   -2.102827
    106          1           0        6.040536   -4.489881   -0.990019
    107          1           0        6.619057   -2.910578   -0.444560
    108          1           0        5.842665   -0.996098   -1.633472
    109          1           0        4.555854   -0.729274   -2.727077
    110          1           0        5.584766   -0.728745   -4.600671
    111          1           0        6.515062   -2.128199   -4.234743
    112          1           0        8.146321   -0.709150   -4.570319
    113          1           0        8.148432   -0.505968   -2.814406
    114          1           0        6.345652    1.377069   -3.235321
    115          1           0        7.296310    1.099328   -6.072620
    116          1           0        7.454523    2.623443   -5.412525
    117          1           0        5.841713    1.823696   -5.288114
    118          1           0        8.190629    3.024530   -3.502910
    119          1           0        9.347050    1.607695   -3.330846
    120          1           0        7.423904    1.476410   -1.321701
    121          1           0        8.302248    2.967128   -1.180307
    122          1           0       10.407138    2.079029   -1.212560
    123          1           0        9.863588    0.400008   -1.544726
    124          1           0        8.484497    0.774900    0.773033
    125          1           0       11.211483   -0.191895    0.255034
    126          1           0        9.671790   -0.959044    0.802850
    127          1           0       10.651671   -0.063695    1.940883
    128          1           0       10.101969    3.149419    0.683768
    129          1           0       10.914485    2.035227    1.857721
    130          1           0        8.121567    2.095847    2.537370
    131          1           0        8.882657    3.763621    2.369844
    132          1           0        9.683924    3.321240    4.533394
    133          1           0       10.781452    2.462587    3.852014
    134          1           0        8.927680    0.469361    3.821330
    135          1           0        7.850342    2.360662    5.964677
    136          1           0        7.952455    0.638389    6.307406
    137          1           0        7.168624    1.187520    4.858628
    138          1           0       11.448520    0.755509    5.127778
    139          1           0       10.535056   -0.586936    5.026089
    140          1           0       10.284827    0.456642    6.476806
 ---------------------------------------------------------------------

 SCF Done:  E(RwB97XD) =  -3007.88045699     A.U. after   19 cycles

 Excitation energies and oscillator strengths:

 Excited State   1:      Singlet-A      1.6810 eV  737.55 nm  f=0.3743  <S**2>=0.000
     245 -> 248        0.19139
     246 -> 247        0.68214
     245 <- 248        0.11751
 This state for optimization and/or second-order correction.
 Total Energy, E(TD-HF/TD-DFT) =  -3007.81868011
 Copying the excited state density for this state as the 1-particle RhoCI density.

 Excited State   2:      Singlet-A      2.1336 eV  581.10 nm  f=0.1335  <S**2>=0.000
     245 -> 247        0.64760
     246 -> 248       -0.27211

 Excited State   3:      Singlet-A      3.4432 eV  360.08 nm  f=0.0123  <S**2>=0.000
     242 -> 247       -0.10945
     243 -> 247       -0.33037
     244 -> 247        0.58905

 Excited State   4:      Singlet-A      3.5275 eV  351.48 nm  f=0.1700  <S**2>=0.000
     240 -> 247        0.19102
     242 -> 247        0.18785
     243 -> 247        0.34106
     244 -> 247        0.29907
     245 -> 247        0.12386
     246 -> 248        0.43517

 Excited State   5:      Singlet-A      3.6609 eV  338.67 nm  f=0.0312  <S**2>=0.000
     239 -> 247        0.50460
     239 -> 248       -0.11478
     239 -> 249       -0.31467
     239 -> 250        0.19807
     239 -> 251       -0.10416
     240 -> 247        0.18201
     246 -> 248       -0.10668

 The electronic state is 1-A.
 Alpha  occ. eigenvalues --  -46.95660 -19.30973 -19.30329 -19.25093 -19.24342
 Alpha  occ. eigenvalues --  -19.24202 -19.23904 -14.46601 -14.46448 -14.44143
 Alpha  occ. eigenvalues --  -14.43307 -10.43301 -10.43026 -10.39769 -10.38704
 Alpha  occ. eigenvalues --  -10.35966 -10.35808 -10.34772 -10.34748 -10.34707
 Alpha  occ. eigenvalues --  -10.34577 -10.34487 -10.34057 -10.32981 -10.32901
 Alpha  occ. eigenvalues --  -10.32312 -10.32163 -10.32117 -10.32088 -10.31786
 Alpha  occ. eigenvalues --  -10.31738 -10.31652 -10.31423 -10.31410 -10.31388
 Alpha  occ. eigenvalues --  -10.31370 -10.31311 -10.31185 -10.31181 -10.31112
 Alpha  occ. eigenvalues --  -10.30813 -10.30411 -10.30149 -10.30088 -10.29904
 Alpha  occ. eigenvalues --  -10.29860 -10.29703 -10.29649 -10.29645 -10.29523
 Alpha  occ. eigenvalues --  -10.29408 -10.29401 -10.29389 -10.29243 -10.29235
 Alpha  occ. eigenvalues --  -10.28893 -10.28728 -10.28677 -10.28642 -10.28619
 Alpha  occ. eigenvalues --  -10.28571 -10.28549 -10.28482 -10.28401 -10.28275
 Alpha  occ. eigenvalues --  -10.28146  -3.21605  -1.95179  -1.94732  -1.94568
 Alpha  occ. eigenvalues --   -1.19364  -1.19344  -1.12548  -1.11710  -1.11334
 Alpha  occ. eigenvalues --   -1.09809  -1.07632  -1.06819  -1.06142  -1.05003
 Alpha  occ. eigenvalues --   -0.94718  -0.92777  -0.91975  -0.91707  -0.91211
 Alpha  occ. eigenvalues --   -0.90648  -0.90519  -0.89505  -0.89077  -0.88823
 Alpha  occ. eigenvalues --   -0.87736  -0.87539  -0.86561  -0.85753  -0.85367
 Alpha  occ. eigenvalues --   -0.84672  -0.84550  -0.83469  -0.82897  -0.82150
 Alpha  occ. eigenvalues --   -0.81850  -0.80402  -0.79659  -0.79399  -0.78382
 Alpha  occ. eigenvalues --   -0.78115  -0.77523  -0.77168  -0.76762  -0.76258
 Alpha  occ. eigenvalues --   -0.75627  -0.74191  -0.73431  -0.72347  -0.71054
 Alpha  occ. eigenvalues --   -0.70589  -0.69841  -0.69201  -0.68884  -0.67670
 Alpha  occ. eigenvalues --   -0.67596  -0.66944  -0.66674  -0.66276  -0.65872
 Alpha  occ. eigenvalues --   -0.65741  -0.65496  -0.64549  -0.64463  -0.62667
 Alpha  occ. eigenvalues --   -0.62313  -0.61840  -0.61086  -0.60903  -0.60291
 Alpha  occ. eigenvalues --   -0.59820  -0.59478  -0.58295  -0.57810  -0.57238
 Alpha  occ. eigenvalues --   -0.57129  -0.56736  -0.56706  -0.56498  -0.56192
 Alpha  occ. eigenvalues --   -0.55907  -0.55791  -0.55380  -0.54920  -0.54856
 Alpha  occ. eigenvalues --   -0.54720  -0.54460  -0.54347  -0.54084  -0.53968
 Alpha  occ. eigenvalues --   -0.53486  -0.53442  -0.53200  -0.52821  -0.52549
 Alpha  occ. eigenvalues --   -0.52530  -0.52499  -0.52241  -0.52075  -0.51887
 Alpha  occ. eigenvalues --   -0.51676  -0.51536  -0.51212  -0.51058  -0.50918
 Alpha  occ. eigenvalues --   -0.50645  -0.50380  -0.50245  -0.50052  -0.49804
 Alpha  occ. eigenvalues --   -0.49656  -0.49378  -0.49171  -0.48780  -0.48773
 Alpha  occ. eigenvalues --   -0.48572  -0.48344  -0.48263  -0.47997  -0.47955
 Alpha  occ. eigenvalues --   -0.47881  -0.47417  -0.47143  -0.47032  -0.46886
 Alpha  occ. eigenvalues --   -0.46656  -0.46576  -0.46550  -0.46471  -0.46042
 Alpha  occ. eigenvalues --   -0.45666  -0.45516  -0.45407  -0.45306  -0.45208
 Alpha  occ. eigenvalues --   -0.45094  -0.44866  -0.44809  -0.44746  -0.44335
 Alpha  occ. eigenvalues --   -0.44110  -0.43874  -0.43681  -0.43576  -0.43390
 Alpha  occ. eigenvalues --   -0.43299  -0.43212  -0.42662  -0.42422  -0.42053
 Alpha  occ. eigenvalues --   -0.41714  -0.41052  -0.40694  -0.40593  -0.40538
 Alpha  occ. eigenvalues --   -0.40507  -0.40172  -0.39938  -0.39396  -0.39389
 Alpha  occ. eigenvalues --   -0.39191  -0.38956  -0.38624  -0.38606  -0.38524
 Alpha  occ. eigenvalues --   -0.38429  -0.37489  -0.37081  -0.36933  -0.36465
 Alpha  occ. eigenvalues --   -0.36435  -0.35472  -0.34975  -0.33206  -0.33066
 Alpha  occ. eigenvalues --   -0.32823  -0.32639  -0.32333  -0.31091  -0.25340
 Alpha  occ. eigenvalues --   -0.22871
 Alpha virt. eigenvalues --   -0.06811   0.00611   0.02694   0.04672   0.04949
 Alpha virt. eigenvalues --    0.06958   0.07715   0.08168   0.08481   0.09637
 Alpha virt. eigenvalues --    0.10768   0.10819   0.11186   0.12076   0.12487

 Mulliken charges:
               1
     1  Mg   0.971005
     2  C   -0.077658
     3  C   -0.090295
     4  C   -0.088805
     5  C   -0.078848
     6  N   -0.266091
     7  C   -0.004191
     8  C   -0.117293
     9  C   -0.121166
    10  C    0.034857
    11  C    0.046809
    12  C    0.036011
    13  C    0.015462
    14  C    0.196444
    15  O   -0.278535
    16  O   -0.340066
    17  N   -0.421296
    18  C    0.147888
    19  C   -0.167617
    20  C   -0.100385
    21  C    0.154402
    22  C    0.068999
    23  C    0.081196
    24  O   -0.248326
    25  C    0.008424
    26  N   -0.373062
    27  C    0.007449
    28  C   -0.075341
    29  C   -0.066085
    30  C    0.089240
    31  C    0.039687
    32  C   -0.009017
    33  C   -0.029223
    34  N   -0.408236
    35  C    0.088184
    36  C   -0.210018
    37  C   -0.082144
    38  C    0.159068
    39  C    0.077611
    40  C    0.147565
    41  O   -0.189892
    42  C   -0.039174
    43  C    0.233627
    44  O   -0.196863
    45  O   -0.381793
    46  C    0.130791
    47  C    0.263535
    48  C   -0.156874
    49  C   -0.208549
    50  C    0.023114
    51  C    0.046930
    52  C   -0.005652
    53  C    0.023667
    54  C   -0.209897
    55  C   -0.002146
    56  C    0.045162
    57  C   -0.050361
    58  C   -0.000071
    59  C   -0.193174
    60  C    0.008174
    61  C    0.029295
    62  C   -0.022189
    63  C   -0.011013
    64  C   -0.190725
    65  C   -0.004650
    66  C   -0.007238
    67  H   -0.005141
    68  H    0.014259
    69  H    0.003466
    70  H    0.032037
    71  H    0.030898
    72  H    0.047009
    73  H    0.030088
    74  H    0.052276
    75  H    0.038482
    76  H    0.054017
    77  H    0.065917
    78  H    0.032557
    79  H    0.068114
    80  H    0.028018
    81  H    0.046599
    82  H    0.065777
    83  H    0.044191
    84  H    0.050599
    85  H    0.037489
    86  H    0.020936
    87  H    0.052643
    88  H    0.047362
    89  H    0.054749
    90  H    0.029958
    91  H    0.019402
    92  H    0.039185
    93  H    0.016138
    94  H    0.028793
    95  H    0.026855
    96  H    0.057508
    97  H    0.059511
    98  H    0.070212
    99  H    0.064571
   100  H    0.056605
   101  H    0.056325
   102  H    0.059230
   103  H    0.019831
   104  H    0.030970
   105  H    0.054846
   106  H    0.028596
   107  H    0.053514
   108  H    0.020869
   109  H    0.022073
   110  H    0.024870
   111  H    0.021735
   112  H    0.019540
   113  H    0.012783
   114  H    0.015186
   115  H    0.025758
   116  H    0.019711
   117  H    0.035978
   118  H    0.016405
   119  H    0.013197
   120  H    0.007618
   121  H    0.011817
   122  H    0.027729
   123  H    0.019416
   124  H    0.011592
   125  H    0.032301
   126  H    0.018719
   127  H    0.021913
   128  H    0.014910
   129  H    0.016065
   130  H    0.021370
   131  H    0.023844
   132  H    0.005699
   133  H   -0.007853
   134  H    0.022464
   135  H    0.038038
   136  H    0.024783
   137  H    0.019386
   138  H    0.021528
   139  H    0.023022
   140  H    0.042505
 Sum of Mulliken charges =  -0.00000

 Dipole moment (field-independent basis, Debye):
    X=              5.8405    Y=              2.2000    Z=             -0.6871  Tot=              6.2788
 Quadrupole moment (field-independent basis, Debye-Ang):
   XX=           -383.1003   YY=           -415.9304   ZZ=           -415.2812
   XY=            -26.0697   XZ=             14.4992   YZ=             -5.7921

 Normal termination of Gaussian 16 at Thu Apr 28 06:13:20 2022.
