 Gaussian 16, Revision A.03,
 Gaussian 16:  ES64L-G16RevA.03 25-Dec-2016

 --------------------
 #p ZINDO=(nstates=5)
 --------------------

 ------------------------------
 step_1451_chromophore_27 ZINDO
 ------------------------------
 Symbolic Z-matrix:
 Charge =  0 Multiplicity = 1

                         Standard orientation:
 ---------------------------------------------------------------------
 Center     Atomic      Atomic             Coordinates (Angstroms)
 Number     Number       Type             X           Y           Z
 ---------------------------------------------------------------------
      1         12           0       -4.284869    0.851014   -0.173118
      2          6           0       -3.891406   -2.619960    0.423674
      3          6           0       -0.831981    1.127370    0.259293
      4          6           0       -4.609187    4.144247   -0.019987
      5          6           0       -7.761544    0.417037   -0.128618
      6          7           0       -2.595393   -0.580330    0.449977
      7          6           0       -2.638436   -1.946167    0.416280
      8          6           0       -1.241433   -2.522152    0.397467
      9          6           0       -0.362957   -1.284645    0.741007
     10          6           0       -1.362572   -0.184869    0.360496
     11          6           0        0.080558   -1.262690    2.219280
     12          6           0       -1.044718   -3.108426   -1.029409
     13          6           0       -0.321289   -4.469906   -1.022269
     14          6           0        0.956215   -4.516760   -1.914748
     15          8           0        0.927766   -4.438245   -3.138519
     16          8           0        2.099668   -4.485872   -1.196476
     17          7           0       -2.915199    2.433942   -0.039782
     18          6           0       -1.559797    2.392805    0.159491
     19          6           0       -0.990863    3.702288    0.104234
     20          6           0       -2.125713    4.590870   -0.009484
     21          6           0       -3.284223    3.694501    0.003015
     22          6           0        0.469744    3.948028    0.020610
     23          6           0       -2.146594    6.172501   -0.059647
     24          8           0       -3.174593    6.864432   -0.121438
     25          6           0       -0.889559    6.919412   -0.121459
     26          7           0       -5.922806    2.101902   -0.081795
     27          6           0       -5.852847    3.431851   -0.056194
     28          6           0       -7.182026    4.109486   -0.061637
     29          6           0       -8.173922    2.966108   -0.391957
     30          6           0       -7.229970    1.732754   -0.267781
     31          6           0       -7.456786    4.738891    1.377153
     32          6           0       -8.911729    3.022464   -1.725210
     33          6           0      -10.034475    3.923494   -2.012449
     34          7           0       -5.644870   -0.712336    0.206924
     35          6           0       -6.984108   -0.770034    0.248990
     36          6           0       -7.431558   -2.133274    0.460505
     37          6           0       -6.226572   -2.877543    0.549248
     38          6           0       -5.165632   -1.981557    0.335370
     39          6           0       -8.797021   -2.634337    0.584633
     40          6           0       -5.666164   -4.224724    0.857851
     41          8           0       -6.267018   -5.260923    1.016274
     42          6           0       -4.143170   -4.073065    0.684635
     43          6           0       -3.461979   -4.590055    1.916626
     44          8           0       -3.675790   -4.281280    3.041364
     45          8           0       -2.599776   -5.574724    1.513783
     46          6           0       -1.933390   -6.396677    2.530615
     47          6           0        3.348406   -4.630290   -1.930488
     48          6           0        3.937802   -3.311374   -2.354138
     49          6           0        5.148220   -2.755566   -2.112933
     50          6           0        6.340312   -3.496053   -1.320667
     51          6           0        5.446310   -1.342036   -2.588150
     52          6           0        6.218094   -1.161920   -3.826919
     53          6           0        7.550984   -0.381277   -3.717156
     54          6           0        7.258746    1.160161   -3.789994
     55          6           0        6.922273    1.689522   -5.235813
     56          6           0        8.344840    2.000023   -3.162518
     57          6           0        8.359067    1.962366   -1.599488
     58          6           0        9.631268    1.335305   -1.035877
     59          6           0        9.491885    1.090003    0.500746
     60          6           0       10.336297   -0.100947    0.898358
     61          6           0        9.984482    2.296121    1.351883
     62          6           0        9.032150    2.694223    2.518433
     63          6           0        9.695276    2.409996    3.934510
     64          6           0        9.277075    1.141690    4.605513
     65          6           0        8.017253    1.382412    5.514476
     66          6           0       10.442974    0.432875    5.398685
     67          1           0        0.253584    1.165171    0.374822
     68          1           0       -4.750444    5.226492    0.012190
     69          1           0       -8.836534    0.230410   -0.160696
     70          1           0       -1.043167   -3.291804    1.143048
     71          1           0        0.524375   -1.365759    0.113862
     72          1           0       -0.141822   -0.316414    2.713375
     73          1           0        1.166203   -1.283652    2.130900
     74          1           0       -0.237161   -2.144575    2.776766
     75          1           0       -0.413618   -2.381527   -1.541658
     76          1           0       -1.946742   -3.188704   -1.636281
     77          1           0       -1.031294   -5.272022   -1.224575
     78          1           0        0.013335   -4.692329   -0.008862
     79          1           0        0.786060    4.358708   -0.937206
     80          1           0        1.004929    3.012671    0.182442
     81          1           0        0.764154    4.590738    0.850971
     82          1           0       -1.050902    7.980264   -0.311708
     83          1           0       -0.255480    6.487829   -0.896845
     84          1           0       -0.344567    6.719757    0.801461
     85          1           0       -7.064118    4.737294   -0.945189
     86          1           0       -8.943493    2.958504    0.380139
     87          1           0       -6.524266    4.662919    1.936014
     88          1           0       -8.259365    4.212921    1.894518
     89          1           0       -7.695339    5.787772    1.197690
     90          1           0       -9.316485    2.031770   -1.930853
     91          1           0       -8.164970    3.355104   -2.445537
     92          1           0       -9.914697    4.474699   -2.944358
     93          1           0      -10.155046    4.620318   -1.183565
     94          1           0      -11.021079    3.463997   -2.073827
     95          1           0       -9.498625   -2.032398    0.006848
     96          1           0       -9.124810   -2.585276    1.623610
     97          1           0       -8.774606   -3.667336    0.237369
     98          1           0       -3.822770   -4.647156   -0.184121
     99          1           0       -1.686761   -5.894632    3.465474
    100          1           0       -1.086669   -6.841943    2.008013
    101          1           0       -2.608740   -7.206932    2.804546
    102          1           0        3.307794   -5.263165   -2.816990
    103          1           0        4.025035   -5.122762   -1.232623
    104          1           0        3.201443   -2.843209   -3.006357
    105          1           0        7.092782   -3.602077   -2.102827
    106          1           0        6.040536   -4.489881   -0.990019
    107          1           0        6.619057   -2.910578   -0.444560
    108          1           0        5.842665   -0.996098   -1.633472
    109          1           0        4.555854   -0.729274   -2.727077
    110          1           0        5.584766   -0.728745   -4.600671
    111          1           0        6.515062   -2.128199   -4.234743
    112          1           0        8.146321   -0.709150   -4.570319
    113          1           0        8.148432   -0.505968   -2.814406
    114          1           0        6.345652    1.377069   -3.235321
    115          1           0        7.296310    1.099328   -6.072620
    116          1           0        7.454523    2.623443   -5.412525
    117          1           0        5.841713    1.823696   -5.288114
    118          1           0        8.190629    3.024530   -3.502910
    119          1           0        9.347050    1.607695   -3.330846
    120          1           0        7.423904    1.476410   -1.321701
    121          1           0        8.302248    2.967128   -1.180307
    122          1           0       10.407138    2.079029   -1.212560
    123          1           0        9.863588    0.400008   -1.544726
    124          1           0        8.484497    0.774900    0.773033
    125          1           0       11.211483   -0.191895    0.255034
    126          1           0        9.671790   -0.959044    0.802850
    127          1           0       10.651671   -0.063695    1.940883
    128          1           0       10.101969    3.149419    0.683768
    129          1           0       10.914485    2.035227    1.857721
    130          1           0        8.121567    2.095847    2.537370
    131          1           0        8.882657    3.763621    2.369844
    132          1           0        9.683924    3.321240    4.533394
    133          1           0       10.781452    2.462587    3.852014
    134          1           0        8.927680    0.469361    3.821330
    135          1           0        7.850342    2.360662    5.964677
    136          1           0        7.952455    0.638389    6.307406
    137          1           0        7.168624    1.187520    4.858628
    138          1           0       11.448520    0.755509    5.127778
    139          1           0       10.535056   -0.586936    5.026089
    140          1           0       10.284827    0.456642    6.476806
 ---------------------------------------------------------------------

 SCF Done:  E(RZINDO/S) =  -474.584261109     A.U. after   20 cycles

 Excitation energies and oscillator strengths:

 Excited State   1:      Singlet-A      1.2705 eV  975.87 nm  f=0.5531  <S**2>=0.000
     175 ->178        -0.18698
     176 ->177         0.66545
 This state for optimization and/or second-order correction.
 Total Energy, E(CIS/TDA) =  -474.537571237
 Copying the excited state density for this state as the 1-particle RhoCI density.

 Excited State   2:      Singlet-A      1.8699 eV  663.05 nm  f=0.0753  <S**2>=0.000
     175 ->177         0.56716
     176 ->178         0.39294

 Excited State   3:      Singlet-A      2.9502 eV  420.25 nm  f=0.0093  <S**2>=0.000
     167 ->179        -0.10777
     168 ->177         0.31690
     168 ->179        -0.42751
     168 ->181        -0.23961
     168 ->182         0.15215
     168 ->185        -0.22063

 Excited State   4:      Singlet-A      2.9876 eV  414.99 nm  f=0.9249  <S**2>=0.000
     171 ->177        -0.11998
     175 ->177        -0.32707
     176 ->178         0.49560
     176 ->179         0.19190
     176 ->181        -0.10352

 Excited State   5:      Singlet-A      3.0771 eV  402.92 nm  f=0.1715  <S**2>=0.000
     169 ->177         0.13428
     169 ->179         0.14225
     169 ->181        -0.13774
     169 ->182         0.11749
     169 ->185         0.10652
     170 ->177         0.19417
     170 ->178         0.11170
     170 ->179         0.19823
     170 ->181        -0.22612
     170 ->182         0.18976
     170 ->185         0.16983
     170 ->187         0.11799
     174 ->177        -0.10266
     175 ->177        -0.13133
     176 ->178         0.19270
     176 ->179        -0.14389
     176 ->180        -0.15028

 The electronic state is 1-A.
 Alpha  occ. eigenvalues --   -1.85089  -1.83339  -1.82303  -1.74456  -1.73543
 Alpha  occ. eigenvalues --   -1.72561  -1.66974  -1.61989  -1.58945  -1.58744
 Alpha  occ. eigenvalues --   -1.54657  -1.50892  -1.49235  -1.48353  -1.48234
 Alpha  occ. eigenvalues --   -1.45444  -1.44239  -1.41135  -1.38422  -1.38248
 Alpha  occ. eigenvalues --   -1.36514  -1.33637  -1.32890  -1.31757  -1.29308
 Alpha  occ. eigenvalues --   -1.28617  -1.24608  -1.22779  -1.20740  -1.18358
 Alpha  occ. eigenvalues --   -1.16855  -1.16281  -1.15995  -1.14706  -1.13462
 Alpha  occ. eigenvalues --   -1.13409  -1.11372  -1.10176  -1.05603  -1.03489
 Alpha  occ. eigenvalues --   -1.02514  -1.01193  -0.98695  -0.97905  -0.96071
 Alpha  occ. eigenvalues --   -0.95302  -0.95167  -0.94276  -0.93426  -0.92179
 Alpha  occ. eigenvalues --   -0.91418  -0.90947  -0.89952  -0.88537  -0.87174
 Alpha  occ. eigenvalues --   -0.86072  -0.83616  -0.83328  -0.82836  -0.80654
 Alpha  occ. eigenvalues --   -0.80143  -0.79643  -0.78460  -0.77406  -0.76759
 Alpha  occ. eigenvalues --   -0.75774  -0.75381  -0.74799  -0.74004  -0.73401
 Alpha  occ. eigenvalues --   -0.72762  -0.72392  -0.72023  -0.71466  -0.71204
 Alpha  occ. eigenvalues --   -0.70601  -0.69843  -0.69477  -0.68904  -0.68072
 Alpha  occ. eigenvalues --   -0.67558  -0.67071  -0.67007  -0.66905  -0.66317
 Alpha  occ. eigenvalues --   -0.65745  -0.64881  -0.64645  -0.63894  -0.63778
 Alpha  occ. eigenvalues --   -0.63655  -0.63137  -0.62484  -0.62212  -0.61958
 Alpha  occ. eigenvalues --   -0.61562  -0.61428  -0.61180  -0.60248  -0.60062
 Alpha  occ. eigenvalues --   -0.60044  -0.59310  -0.59223  -0.59034  -0.58337
 Alpha  occ. eigenvalues --   -0.58146  -0.57849  -0.57610  -0.57185  -0.56431
 Alpha  occ. eigenvalues --   -0.55769  -0.55576  -0.55207  -0.55049  -0.54803
 Alpha  occ. eigenvalues --   -0.54286  -0.54131  -0.53540  -0.53160  -0.52910
 Alpha  occ. eigenvalues --   -0.52689  -0.52286  -0.51967  -0.51705  -0.51390
 Alpha  occ. eigenvalues --   -0.51247  -0.50862  -0.50566  -0.50483  -0.50426
 Alpha  occ. eigenvalues --   -0.50161  -0.50091  -0.49993  -0.49240  -0.49114
 Alpha  occ. eigenvalues --   -0.49027  -0.48543  -0.47948  -0.47828  -0.47595
 Alpha  occ. eigenvalues --   -0.47315  -0.47131  -0.47061  -0.46614  -0.46269
 Alpha  occ. eigenvalues --   -0.46212  -0.46072  -0.45771  -0.45462  -0.45003
 Alpha  occ. eigenvalues --   -0.44854  -0.44669  -0.44540  -0.44383  -0.44114
 Alpha  occ. eigenvalues --   -0.43600  -0.43268  -0.43114  -0.42815  -0.42164
 Alpha  occ. eigenvalues --   -0.42045  -0.41667  -0.41233  -0.38889  -0.38745
 Alpha  occ. eigenvalues --   -0.37845  -0.36982  -0.35788  -0.34334  -0.34263
 Alpha  occ. eigenvalues --   -0.33581  -0.32753  -0.31876  -0.31187  -0.26078
 Alpha  occ. eigenvalues --   -0.21749
 Alpha virt. eigenvalues --   -0.08363  -0.01760  -0.00301   0.01241   0.01581
 Alpha virt. eigenvalues --    0.01822   0.03146   0.03418   0.04480   0.04778
 Alpha virt. eigenvalues --    0.05963   0.06494   0.07449   0.07772   0.08517

 Mulliken charges:
               1
     1  Mg   0.435341
     2  C   -0.039859
     3  C   -0.108833
     4  C   -0.095081
     5  C   -0.074457
     6  N   -0.262607
     7  C    0.095184
     8  C    0.002503
     9  C   -0.002023
    10  C    0.164788
    11  C   -0.048710
    12  C   -0.017286
    13  C    0.003159
    14  C    0.467686
    15  O   -0.524846
    16  O   -0.258002
    17  N   -0.320452
    18  C    0.119429
    19  C    0.020740
    20  C   -0.058784
    21  C    0.168783
    22  C   -0.036639
    23  C    0.330458
    24  O   -0.524631
    25  C   -0.021186
    26  N   -0.262368
    27  C    0.178891
    28  C    0.000559
    29  C    0.001830
    30  C    0.085978
    31  C   -0.045279
    32  C   -0.023140
    33  C   -0.051420
    34  N   -0.310043
    35  C    0.074395
    36  C    0.011636
    37  C   -0.070577
    38  C    0.082511
    39  C   -0.033649
    40  C    0.337615
    41  O   -0.512044
    42  C    0.062732
    43  C    0.494154
    44  O   -0.503356
    45  O   -0.287647
    46  C    0.073084
    47  C    0.109022
    48  C   -0.083710
    49  C   -0.019771
    50  C   -0.048920
    51  C   -0.012442
    52  C   -0.017016
    53  C   -0.034597
    54  C   -0.013258
    55  C   -0.065452
    56  C   -0.042621
    57  C   -0.046217
    58  C   -0.029305
    59  C   -0.019416
    60  C   -0.058529
    61  C   -0.039262
    62  C   -0.044845
    63  C   -0.039050
    64  C    0.001273
    65  C   -0.060302
    66  C   -0.063899
    67  H    0.026634
    68  H    0.040071
    69  H    0.031457
    70  H    0.034618
    71  H    0.028022
    72  H    0.029199
    73  H    0.011532
    74  H    0.034583
    75  H    0.025210
    76  H    0.035893
    77  H    0.045422
    78  H    0.024346
    79  H    0.038528
    80  H    0.023178
    81  H    0.028815
    82  H    0.045700
    83  H    0.030864
    84  H    0.037467
    85  H    0.044220
    86  H    0.025925
    87  H    0.031006
    88  H    0.033181
    89  H    0.025914
    90  H    0.021428
    91  H    0.017187
    92  H    0.019554
    93  H    0.010566
    94  H    0.014831
    95  H    0.019500
    96  H    0.034816
    97  H    0.034331
    98  H    0.052204
    99  H    0.052978
   100  H    0.030749
   101  H    0.039579
   102  H    0.055075
   103  H    0.024239
   104  H    0.034107
   105  H    0.034086
   106  H    0.023890
   107  H    0.033355
   108  H    0.021450
   109  H    0.015903
   110  H    0.024887
   111  H    0.009646
   112  H    0.017165
   113  H    0.026581
   114  H    0.016936
   115  H    0.019924
   116  H    0.015596
   117  H    0.021130
   118  H    0.019539
   119  H    0.024106
   120  H    0.016526
   121  H    0.012901
   122  H    0.023804
   123  H    0.022219
   124  H    0.023839
   125  H    0.020569
   126  H    0.007983
   127  H    0.016139
   128  H    0.017078
   129  H    0.027308
   130  H    0.027107
   131  H    0.020741
   132  H    0.014583
   133  H    0.007822
   134  H    0.022631
   135  H    0.027029
   136  H    0.014879
   137  H    0.009164
   138  H    0.019247
   139  H    0.012871
   140  H    0.028213
 Sum of Mulliken charges =  -0.00000

 Dipole moment (field-independent basis, Debye):
    X=              9.0946    Y=              3.9020    Z=             -0.9076  Tot=              9.9379
 N-N= 4.441403588318D+03 E-N= 0.000000000000D+00  KE=-9.557034381139D+03
 Leave Link  601 at Thu Apr 28 06:33:21 2022, MaxMem=  6710886400 cpu:               1.0 elap:               0.1
 (Enter /sw/apps/gaussian-16.0/g16/l9999.exe)
 1\1\GINC-BP1-COMPUTE137\SP\RZINDO CIS\STO-3G\C55H74Mg1N4O6\OF15641\28-
 Apr-2022\0\\#p ZINDO=(nstates=5)\\step_1451_chromophore_27 ZINDO\\0,1\
 Mg,0,-5.671,24.265,27.047\C,0,-3.988,26.226,29.472\C,0,-6.425,22.047,2
 9.635\C,0,-6.649,22.038,24.798\C,0,-4.432,26.381,24.544\N,0,-5.102,24.
 091,29.269\C,0,-4.617,25.094,30.061\C,0,-4.84,24.774,31.521\C,0,-5.255
 ,23.275,31.477\C,0,-5.695,23.205,30.009\C,0,-4.094,22.326,31.843\C,0,-
 5.94,25.76,32.007\C,0,-5.65,26.337,33.407\C,0,-6.801,26.12,34.436\O,0,

 Normal termination of Gaussian 16 at Thu Apr 28 06:33:22 2022.
