 Gaussian 16, Revision A.03,
 Gaussian 16:  ES64L-G16RevA.03 25-Dec-2016

 ------------------------------
 #p blyp/Def2SVP td=(nstates=5)
 ------------------------------

 -------------------------------------------------
 step_401_chromophore_1 TDDFT with blyp functional
 -------------------------------------------------
 Symbolic Z-matrix:
 Charge =  0 Multiplicity = 1

                         Standard orientation:
 ---------------------------------------------------------------------
 Center     Atomic      Atomic             Coordinates (Angstroms)
 Number     Number       Type             X           Y           Z
 ---------------------------------------------------------------------
      1         12           0        6.108013    0.303473   -0.127143
      2          6           0        3.944382   -2.280082   -0.540205
      3          6           0        3.745570    2.544372   -1.169790
      4          6           0        8.472410    2.885469   -0.036044
      5          6           0        8.721605   -1.925726    0.516335
      6          7           0        4.108687    0.116265   -0.788999
      7          6           0        3.356615   -1.036378   -0.776858
      8          6           0        1.883309   -0.653690   -1.161135
      9          6           0        1.911361    0.832431   -1.588434
     10          6           0        3.325549    1.186869   -1.167850
     11          6           0        1.312442    1.185448   -2.891969
     12          6           0        0.871399   -0.879198    0.124180
     13          6           0       -0.570507   -0.217644    0.144750
     14          6           0       -1.692451   -0.914449    0.873647
     15          8           0       -2.107480   -0.712733    1.957646
     16          8           0       -2.226687   -1.857980    0.007990
     17          7           0        6.041429    2.464523   -0.389908
     18          6           0        4.988024    3.159245   -0.819374
     19          6           0        5.277144    4.596304   -0.743851
     20          6           0        6.657471    4.693699   -0.392629
     21          6           0        7.127127    3.334593   -0.268751
     22          6           0        4.290313    5.686903   -0.986903
     23          6           0        7.485348    6.022653   -0.170384
     24          8           0        8.705790    5.999139   -0.050371
     25          6           0        6.774676    7.402248   -0.301780
     26          7           0        8.201516    0.378642    0.044911
     27          6           0        8.974984    1.534315    0.015507
     28          6           0       10.526475    1.278727    0.266146
     29          6           0       10.423757   -0.114981    0.952174
     30          6           0        9.010704   -0.594598    0.515717
     31          6           0       11.538630    1.419714   -0.904234
     32          6           0       10.622418    0.012116    2.476285
     33          6           0        9.718756    0.826288    3.372538
     34          7           0        6.342204   -1.694503   -0.000950
     35          6           0        7.442151   -2.498061    0.227104
     36          6           0        7.106364   -3.892854    0.040335
     37          6           0        5.712172   -3.890237   -0.209722
     38          6           0        5.339813   -2.548480   -0.211185
     39          6           0        8.049920   -5.084585    0.225901
     40          6           0        4.529116   -4.664415   -0.409691
     41          8           0        4.425552   -5.878368   -0.454322
     42          6           0        3.392846   -3.686820   -0.599387
     43          6           0        2.249271   -3.952446    0.309940
     44          8           0        2.109539   -3.626104    1.492011
     45          8           0        1.298755   -4.686115   -0.302341
     46          6           0        0.005470   -4.952007    0.370639
     47          6           0       -3.367033   -2.575914    0.509477
     48          6           0       -4.697806   -2.010004   -0.062199
     49          6           0       -5.782469   -2.663923   -0.465976
     50          6           0       -6.017308   -4.133792   -0.301507
     51          6           0       -6.922213   -1.895268   -1.054817
     52          6           0       -8.132007   -1.568286   -0.211649
     53          6           0       -8.059308   -0.147510    0.533630
     54          6           0       -9.230849    0.833067    0.116187
     55          6           0       -8.739357    1.728760   -1.117644
     56          6           0       -9.622702    1.784453    1.216787
     57          6           0      -11.074278    2.330446    1.059631
     58          6           0      -12.149274    1.487006    1.792998
     59          6           0      -13.449036    2.380461    2.164091
     60          6           0      -13.405555    2.646196    3.724569
     61          6           0      -14.795873    1.712999    1.718340
     62          6           0      -14.901103    1.940333    0.164228
     63          6           0      -14.445652    0.619070   -0.667881
     64          6           0      -15.202361    0.526054   -2.003551
     65          6           0      -16.608093    0.057213   -1.739651
     66          6           0      -14.420551   -0.473859   -2.817375
     67          1           0        2.983493    3.308031   -1.339379
     68          1           0        9.212879    3.681103    0.074963
     69          1           0        9.558320   -2.620989    0.618395
     70          1           0        1.546664   -1.171808   -2.058255
     71          1           0        1.351349    1.495598   -0.930013
     72          1           0        0.476219    1.875051   -2.772145
     73          1           0        0.874961    0.279676   -3.310970
     74          1           0        2.088792    1.659586   -3.492047
     75          1           0        1.422341   -0.450361    0.961034
     76          1           0        0.710802   -1.930220    0.364344
     77          1           0       -0.912546   -0.065782   -0.879011
     78          1           0       -0.531280    0.756079    0.634869
     79          1           0        3.289140    5.311027   -1.196859
     80          1           0        4.709987    6.153659   -1.877946
     81          1           0        4.196723    6.374395   -0.145812
     82          1           0        7.550959    8.166961   -0.281278
     83          1           0        6.066700    7.512859    0.518879
     84          1           0        6.366204    7.562871   -1.299467
     85          1           0       10.836692    1.949200    1.066714
     86          1           0       11.173958   -0.814892    0.585767
     87          1           0       11.111061    1.959434   -1.749389
     88          1           0       11.910576    0.441388   -1.210337
     89          1           0       12.317863    2.120471   -0.605778
     90          1           0       11.640823    0.401006    2.482925
     91          1           0       10.538962   -1.029034    2.786682
     92          1           0        9.039860    0.142320    3.880703
     93          1           0        9.158552    1.571179    2.808434
     94          1           0       10.210920    1.431181    4.133905
     95          1           0        8.530728   -4.970810    1.196839
     96          1           0        8.784663   -5.054937   -0.579016
     97          1           0        7.394447   -5.927117    0.004339
     98          1           0        2.930555   -3.815829   -1.578199
     99          1           0       -0.625308   -4.067319    0.456108
    100          1           0        0.278826   -5.262123    1.379158
    101          1           0       -0.533179   -5.742261   -0.152259
    102          1           0       -3.444863   -2.651956    1.593546
    103          1           0       -3.196542   -3.644967    0.382119
    104          1           0       -4.616778   -0.927157   -0.153319
    105          1           0       -6.136657   -4.613580   -1.272919
    106          1           0       -6.915513   -4.350373    0.276338
    107          1           0       -5.161719   -4.612744    0.175938
    108          1           0       -7.340776   -2.470737   -1.881239
    109          1           0       -6.695295   -0.948923   -1.544656
    110          1           0       -8.187288   -2.325685    0.569098
    111          1           0       -9.108155   -1.564380   -0.696165
    112          1           0       -7.171257    0.479049    0.449794
    113          1           0       -8.376329   -0.381100    1.549736
    114          1           0      -10.047259    0.272199   -0.338646
    115          1           0       -7.674578    1.682545   -1.350607
    116          1           0       -9.110511    2.744266   -0.979380
    117          1           0       -9.251935    1.404728   -2.022712
    118          1           0       -8.879779    2.581559    1.242466
    119          1           0       -9.572451    1.335816    2.208774
    120          1           0      -11.412503    2.513145    0.039407
    121          1           0      -10.997518    3.309571    1.532571
    122          1           0      -11.730564    1.008251    2.677671
    123          1           0      -12.364130    0.623496    1.163804
    124          1           0      -13.274428    3.291374    1.591727
    125          1           0      -12.817635    3.548228    3.896309
    126          1           0      -12.889005    1.910994    4.341752
    127          1           0      -14.357265    2.709321    4.251135
    128          1           0      -15.680458    2.109965    2.218656
    129          1           0      -14.607778    0.701401    2.079062
    130          1           0      -14.362139    2.814027   -0.202543
    131          1           0      -15.955158    2.130029   -0.040668
    132          1           0      -14.511595   -0.340558   -0.153248
    133          1           0      -13.397997    0.693475   -0.959459
    134          1           0      -15.164494    1.511748   -2.467773
    135          1           0      -16.986424   -0.906608   -2.083017
    136          1           0      -17.275867    0.793326   -2.189244
    137          1           0      -16.873874   -0.059082   -0.688628
    138          1           0      -14.110903   -1.418690   -2.369698
    139          1           0      -13.582363   -0.145821   -3.431449
    140          1           0      -15.229531   -0.788086   -3.477250
 ---------------------------------------------------------------------

 SCF Done:  E(RB-LYP) =  -3007.37159819     A.U. after   21 cycles

 Excitation energies and oscillator strengths:

 Excited State   1:      Singlet-A      1.7735 eV  699.08 nm  f=0.2924  <S**2>=0.000
     245 -> 248        0.17199
     246 -> 247        0.69254
     246 <- 247       -0.15601
 This state for optimization and/or second-order correction.
 Total Energy, E(TD-HF/TD-DFT) =  -3007.30642192
 Copying the excited state density for this state as the 1-particle RhoCI density.

 Excited State   2:      Singlet-A      1.9215 eV  645.24 nm  f=0.0030  <S**2>=0.000
     244 -> 247        0.69821
     245 -> 247        0.10036

 Excited State   3:      Singlet-A      1.9721 eV  628.68 nm  f=0.0854  <S**2>=0.000
     243 -> 247       -0.10480
     244 -> 247       -0.10637
     245 -> 247        0.64069
     246 -> 248       -0.21832

 Excited State   4:      Singlet-A      2.1154 eV  586.11 nm  f=0.0040  <S**2>=0.000
     243 -> 247        0.69713

 Excited State   5:      Singlet-A      2.4111 eV  514.23 nm  f=0.0000  <S**2>=0.000
     241 -> 247        0.70022

 The electronic state is 1-A.
 Alpha  occ. eigenvalues --  -46.26686 -18.82096 -18.81491 -18.77607 -18.76733
 Alpha  occ. eigenvalues --  -18.75629 -18.75251 -14.03833 -14.03457 -14.01002
 Alpha  occ. eigenvalues --  -14.00677 -10.04165 -10.03460 -10.01224  -9.99170
 Alpha  occ. eigenvalues --   -9.97723  -9.97710  -9.97337  -9.97315  -9.97129
 Alpha  occ. eigenvalues --   -9.96053  -9.95781  -9.95732  -9.95324  -9.95115
 Alpha  occ. eigenvalues --   -9.94459  -9.94185  -9.94059  -9.93986  -9.93813
 Alpha  occ. eigenvalues --   -9.93768  -9.93712  -9.93694  -9.93498  -9.93478
 Alpha  occ. eigenvalues --   -9.93420  -9.93172  -9.93132  -9.92868  -9.92867
 Alpha  occ. eigenvalues --   -9.92861  -9.92774  -9.92510  -9.92499  -9.92398
 Alpha  occ. eigenvalues --   -9.92338  -9.92315  -9.92302  -9.92073  -9.91866
 Alpha  occ. eigenvalues --   -9.91845  -9.91700  -9.91625  -9.91616  -9.91607
 Alpha  occ. eigenvalues --   -9.91241  -9.91197  -9.91116  -9.91005  -9.90997
 Alpha  occ. eigenvalues --   -9.90891  -9.90647  -9.90625  -9.90621  -9.90596
 Alpha  occ. eigenvalues --   -9.90440  -2.91446  -1.71872  -1.71299  -1.71188
 Alpha  occ. eigenvalues --   -0.99219  -0.97508  -0.92110  -0.91773  -0.91311
 Alpha  occ. eigenvalues --   -0.88212  -0.86793  -0.85893  -0.85701  -0.85028
 Alpha  occ. eigenvalues --   -0.75910  -0.73789  -0.73240  -0.72729  -0.72465
 Alpha  occ. eigenvalues --   -0.72100  -0.71332  -0.70823  -0.70496  -0.70311
 Alpha  occ. eigenvalues --   -0.69766  -0.69523  -0.67785  -0.67500  -0.67018
 Alpha  occ. eigenvalues --   -0.66066  -0.65595  -0.65097  -0.64684  -0.64305
 Alpha  occ. eigenvalues --   -0.63398  -0.62846  -0.62689  -0.62023  -0.61072
 Alpha  occ. eigenvalues --   -0.60539  -0.60480  -0.60020  -0.59053  -0.58836
 Alpha  occ. eigenvalues --   -0.58546  -0.57729  -0.56957  -0.55887  -0.54986
 Alpha  occ. eigenvalues --   -0.54047  -0.53814  -0.52705  -0.52475  -0.51525
 Alpha  occ. eigenvalues --   -0.50876  -0.50645  -0.50292  -0.50068  -0.49816
 Alpha  occ. eigenvalues --   -0.49725  -0.49221  -0.48843  -0.47996  -0.47330
 Alpha  occ. eigenvalues --   -0.46509  -0.46194  -0.45727  -0.45328  -0.44372
 Alpha  occ. eigenvalues --   -0.43985  -0.43743  -0.42941  -0.42651  -0.42479
 Alpha  occ. eigenvalues --   -0.42082  -0.41947  -0.41488  -0.41356  -0.41173
 Alpha  occ. eigenvalues --   -0.40880  -0.40634  -0.40526  -0.40377  -0.40287
 Alpha  occ. eigenvalues --   -0.39844  -0.39724  -0.39507  -0.39225  -0.39091
 Alpha  occ. eigenvalues --   -0.38754  -0.38688  -0.38542  -0.38411  -0.38372
 Alpha  occ. eigenvalues --   -0.38234  -0.37938  -0.37600  -0.37505  -0.37391
 Alpha  occ. eigenvalues --   -0.37061  -0.37012  -0.36835  -0.36648  -0.36521
 Alpha  occ. eigenvalues --   -0.36402  -0.36040  -0.35980  -0.35666  -0.35564
 Alpha  occ. eigenvalues --   -0.35450  -0.35354  -0.35295  -0.34972  -0.34691
 Alpha  occ. eigenvalues --   -0.34498  -0.34360  -0.33996  -0.33941  -0.33892
 Alpha  occ. eigenvalues --   -0.33769  -0.33429  -0.33354  -0.33300  -0.33175
 Alpha  occ. eigenvalues --   -0.33133  -0.32935  -0.32808  -0.32456  -0.32336
 Alpha  occ. eigenvalues --   -0.32243  -0.31949  -0.31850  -0.31644  -0.31464
 Alpha  occ. eigenvalues --   -0.31310  -0.31198  -0.31168  -0.30911  -0.30630
 Alpha  occ. eigenvalues --   -0.30615  -0.30300  -0.30154  -0.30077  -0.29828
 Alpha  occ. eigenvalues --   -0.29631  -0.29494  -0.29113  -0.29051  -0.28800
 Alpha  occ. eigenvalues --   -0.28707  -0.28486  -0.28418  -0.28189  -0.28135
 Alpha  occ. eigenvalues --   -0.27701  -0.27488  -0.27175  -0.26845  -0.26464
 Alpha  occ. eigenvalues --   -0.26310  -0.26138  -0.25681  -0.25463  -0.25414
 Alpha  occ. eigenvalues --   -0.24731  -0.24302  -0.24250  -0.24212  -0.23555
 Alpha  occ. eigenvalues --   -0.22968  -0.22759  -0.21900  -0.20908  -0.20796
 Alpha  occ. eigenvalues --   -0.20678  -0.20446  -0.19502  -0.18785  -0.17259
 Alpha  occ. eigenvalues --   -0.15937
 Alpha virt. eigenvalues --   -0.11816  -0.07006  -0.06158  -0.04834  -0.02972
 Alpha virt. eigenvalues --   -0.02332  -0.02143  -0.01524  -0.01264  -0.00516
 Alpha virt. eigenvalues --    0.01093   0.01186   0.02161   0.02328   0.02763

 Mulliken charges:
               1
     1  Mg   0.712622
     2  C    0.049340
     3  C   -0.073018
     4  C   -0.043107
     5  C   -0.116745
     6  N   -0.254959
     7  C   -0.050405
     8  C    0.043537
     9  C   -0.035397
    10  C    0.051023
    11  C    0.176883
    12  C    0.082172
    13  C    0.142244
    14  C    0.038466
    15  O   -0.125863
    16  O   -0.283481
    17  N   -0.247761
    18  C    0.097669
    19  C   -0.160293
    20  C    0.022995
    21  C    0.068600
    22  C    0.190649
    23  C   -0.053237
    24  O   -0.156037
    25  C    0.119872
    26  N   -0.221174
    27  C    0.045257
    28  C   -0.004014
    29  C   -0.006028
    30  C    0.085348
    31  C    0.155027
    32  C    0.088104
    33  C    0.073857
    34  N   -0.262979
    35  C    0.116459
    36  C   -0.229000
    37  C    0.114600
    38  C    0.028136
    39  C    0.194284
    40  C   -0.060891
    41  O   -0.122429
    42  C    0.102758
    43  C    0.086373
    44  O   -0.210943
    45  O   -0.264184
    46  C    0.205499
    47  C    0.274825
    48  C   -0.066781
    49  C   -0.092260
    50  C    0.154197
    51  C    0.149986
    52  C    0.089506
    53  C    0.100546
    54  C   -0.117083
    55  C    0.076068
    56  C    0.122408
    57  C    0.059219
    58  C    0.079275
    59  C   -0.069328
    60  C    0.104846
    61  C    0.109357
    62  C    0.086970
    63  C    0.044859
    64  C   -0.046421
    65  C    0.107701
    66  C    0.105124
    67  H   -0.079594
    68  H   -0.040248
    69  H   -0.059804
    70  H   -0.029022
    71  H   -0.019740
    72  H   -0.016916
    73  H   -0.011706
    74  H   -0.004855
    75  H   -0.009819
    76  H    0.021842
    77  H   -0.013749
    78  H   -0.007923
    79  H   -0.017928
    80  H    0.011135
    81  H    0.007912
    82  H   -0.011728
    83  H    0.017672
    84  H    0.009099
    85  H   -0.028360
    86  H   -0.044344
    87  H   -0.011899
    88  H   -0.000356
    89  H   -0.008817
    90  H   -0.015724
    91  H   -0.028862
    92  H   -0.002831
    93  H    0.001164
    94  H   -0.009727
    95  H    0.014863
    96  H   -0.007496
    97  H    0.012302
    98  H   -0.008417
    99  H    0.021733
   100  H    0.019006
   101  H    0.020944
   102  H   -0.003207
   103  H   -0.025997
   104  H   -0.040832
   105  H   -0.005691
   106  H    0.004576
   107  H   -0.025843
   108  H   -0.050435
   109  H   -0.036716
   110  H   -0.040630
   111  H   -0.034408
   112  H   -0.015233
   113  H   -0.039083
   114  H   -0.029295
   115  H   -0.009298
   116  H   -0.017795
   117  H   -0.030788
   118  H   -0.036683
   119  H   -0.042954
   120  H   -0.023081
   121  H   -0.035842
   122  H   -0.041165
   123  H   -0.035085
   124  H   -0.030046
   125  H   -0.020027
   126  H   -0.024701
   127  H   -0.022007
   128  H   -0.032230
   129  H   -0.021292
   130  H   -0.023173
   131  H   -0.036679
   132  H   -0.028214
   133  H   -0.026383
   134  H   -0.035134
   135  H   -0.024298
   136  H   -0.016933
   137  H   -0.019588
   138  H   -0.021920
   139  H   -0.015708
   140  H   -0.036838
 Sum of Mulliken charges =  -0.00000

 Dipole moment (field-independent basis, Debye):
    X=             -2.1982    Y=              3.2598    Z=             -2.3803  Tot=              4.5961
 Quadrupole moment (field-independent basis, Debye-Ang):
   XX=           -373.2892   YY=           -419.1226   ZZ=           -412.0031
   XY=             10.7715   XZ=              8.4420   YZ=             -3.4548

 Normal termination of Gaussian 16 at Fri Apr 29 16:57:25 2022.
