 Gaussian 16, Revision A.03,
 Gaussian 16:  ES64L-G16RevA.03 25-Dec-2016

 -----------------------------------
 #p cam-b3lyp/Def2SVP td=(nstates=5)
 -----------------------------------

 ------------------------------------------------------
 step_401_chromophore_1 TDDFT with cam-b3lyp functional
 ------------------------------------------------------
 Symbolic Z-matrix:
 Charge =  0 Multiplicity = 1

                         Standard orientation:
 ---------------------------------------------------------------------
 Center     Atomic      Atomic             Coordinates (Angstroms)
 Number     Number       Type             X           Y           Z
 ---------------------------------------------------------------------
      1         12           0        6.108013    0.303473   -0.127143
      2          6           0        3.944382   -2.280082   -0.540205
      3          6           0        3.745570    2.544372   -1.169790
      4          6           0        8.472410    2.885469   -0.036044
      5          6           0        8.721605   -1.925726    0.516335
      6          7           0        4.108687    0.116265   -0.788999
      7          6           0        3.356615   -1.036378   -0.776858
      8          6           0        1.883309   -0.653690   -1.161135
      9          6           0        1.911361    0.832431   -1.588434
     10          6           0        3.325549    1.186869   -1.167850
     11          6           0        1.312442    1.185448   -2.891969
     12          6           0        0.871399   -0.879198    0.124180
     13          6           0       -0.570507   -0.217644    0.144750
     14          6           0       -1.692451   -0.914449    0.873647
     15          8           0       -2.107480   -0.712733    1.957646
     16          8           0       -2.226687   -1.857980    0.007990
     17          7           0        6.041429    2.464523   -0.389908
     18          6           0        4.988024    3.159245   -0.819374
     19          6           0        5.277144    4.596304   -0.743851
     20          6           0        6.657471    4.693699   -0.392629
     21          6           0        7.127127    3.334593   -0.268751
     22          6           0        4.290313    5.686903   -0.986903
     23          6           0        7.485348    6.022653   -0.170384
     24          8           0        8.705790    5.999139   -0.050371
     25          6           0        6.774676    7.402248   -0.301780
     26          7           0        8.201516    0.378642    0.044911
     27          6           0        8.974984    1.534315    0.015507
     28          6           0       10.526475    1.278727    0.266146
     29          6           0       10.423757   -0.114981    0.952174
     30          6           0        9.010704   -0.594598    0.515717
     31          6           0       11.538630    1.419714   -0.904234
     32          6           0       10.622418    0.012116    2.476285
     33          6           0        9.718756    0.826288    3.372538
     34          7           0        6.342204   -1.694503   -0.000950
     35          6           0        7.442151   -2.498061    0.227104
     36          6           0        7.106364   -3.892854    0.040335
     37          6           0        5.712172   -3.890237   -0.209722
     38          6           0        5.339813   -2.548480   -0.211185
     39          6           0        8.049920   -5.084585    0.225901
     40          6           0        4.529116   -4.664415   -0.409691
     41          8           0        4.425552   -5.878368   -0.454322
     42          6           0        3.392846   -3.686820   -0.599387
     43          6           0        2.249271   -3.952446    0.309940
     44          8           0        2.109539   -3.626104    1.492011
     45          8           0        1.298755   -4.686115   -0.302341
     46          6           0        0.005470   -4.952007    0.370639
     47          6           0       -3.367033   -2.575914    0.509477
     48          6           0       -4.697806   -2.010004   -0.062199
     49          6           0       -5.782469   -2.663923   -0.465976
     50          6           0       -6.017308   -4.133792   -0.301507
     51          6           0       -6.922213   -1.895268   -1.054817
     52          6           0       -8.132007   -1.568286   -0.211649
     53          6           0       -8.059308   -0.147510    0.533630
     54          6           0       -9.230849    0.833067    0.116187
     55          6           0       -8.739357    1.728760   -1.117644
     56          6           0       -9.622702    1.784453    1.216787
     57          6           0      -11.074278    2.330446    1.059631
     58          6           0      -12.149274    1.487006    1.792998
     59          6           0      -13.449036    2.380461    2.164091
     60          6           0      -13.405555    2.646196    3.724569
     61          6           0      -14.795873    1.712999    1.718340
     62          6           0      -14.901103    1.940333    0.164228
     63          6           0      -14.445652    0.619070   -0.667881
     64          6           0      -15.202361    0.526054   -2.003551
     65          6           0      -16.608093    0.057213   -1.739651
     66          6           0      -14.420551   -0.473859   -2.817375
     67          1           0        2.983493    3.308031   -1.339379
     68          1           0        9.212879    3.681103    0.074963
     69          1           0        9.558320   -2.620989    0.618395
     70          1           0        1.546664   -1.171808   -2.058255
     71          1           0        1.351349    1.495598   -0.930013
     72          1           0        0.476219    1.875051   -2.772145
     73          1           0        0.874961    0.279676   -3.310970
     74          1           0        2.088792    1.659586   -3.492047
     75          1           0        1.422341   -0.450361    0.961034
     76          1           0        0.710802   -1.930220    0.364344
     77          1           0       -0.912546   -0.065782   -0.879011
     78          1           0       -0.531280    0.756079    0.634869
     79          1           0        3.289140    5.311027   -1.196859
     80          1           0        4.709987    6.153659   -1.877946
     81          1           0        4.196723    6.374395   -0.145812
     82          1           0        7.550959    8.166961   -0.281278
     83          1           0        6.066700    7.512859    0.518879
     84          1           0        6.366204    7.562871   -1.299467
     85          1           0       10.836692    1.949200    1.066714
     86          1           0       11.173958   -0.814892    0.585767
     87          1           0       11.111061    1.959434   -1.749389
     88          1           0       11.910576    0.441388   -1.210337
     89          1           0       12.317863    2.120471   -0.605778
     90          1           0       11.640823    0.401006    2.482925
     91          1           0       10.538962   -1.029034    2.786682
     92          1           0        9.039860    0.142320    3.880703
     93          1           0        9.158552    1.571179    2.808434
     94          1           0       10.210920    1.431181    4.133905
     95          1           0        8.530728   -4.970810    1.196839
     96          1           0        8.784663   -5.054937   -0.579016
     97          1           0        7.394447   -5.927117    0.004339
     98          1           0        2.930555   -3.815829   -1.578199
     99          1           0       -0.625308   -4.067319    0.456108
    100          1           0        0.278826   -5.262123    1.379158
    101          1           0       -0.533179   -5.742261   -0.152259
    102          1           0       -3.444863   -2.651956    1.593546
    103          1           0       -3.196542   -3.644967    0.382119
    104          1           0       -4.616778   -0.927157   -0.153319
    105          1           0       -6.136657   -4.613580   -1.272919
    106          1           0       -6.915513   -4.350373    0.276338
    107          1           0       -5.161719   -4.612744    0.175938
    108          1           0       -7.340776   -2.470737   -1.881239
    109          1           0       -6.695295   -0.948923   -1.544656
    110          1           0       -8.187288   -2.325685    0.569098
    111          1           0       -9.108155   -1.564380   -0.696165
    112          1           0       -7.171257    0.479049    0.449794
    113          1           0       -8.376329   -0.381100    1.549736
    114          1           0      -10.047259    0.272199   -0.338646
    115          1           0       -7.674578    1.682545   -1.350607
    116          1           0       -9.110511    2.744266   -0.979380
    117          1           0       -9.251935    1.404728   -2.022712
    118          1           0       -8.879779    2.581559    1.242466
    119          1           0       -9.572451    1.335816    2.208774
    120          1           0      -11.412503    2.513145    0.039407
    121          1           0      -10.997518    3.309571    1.532571
    122          1           0      -11.730564    1.008251    2.677671
    123          1           0      -12.364130    0.623496    1.163804
    124          1           0      -13.274428    3.291374    1.591727
    125          1           0      -12.817635    3.548228    3.896309
    126          1           0      -12.889005    1.910994    4.341752
    127          1           0      -14.357265    2.709321    4.251135
    128          1           0      -15.680458    2.109965    2.218656
    129          1           0      -14.607778    0.701401    2.079062
    130          1           0      -14.362139    2.814027   -0.202543
    131          1           0      -15.955158    2.130029   -0.040668
    132          1           0      -14.511595   -0.340558   -0.153248
    133          1           0      -13.397997    0.693475   -0.959459
    134          1           0      -15.164494    1.511748   -2.467773
    135          1           0      -16.986424   -0.906608   -2.083017
    136          1           0      -17.275867    0.793326   -2.189244
    137          1           0      -16.873874   -0.059082   -0.688628
    138          1           0      -14.110903   -1.418690   -2.369698
    139          1           0      -13.582363   -0.145821   -3.431449
    140          1           0      -15.229531   -0.788086   -3.477250
 ---------------------------------------------------------------------

 SCF Done:  E(RCAM-B3LYP) =  -3007.16356650     A.U. after   18 cycles

 Excitation energies and oscillator strengths:

 Excited State   1:      Singlet-A      1.6783 eV  738.75 nm  f=0.3698  <S**2>=0.000
     245 -> 248        0.16692
     246 -> 247        0.68861
     245 <- 248        0.10376
 This state for optimization and/or second-order correction.
 Total Energy, E(TD-HF/TD-DFT) =  -3007.10188980
 Copying the excited state density for this state as the 1-particle RhoCI density.

 Excited State   2:      Singlet-A      2.1638 eV  572.98 nm  f=0.1425  <S**2>=0.000
     245 -> 247        0.65034
     246 -> 248       -0.26168

 Excited State   3:      Singlet-A      3.3114 eV  374.41 nm  f=0.0079  <S**2>=0.000
     243 -> 247        0.51306
     244 -> 247       -0.43658
     246 -> 248        0.16119

 Excited State   4:      Singlet-A      3.4812 eV  356.16 nm  f=0.0361  <S**2>=0.000
     240 -> 247       -0.14345
     243 -> 247        0.32902
     244 -> 247        0.51661
     246 -> 248        0.28913

 Excited State   5:      Singlet-A      3.6204 eV  342.46 nm  f=0.7666  <S**2>=0.000
     243 -> 247       -0.29514
     244 -> 247       -0.14125
     245 -> 247        0.27701
     246 -> 248        0.55928
     245 <- 247       -0.10506

 The electronic state is 1-A.
 Alpha  occ. eigenvalues --  -46.88137 -19.24944 -19.24293 -19.20668 -19.20330
 Alpha  occ. eigenvalues --  -19.18544 -19.18118 -14.42648 -14.42418 -14.39648
 Alpha  occ. eigenvalues --  -14.38857 -10.39391 -10.38739 -10.36852 -10.34150
 Alpha  occ. eigenvalues --  -10.32136 -10.32010 -10.31739 -10.31674 -10.31665
 Alpha  occ. eigenvalues --  -10.30883 -10.30509 -10.29849 -10.29427 -10.29233
 Alpha  occ. eigenvalues --  -10.28859 -10.28407 -10.28112 -10.28069 -10.28041
 Alpha  occ. eigenvalues --  -10.27780 -10.27779 -10.27777 -10.27762 -10.27670
 Alpha  occ. eigenvalues --  -10.27503 -10.27301 -10.27292 -10.27234 -10.27179
 Alpha  occ. eigenvalues --  -10.26934 -10.26625 -10.26251 -10.26155 -10.26142
 Alpha  occ. eigenvalues --  -10.26125 -10.26083 -10.26067 -10.25777 -10.25557
 Alpha  occ. eigenvalues --  -10.25485 -10.25472 -10.25376 -10.25252 -10.25129
 Alpha  occ. eigenvalues --  -10.24933 -10.24889 -10.24849 -10.24746 -10.24720
 Alpha  occ. eigenvalues --  -10.24566 -10.24293 -10.24262 -10.24223 -10.24162
 Alpha  occ. eigenvalues --  -10.23989  -3.16808  -1.91710  -1.91246  -1.91141
 Alpha  occ. eigenvalues --   -1.17788  -1.15916  -1.10864  -1.09680  -1.09435
 Alpha  occ. eigenvalues --   -1.05972  -1.04358  -1.03588  -1.03381  -1.02572
 Alpha  occ. eigenvalues --   -0.92863  -0.90672  -0.89990  -0.89494  -0.89105
 Alpha  occ. eigenvalues --   -0.88832  -0.88156  -0.87681  -0.87114  -0.86877
 Alpha  occ. eigenvalues --   -0.86007  -0.85950  -0.84014  -0.83592  -0.83167
 Alpha  occ. eigenvalues --   -0.82002  -0.81648  -0.81365  -0.80504  -0.80100
 Alpha  occ. eigenvalues --   -0.79178  -0.78608  -0.78427  -0.77475  -0.76405
 Alpha  occ. eigenvalues --   -0.75894  -0.75815  -0.75313  -0.74254  -0.74075
 Alpha  occ. eigenvalues --   -0.73694  -0.72651  -0.71921  -0.70718  -0.69518
 Alpha  occ. eigenvalues --   -0.68640  -0.68378  -0.67282  -0.66931  -0.65734
 Alpha  occ. eigenvalues --   -0.65000  -0.64609  -0.64316  -0.63924  -0.63802
 Alpha  occ. eigenvalues --   -0.63548  -0.63166  -0.62783  -0.61559  -0.60889
 Alpha  occ. eigenvalues --   -0.60358  -0.59790  -0.59299  -0.58657  -0.57849
 Alpha  occ. eigenvalues --   -0.57379  -0.57142  -0.56111  -0.55979  -0.55713
 Alpha  occ. eigenvalues --   -0.55204  -0.54970  -0.54483  -0.54248  -0.54107
 Alpha  occ. eigenvalues --   -0.53785  -0.53629  -0.53400  -0.53109  -0.52879
 Alpha  occ. eigenvalues --   -0.52585  -0.52392  -0.52242  -0.51932  -0.51683
 Alpha  occ. eigenvalues --   -0.51211  -0.51098  -0.51042  -0.50931  -0.50830
 Alpha  occ. eigenvalues --   -0.50677  -0.50326  -0.49975  -0.49775  -0.49743
 Alpha  occ. eigenvalues --   -0.49612  -0.49250  -0.49172  -0.49042  -0.49018
 Alpha  occ. eigenvalues --   -0.48725  -0.48491  -0.48394  -0.48037  -0.47791
 Alpha  occ. eigenvalues --   -0.47565  -0.47379  -0.47226  -0.46917  -0.46559
 Alpha  occ. eigenvalues --   -0.46346  -0.46260  -0.45908  -0.45735  -0.45636
 Alpha  occ. eigenvalues --   -0.45483  -0.45075  -0.45061  -0.44975  -0.44830
 Alpha  occ. eigenvalues --   -0.44734  -0.44671  -0.44441  -0.44249  -0.44093
 Alpha  occ. eigenvalues --   -0.43906  -0.43812  -0.43442  -0.43114  -0.43083
 Alpha  occ. eigenvalues --   -0.42974  -0.42614  -0.42546  -0.42308  -0.42137
 Alpha  occ. eigenvalues --   -0.42074  -0.41715  -0.41436  -0.41309  -0.41093
 Alpha  occ. eigenvalues --   -0.40835  -0.40811  -0.40445  -0.40234  -0.40146
 Alpha  occ. eigenvalues --   -0.39805  -0.39715  -0.39422  -0.39217  -0.39166
 Alpha  occ. eigenvalues --   -0.38612  -0.38355  -0.38197  -0.37838  -0.37324
 Alpha  occ. eigenvalues --   -0.37232  -0.36927  -0.36799  -0.36125  -0.36064
 Alpha  occ. eigenvalues --   -0.35556  -0.35270  -0.35202  -0.34876  -0.34573
 Alpha  occ. eigenvalues --   -0.33468  -0.33054  -0.32797  -0.31915  -0.30994
 Alpha  occ. eigenvalues --   -0.30737  -0.30324  -0.30220  -0.29700  -0.24016
 Alpha  occ. eigenvalues --   -0.21332
 Alpha virt. eigenvalues --   -0.09025  -0.01638   0.00343   0.02191   0.03230
 Alpha virt. eigenvalues --    0.04607   0.05371   0.05580   0.06282   0.06349
 Alpha virt. eigenvalues --    0.07217   0.08334   0.08376   0.08887   0.08998

 Mulliken charges:
               1
     1  Mg   0.846749
     2  C    0.020572
     3  C   -0.089625
     4  C   -0.059098
     5  C   -0.110347
     6  N   -0.330130
     7  C   -0.016743
     8  C    0.000413
     9  C   -0.090014
    10  C    0.081297
    11  C    0.112286
    12  C    0.041020
    13  C    0.073917
    14  C    0.118369
    15  O   -0.165957
    16  O   -0.346018
    17  N   -0.333297
    18  C    0.111710
    19  C   -0.165631
    20  C   -0.038810
    21  C    0.090019
    22  C    0.129582
    23  C    0.027198
    24  O   -0.194617
    25  C    0.039312
    26  N   -0.289343
    27  C    0.061096
    28  C   -0.058050
    29  C   -0.056998
    30  C    0.087181
    31  C    0.096191
    32  C    0.038356
    33  C    0.009934
    34  N   -0.354142
    35  C    0.110289
    36  C   -0.214970
    37  C    0.026985
    38  C    0.064000
    39  C    0.140757
    40  C    0.036323
    41  O   -0.164083
    42  C    0.023533
    43  C    0.174656
    44  O   -0.249223
    45  O   -0.328530
    46  C    0.175946
    47  C    0.238645
    48  C   -0.081547
    49  C   -0.123415
    50  C    0.094849
    51  C    0.088884
    52  C    0.039209
    53  C    0.045729
    54  C   -0.164353
    55  C    0.021162
    56  C    0.062006
    57  C    0.007204
    58  C    0.031839
    59  C   -0.124302
    60  C    0.047369
    61  C    0.057129
    62  C    0.030014
    63  C   -0.002637
    64  C   -0.107258
    65  C    0.038767
    66  C    0.043221
    67  H   -0.046739
    68  H    0.001257
    69  H   -0.023675
    70  H    0.005524
    71  H    0.014304
    72  H    0.008809
    73  H    0.014040
    74  H    0.022551
    75  H    0.021369
    76  H    0.043813
    77  H    0.017777
    78  H    0.023055
    79  H    0.012436
    80  H    0.037353
    81  H    0.034841
    82  H    0.025159
    83  H    0.044564
    84  H    0.037341
    85  H    0.007565
    86  H   -0.007331
    87  H    0.014320
    88  H    0.024038
    89  H    0.015925
    90  H    0.010442
    91  H   -0.000094
    92  H    0.021760
    93  H    0.019765
    94  H    0.015621
    95  H    0.037248
    96  H    0.017413
    97  H    0.039048
    98  H    0.036931
    99  H    0.034486
   100  H    0.044912
   101  H    0.043830
   102  H    0.030534
   103  H   -0.001101
   104  H   -0.008908
   105  H    0.019654
   106  H    0.027362
   107  H   -0.001592
   108  H   -0.018063
   109  H   -0.007592
   110  H   -0.012882
   111  H   -0.004256
   112  H    0.009415
   113  H   -0.008386
   114  H   -0.001673
   115  H    0.012265
   116  H    0.006026
   117  H   -0.006222
   118  H   -0.005927
   119  H   -0.013194
   120  H    0.000470
   121  H   -0.007071
   122  H   -0.012746
   123  H   -0.009289
   124  H    0.000641
   125  H    0.004188
   126  H   -0.000921
   127  H    0.002781
   128  H   -0.002023
   129  H    0.005147
   130  H    0.003924
   131  H   -0.007147
   132  H   -0.001411
   133  H   -0.002408
   134  H   -0.002005
   135  H    0.002954
   136  H    0.007889
   137  H    0.005509
   138  H    0.003128
   139  H    0.009936
   140  H   -0.011239
 Sum of Mulliken charges =  -0.00000

 Dipole moment (field-independent basis, Debye):
    X=             -2.2479    Y=              4.6043    Z=             -2.5568  Tot=              5.7262
 Quadrupole moment (field-independent basis, Debye-Ang):
   XX=           -371.5320   YY=           -413.7423   ZZ=           -412.4811
   XY=             19.0958   XZ=              7.8398   YZ=             -4.1459

 Normal termination of Gaussian 16 at Fri Apr 29 15:59:10 2022.
