 Gaussian 16, Revision A.03,
 Gaussian 16:  ES64L-G16RevA.03 25-Dec-2016

 ---------------------------------
 #p PBE1PBE/Def2SVP td=(nstates=5)
 ---------------------------------

 ----------------------------------------------------
 step_401_chromophore_1 TDDFT with PBE1PBE functional
 ----------------------------------------------------
 Symbolic Z-matrix:
 Charge =  0 Multiplicity = 1

                         Standard orientation:
 ---------------------------------------------------------------------
 Center     Atomic      Atomic             Coordinates (Angstroms)
 Number     Number       Type             X           Y           Z
 ---------------------------------------------------------------------
      1         12           0        6.108013    0.303473   -0.127143
      2          6           0        3.944382   -2.280082   -0.540205
      3          6           0        3.745570    2.544372   -1.169790
      4          6           0        8.472410    2.885469   -0.036044
      5          6           0        8.721605   -1.925726    0.516335
      6          7           0        4.108687    0.116265   -0.788999
      7          6           0        3.356615   -1.036378   -0.776858
      8          6           0        1.883309   -0.653690   -1.161135
      9          6           0        1.911361    0.832431   -1.588434
     10          6           0        3.325549    1.186869   -1.167850
     11          6           0        1.312442    1.185448   -2.891969
     12          6           0        0.871399   -0.879198    0.124180
     13          6           0       -0.570507   -0.217644    0.144750
     14          6           0       -1.692451   -0.914449    0.873647
     15          8           0       -2.107480   -0.712733    1.957646
     16          8           0       -2.226687   -1.857980    0.007990
     17          7           0        6.041429    2.464523   -0.389908
     18          6           0        4.988024    3.159245   -0.819374
     19          6           0        5.277144    4.596304   -0.743851
     20          6           0        6.657471    4.693699   -0.392629
     21          6           0        7.127127    3.334593   -0.268751
     22          6           0        4.290313    5.686903   -0.986903
     23          6           0        7.485348    6.022653   -0.170384
     24          8           0        8.705790    5.999139   -0.050371
     25          6           0        6.774676    7.402248   -0.301780
     26          7           0        8.201516    0.378642    0.044911
     27          6           0        8.974984    1.534315    0.015507
     28          6           0       10.526475    1.278727    0.266146
     29          6           0       10.423757   -0.114981    0.952174
     30          6           0        9.010704   -0.594598    0.515717
     31          6           0       11.538630    1.419714   -0.904234
     32          6           0       10.622418    0.012116    2.476285
     33          6           0        9.718756    0.826288    3.372538
     34          7           0        6.342204   -1.694503   -0.000950
     35          6           0        7.442151   -2.498061    0.227104
     36          6           0        7.106364   -3.892854    0.040335
     37          6           0        5.712172   -3.890237   -0.209722
     38          6           0        5.339813   -2.548480   -0.211185
     39          6           0        8.049920   -5.084585    0.225901
     40          6           0        4.529116   -4.664415   -0.409691
     41          8           0        4.425552   -5.878368   -0.454322
     42          6           0        3.392846   -3.686820   -0.599387
     43          6           0        2.249271   -3.952446    0.309940
     44          8           0        2.109539   -3.626104    1.492011
     45          8           0        1.298755   -4.686115   -0.302341
     46          6           0        0.005470   -4.952007    0.370639
     47          6           0       -3.367033   -2.575914    0.509477
     48          6           0       -4.697806   -2.010004   -0.062199
     49          6           0       -5.782469   -2.663923   -0.465976
     50          6           0       -6.017308   -4.133792   -0.301507
     51          6           0       -6.922213   -1.895268   -1.054817
     52          6           0       -8.132007   -1.568286   -0.211649
     53          6           0       -8.059308   -0.147510    0.533630
     54          6           0       -9.230849    0.833067    0.116187
     55          6           0       -8.739357    1.728760   -1.117644
     56          6           0       -9.622702    1.784453    1.216787
     57          6           0      -11.074278    2.330446    1.059631
     58          6           0      -12.149274    1.487006    1.792998
     59          6           0      -13.449036    2.380461    2.164091
     60          6           0      -13.405555    2.646196    3.724569
     61          6           0      -14.795873    1.712999    1.718340
     62          6           0      -14.901103    1.940333    0.164228
     63          6           0      -14.445652    0.619070   -0.667881
     64          6           0      -15.202361    0.526054   -2.003551
     65          6           0      -16.608093    0.057213   -1.739651
     66          6           0      -14.420551   -0.473859   -2.817375
     67          1           0        2.983493    3.308031   -1.339379
     68          1           0        9.212879    3.681103    0.074963
     69          1           0        9.558320   -2.620989    0.618395
     70          1           0        1.546664   -1.171808   -2.058255
     71          1           0        1.351349    1.495598   -0.930013
     72          1           0        0.476219    1.875051   -2.772145
     73          1           0        0.874961    0.279676   -3.310970
     74          1           0        2.088792    1.659586   -3.492047
     75          1           0        1.422341   -0.450361    0.961034
     76          1           0        0.710802   -1.930220    0.364344
     77          1           0       -0.912546   -0.065782   -0.879011
     78          1           0       -0.531280    0.756079    0.634869
     79          1           0        3.289140    5.311027   -1.196859
     80          1           0        4.709987    6.153659   -1.877946
     81          1           0        4.196723    6.374395   -0.145812
     82          1           0        7.550959    8.166961   -0.281278
     83          1           0        6.066700    7.512859    0.518879
     84          1           0        6.366204    7.562871   -1.299467
     85          1           0       10.836692    1.949200    1.066714
     86          1           0       11.173958   -0.814892    0.585767
     87          1           0       11.111061    1.959434   -1.749389
     88          1           0       11.910576    0.441388   -1.210337
     89          1           0       12.317863    2.120471   -0.605778
     90          1           0       11.640823    0.401006    2.482925
     91          1           0       10.538962   -1.029034    2.786682
     92          1           0        9.039860    0.142320    3.880703
     93          1           0        9.158552    1.571179    2.808434
     94          1           0       10.210920    1.431181    4.133905
     95          1           0        8.530728   -4.970810    1.196839
     96          1           0        8.784663   -5.054937   -0.579016
     97          1           0        7.394447   -5.927117    0.004339
     98          1           0        2.930555   -3.815829   -1.578199
     99          1           0       -0.625308   -4.067319    0.456108
    100          1           0        0.278826   -5.262123    1.379158
    101          1           0       -0.533179   -5.742261   -0.152259
    102          1           0       -3.444863   -2.651956    1.593546
    103          1           0       -3.196542   -3.644967    0.382119
    104          1           0       -4.616778   -0.927157   -0.153319
    105          1           0       -6.136657   -4.613580   -1.272919
    106          1           0       -6.915513   -4.350373    0.276338
    107          1           0       -5.161719   -4.612744    0.175938
    108          1           0       -7.340776   -2.470737   -1.881239
    109          1           0       -6.695295   -0.948923   -1.544656
    110          1           0       -8.187288   -2.325685    0.569098
    111          1           0       -9.108155   -1.564380   -0.696165
    112          1           0       -7.171257    0.479049    0.449794
    113          1           0       -8.376329   -0.381100    1.549736
    114          1           0      -10.047259    0.272199   -0.338646
    115          1           0       -7.674578    1.682545   -1.350607
    116          1           0       -9.110511    2.744266   -0.979380
    117          1           0       -9.251935    1.404728   -2.022712
    118          1           0       -8.879779    2.581559    1.242466
    119          1           0       -9.572451    1.335816    2.208774
    120          1           0      -11.412503    2.513145    0.039407
    121          1           0      -10.997518    3.309571    1.532571
    122          1           0      -11.730564    1.008251    2.677671
    123          1           0      -12.364130    0.623496    1.163804
    124          1           0      -13.274428    3.291374    1.591727
    125          1           0      -12.817635    3.548228    3.896309
    126          1           0      -12.889005    1.910994    4.341752
    127          1           0      -14.357265    2.709321    4.251135
    128          1           0      -15.680458    2.109965    2.218656
    129          1           0      -14.607778    0.701401    2.079062
    130          1           0      -14.362139    2.814027   -0.202543
    131          1           0      -15.955158    2.130029   -0.040668
    132          1           0      -14.511595   -0.340558   -0.153248
    133          1           0      -13.397997    0.693475   -0.959459
    134          1           0      -15.164494    1.511748   -2.467773
    135          1           0      -16.986424   -0.906608   -2.083017
    136          1           0      -17.275867    0.793326   -2.189244
    137          1           0      -16.873874   -0.059082   -0.688628
    138          1           0      -14.110903   -1.418690   -2.369698
    139          1           0      -13.582363   -0.145821   -3.431449
    140          1           0      -15.229531   -0.788086   -3.477250
 ---------------------------------------------------------------------

 SCF Done:  E(RPBE1PBE) =  -3005.35158013     A.U. after   16 cycles

 Excitation energies and oscillator strengths:

 Excited State   1:      Singlet-A      1.8184 eV  681.82 nm  f=0.3564  <S**2>=0.000
     245 -> 248        0.16114
     246 -> 247        0.69563
     246 <- 247       -0.11342
 This state for optimization and/or second-order correction.
 Total Energy, E(TD-HF/TD-DFT) =  -3005.28475408
 Copying the excited state density for this state as the 1-particle RhoCI density.

 Excited State   2:      Singlet-A      2.1765 eV  569.65 nm  f=0.1313  <S**2>=0.000
     245 -> 247        0.65861
     246 -> 248       -0.24285

 Excited State   3:      Singlet-A      3.0061 eV  412.45 nm  f=0.0002  <S**2>=0.000
     241 -> 247       -0.14486
     244 -> 247        0.67719

 Excited State   4:      Singlet-A      3.0358 eV  408.41 nm  f=0.0001  <S**2>=0.000
     242 -> 247        0.67176
     242 -> 249        0.13927
     242 -> 250       -0.11752

 Excited State   5:      Singlet-A      3.1363 eV  395.32 nm  f=0.0004  <S**2>=0.000
     239 -> 247       -0.10270
     241 -> 247        0.64470
     244 -> 247        0.17030
     246 -> 248        0.17807

 The electronic state is 1-A.
 Alpha  occ. eigenvalues --  -46.91573 -19.25661 -19.25027 -19.20911 -19.20334
 Alpha  occ. eigenvalues --  -19.18884 -19.18559 -14.42243 -14.41882 -14.39165
 Alpha  occ. eigenvalues --  -14.38674 -10.36415 -10.35845 -10.33838 -10.31449
 Alpha  occ. eigenvalues --  -10.29672 -10.29603 -10.29570 -10.29180 -10.28965
 Alpha  occ. eigenvalues --  -10.28309 -10.27873 -10.27759 -10.27296 -10.26935
 Alpha  occ. eigenvalues --  -10.26612 -10.26352 -10.26045 -10.25749 -10.25559
 Alpha  occ. eigenvalues --  -10.25523 -10.25503 -10.25492 -10.25488 -10.25310
 Alpha  occ. eigenvalues --  -10.25167 -10.24946 -10.24907 -10.24764 -10.24551
 Alpha  occ. eigenvalues --  -10.24317 -10.24031 -10.23934 -10.23900 -10.23759
 Alpha  occ. eigenvalues --  -10.23604 -10.23543 -10.23529 -10.23412 -10.23196
 Alpha  occ. eigenvalues --  -10.23127 -10.23109 -10.22951 -10.22785 -10.22530
 Alpha  occ. eigenvalues --  -10.22487 -10.22456 -10.22455 -10.22330 -10.22306
 Alpha  occ. eigenvalues --  -10.22271 -10.22135 -10.21725 -10.21631 -10.21556
 Alpha  occ. eigenvalues --  -10.21390  -3.13820  -1.86663  -1.86178  -1.86076
 Alpha  occ. eigenvalues --   -1.12616  -1.10775  -1.05404  -1.04590  -1.04375
 Alpha  occ. eigenvalues --   -1.00871  -0.99097  -0.98204  -0.97963  -0.97231
 Alpha  occ. eigenvalues --   -0.87379  -0.84808  -0.84255  -0.83576  -0.83384
 Alpha  occ. eigenvalues --   -0.82935  -0.82337  -0.81806  -0.81372  -0.80997
 Alpha  occ. eigenvalues --   -0.80534  -0.80214  -0.78222  -0.77889  -0.77403
 Alpha  occ. eigenvalues --   -0.76275  -0.75785  -0.75457  -0.74759  -0.74416
 Alpha  occ. eigenvalues --   -0.73309  -0.72817  -0.72702  -0.71799  -0.70791
 Alpha  occ. eigenvalues --   -0.69999  -0.69975  -0.69693  -0.68437  -0.68217
 Alpha  occ. eigenvalues --   -0.67934  -0.67172  -0.66267  -0.65064  -0.63958
 Alpha  occ. eigenvalues --   -0.63114  -0.62637  -0.61610  -0.61172  -0.60230
 Alpha  occ. eigenvalues --   -0.59331  -0.59093  -0.58803  -0.58503  -0.58071
 Alpha  occ. eigenvalues --   -0.57903  -0.57359  -0.56930  -0.56212  -0.55239
 Alpha  occ. eigenvalues --   -0.54767  -0.54342  -0.53887  -0.53302  -0.52390
 Alpha  occ. eigenvalues --   -0.51962  -0.51592  -0.50665  -0.50545  -0.50222
 Alpha  occ. eigenvalues --   -0.49825  -0.49560  -0.49020  -0.48718  -0.48451
 Alpha  occ. eigenvalues --   -0.48375  -0.47906  -0.47764  -0.47572  -0.47514
 Alpha  occ. eigenvalues --   -0.47205  -0.46877  -0.46672  -0.46551  -0.46172
 Alpha  occ. eigenvalues --   -0.45739  -0.45698  -0.45522  -0.45512  -0.45374
 Alpha  occ. eigenvalues --   -0.45273  -0.44932  -0.44514  -0.44337  -0.44314
 Alpha  occ. eigenvalues --   -0.44233  -0.43774  -0.43743  -0.43686  -0.43605
 Alpha  occ. eigenvalues --   -0.43462  -0.43133  -0.42986  -0.42628  -0.42334
 Alpha  occ. eigenvalues --   -0.42159  -0.42042  -0.41901  -0.41610  -0.41198
 Alpha  occ. eigenvalues --   -0.41152  -0.41072  -0.40579  -0.40398  -0.40307
 Alpha  occ. eigenvalues --   -0.40145  -0.39894  -0.39769  -0.39690  -0.39555
 Alpha  occ. eigenvalues --   -0.39397  -0.39372  -0.39216  -0.38993  -0.38843
 Alpha  occ. eigenvalues --   -0.38603  -0.38512  -0.38269  -0.37855  -0.37737
 Alpha  occ. eigenvalues --   -0.37723  -0.37646  -0.37310  -0.37115  -0.37101
 Alpha  occ. eigenvalues --   -0.36878  -0.36544  -0.36327  -0.36146  -0.35964
 Alpha  occ. eigenvalues --   -0.35702  -0.35512  -0.35353  -0.35060  -0.34901
 Alpha  occ. eigenvalues --   -0.34709  -0.34428  -0.34253  -0.34160  -0.33912
 Alpha  occ. eigenvalues --   -0.33353  -0.33206  -0.33156  -0.32875  -0.32346
 Alpha  occ. eigenvalues --   -0.32052  -0.31836  -0.31690  -0.31137  -0.30977
 Alpha  occ. eigenvalues --   -0.30594  -0.30360  -0.30171  -0.29833  -0.29589
 Alpha  occ. eigenvalues --   -0.28734  -0.28040  -0.28008  -0.26618  -0.26568
 Alpha  occ. eigenvalues --   -0.25774  -0.25731  -0.25610  -0.25444  -0.20933
 Alpha  occ. eigenvalues --   -0.18907
 Alpha virt. eigenvalues --   -0.11455  -0.05222  -0.03874  -0.02260  -0.00021
 Alpha virt. eigenvalues --    0.00502   0.00811   0.01080   0.01853   0.02406
 Alpha virt. eigenvalues --    0.03687   0.04242   0.05082   0.05188   0.05689

 Mulliken charges:
               1
     1  Mg   1.000984
     2  C   -0.000271
     3  C   -0.079052
     4  C   -0.049252
     5  C   -0.093319
     6  N   -0.436423
     7  C    0.053097
     8  C   -0.074139
     9  C   -0.153091
    10  C    0.116038
    11  C    0.051023
    12  C   -0.016893
    13  C   -0.002136
    14  C    0.185706
    15  O   -0.201235
    16  O   -0.373977
    17  N   -0.444669
    18  C    0.136614
    19  C   -0.200452
    20  C   -0.077920
    21  C    0.108967
    22  C    0.066252
    23  C    0.078918
    24  O   -0.231285
    25  C   -0.035442
    26  N   -0.392486
    27  C    0.085778
    28  C   -0.125259
    29  C   -0.132638
    30  C    0.121462
    31  C    0.037804
    32  C   -0.024392
    33  C   -0.062148
    34  N   -0.483991
    35  C    0.128160
    36  C   -0.218075
    37  C   -0.023370
    38  C    0.117583
    39  C    0.081205
    40  C    0.129694
    41  O   -0.211639
    42  C   -0.076328
    43  C    0.265758
    44  O   -0.284164
    45  O   -0.363306
    46  C    0.116837
    47  C    0.195690
    48  C   -0.088966
    49  C   -0.174318
    50  C    0.032505
    51  C    0.023006
    52  C   -0.021320
    53  C   -0.011767
    54  C   -0.242374
    55  C   -0.034031
    56  C    0.000478
    57  C   -0.060184
    58  C   -0.011862
    59  C   -0.213488
    60  C   -0.010076
    61  C    0.003140
    62  C   -0.033136
    63  C   -0.058810
    64  C   -0.206223
    65  C   -0.017447
    66  C   -0.016275
    67  H   -0.012609
    68  H    0.031936
    69  H    0.006859
    70  H    0.042224
    71  H    0.052609
    72  H    0.035451
    73  H    0.040197
    74  H    0.050528
    75  H    0.054631
    76  H    0.087608
    77  H    0.051610
    78  H    0.055066
    79  H    0.039181
    80  H    0.065202
    81  H    0.061391
    82  H    0.052275
    83  H    0.070421
    84  H    0.063079
    85  H    0.044605
    86  H    0.028573
    87  H    0.042659
    88  H    0.049829
    89  H    0.042849
    90  H    0.044558
    91  H    0.034143
    92  H    0.048920
    93  H    0.050980
    94  H    0.043845
    95  H    0.064752
    96  H    0.047527
    97  H    0.068131
    98  H    0.075332
    99  H    0.062835
   100  H    0.066213
   101  H    0.065478
   102  H    0.057739
   103  H    0.024742
   104  H    0.020805
   105  H    0.047296
   106  H    0.053918
   107  H    0.026714
   108  H    0.016419
   109  H    0.026481
   110  H    0.021130
   111  H    0.026623
   112  H    0.040074
   113  H    0.026726
   114  H    0.035212
   115  H    0.038042
   116  H    0.033714
   117  H    0.021699
   118  H    0.026964
   119  H    0.018971
   120  H    0.033185
   121  H    0.027124
   122  H    0.018319
   123  H    0.024503
   124  H    0.038502
   125  H    0.032235
   126  H    0.025461
   127  H    0.029681
   128  H    0.029762
   129  H    0.037591
   130  H    0.034842
   131  H    0.026312
   132  H    0.029315
   133  H    0.032879
   134  H    0.034980
   135  H    0.029502
   136  H    0.035592
   137  H    0.032674
   138  H    0.030529
   139  H    0.037809
   140  H    0.017984
 Sum of Mulliken charges =  -0.00000

 Dipole moment (field-independent basis, Debye):
    X=             -2.2444    Y=              4.0222    Z=             -2.4605  Tot=              5.2220
 Quadrupole moment (field-independent basis, Debye-Ang):
   XX=           -365.3443   YY=           -411.4339   ZZ=           -410.0229
   XY=             15.1996   XZ=              9.0211   YZ=             -4.1039

 Normal termination of Gaussian 16 at Fri Apr 29 16:16:51 2022.
