 Gaussian 16, Revision A.03,
 Gaussian 16:  ES64L-G16RevA.03 25-Dec-2016

 --------------------------------
 #p wB97XD/Def2SVP td=(nstates=5)
 --------------------------------

 ---------------------------------------------------
 step_401_chromophore_1 TDDFT with wB97XD functional
 ---------------------------------------------------
 Symbolic Z-matrix:
 Charge =  0 Multiplicity = 1

                         Standard orientation:
 ---------------------------------------------------------------------
 Center     Atomic      Atomic             Coordinates (Angstroms)
 Number     Number       Type             X           Y           Z
 ---------------------------------------------------------------------
      1         12           0        6.108013    0.303473   -0.127143
      2          6           0        3.944382   -2.280082   -0.540205
      3          6           0        3.745570    2.544372   -1.169790
      4          6           0        8.472410    2.885469   -0.036044
      5          6           0        8.721605   -1.925726    0.516335
      6          7           0        4.108687    0.116265   -0.788999
      7          6           0        3.356615   -1.036378   -0.776858
      8          6           0        1.883309   -0.653690   -1.161135
      9          6           0        1.911361    0.832431   -1.588434
     10          6           0        3.325549    1.186869   -1.167850
     11          6           0        1.312442    1.185448   -2.891969
     12          6           0        0.871399   -0.879198    0.124180
     13          6           0       -0.570507   -0.217644    0.144750
     14          6           0       -1.692451   -0.914449    0.873647
     15          8           0       -2.107480   -0.712733    1.957646
     16          8           0       -2.226687   -1.857980    0.007990
     17          7           0        6.041429    2.464523   -0.389908
     18          6           0        4.988024    3.159245   -0.819374
     19          6           0        5.277144    4.596304   -0.743851
     20          6           0        6.657471    4.693699   -0.392629
     21          6           0        7.127127    3.334593   -0.268751
     22          6           0        4.290313    5.686903   -0.986903
     23          6           0        7.485348    6.022653   -0.170384
     24          8           0        8.705790    5.999139   -0.050371
     25          6           0        6.774676    7.402248   -0.301780
     26          7           0        8.201516    0.378642    0.044911
     27          6           0        8.974984    1.534315    0.015507
     28          6           0       10.526475    1.278727    0.266146
     29          6           0       10.423757   -0.114981    0.952174
     30          6           0        9.010704   -0.594598    0.515717
     31          6           0       11.538630    1.419714   -0.904234
     32          6           0       10.622418    0.012116    2.476285
     33          6           0        9.718756    0.826288    3.372538
     34          7           0        6.342204   -1.694503   -0.000950
     35          6           0        7.442151   -2.498061    0.227104
     36          6           0        7.106364   -3.892854    0.040335
     37          6           0        5.712172   -3.890237   -0.209722
     38          6           0        5.339813   -2.548480   -0.211185
     39          6           0        8.049920   -5.084585    0.225901
     40          6           0        4.529116   -4.664415   -0.409691
     41          8           0        4.425552   -5.878368   -0.454322
     42          6           0        3.392846   -3.686820   -0.599387
     43          6           0        2.249271   -3.952446    0.309940
     44          8           0        2.109539   -3.626104    1.492011
     45          8           0        1.298755   -4.686115   -0.302341
     46          6           0        0.005470   -4.952007    0.370639
     47          6           0       -3.367033   -2.575914    0.509477
     48          6           0       -4.697806   -2.010004   -0.062199
     49          6           0       -5.782469   -2.663923   -0.465976
     50          6           0       -6.017308   -4.133792   -0.301507
     51          6           0       -6.922213   -1.895268   -1.054817
     52          6           0       -8.132007   -1.568286   -0.211649
     53          6           0       -8.059308   -0.147510    0.533630
     54          6           0       -9.230849    0.833067    0.116187
     55          6           0       -8.739357    1.728760   -1.117644
     56          6           0       -9.622702    1.784453    1.216787
     57          6           0      -11.074278    2.330446    1.059631
     58          6           0      -12.149274    1.487006    1.792998
     59          6           0      -13.449036    2.380461    2.164091
     60          6           0      -13.405555    2.646196    3.724569
     61          6           0      -14.795873    1.712999    1.718340
     62          6           0      -14.901103    1.940333    0.164228
     63          6           0      -14.445652    0.619070   -0.667881
     64          6           0      -15.202361    0.526054   -2.003551
     65          6           0      -16.608093    0.057213   -1.739651
     66          6           0      -14.420551   -0.473859   -2.817375
     67          1           0        2.983493    3.308031   -1.339379
     68          1           0        9.212879    3.681103    0.074963
     69          1           0        9.558320   -2.620989    0.618395
     70          1           0        1.546664   -1.171808   -2.058255
     71          1           0        1.351349    1.495598   -0.930013
     72          1           0        0.476219    1.875051   -2.772145
     73          1           0        0.874961    0.279676   -3.310970
     74          1           0        2.088792    1.659586   -3.492047
     75          1           0        1.422341   -0.450361    0.961034
     76          1           0        0.710802   -1.930220    0.364344
     77          1           0       -0.912546   -0.065782   -0.879011
     78          1           0       -0.531280    0.756079    0.634869
     79          1           0        3.289140    5.311027   -1.196859
     80          1           0        4.709987    6.153659   -1.877946
     81          1           0        4.196723    6.374395   -0.145812
     82          1           0        7.550959    8.166961   -0.281278
     83          1           0        6.066700    7.512859    0.518879
     84          1           0        6.366204    7.562871   -1.299467
     85          1           0       10.836692    1.949200    1.066714
     86          1           0       11.173958   -0.814892    0.585767
     87          1           0       11.111061    1.959434   -1.749389
     88          1           0       11.910576    0.441388   -1.210337
     89          1           0       12.317863    2.120471   -0.605778
     90          1           0       11.640823    0.401006    2.482925
     91          1           0       10.538962   -1.029034    2.786682
     92          1           0        9.039860    0.142320    3.880703
     93          1           0        9.158552    1.571179    2.808434
     94          1           0       10.210920    1.431181    4.133905
     95          1           0        8.530728   -4.970810    1.196839
     96          1           0        8.784663   -5.054937   -0.579016
     97          1           0        7.394447   -5.927117    0.004339
     98          1           0        2.930555   -3.815829   -1.578199
     99          1           0       -0.625308   -4.067319    0.456108
    100          1           0        0.278826   -5.262123    1.379158
    101          1           0       -0.533179   -5.742261   -0.152259
    102          1           0       -3.444863   -2.651956    1.593546
    103          1           0       -3.196542   -3.644967    0.382119
    104          1           0       -4.616778   -0.927157   -0.153319
    105          1           0       -6.136657   -4.613580   -1.272919
    106          1           0       -6.915513   -4.350373    0.276338
    107          1           0       -5.161719   -4.612744    0.175938
    108          1           0       -7.340776   -2.470737   -1.881239
    109          1           0       -6.695295   -0.948923   -1.544656
    110          1           0       -8.187288   -2.325685    0.569098
    111          1           0       -9.108155   -1.564380   -0.696165
    112          1           0       -7.171257    0.479049    0.449794
    113          1           0       -8.376329   -0.381100    1.549736
    114          1           0      -10.047259    0.272199   -0.338646
    115          1           0       -7.674578    1.682545   -1.350607
    116          1           0       -9.110511    2.744266   -0.979380
    117          1           0       -9.251935    1.404728   -2.022712
    118          1           0       -8.879779    2.581559    1.242466
    119          1           0       -9.572451    1.335816    2.208774
    120          1           0      -11.412503    2.513145    0.039407
    121          1           0      -10.997518    3.309571    1.532571
    122          1           0      -11.730564    1.008251    2.677671
    123          1           0      -12.364130    0.623496    1.163804
    124          1           0      -13.274428    3.291374    1.591727
    125          1           0      -12.817635    3.548228    3.896309
    126          1           0      -12.889005    1.910994    4.341752
    127          1           0      -14.357265    2.709321    4.251135
    128          1           0      -15.680458    2.109965    2.218656
    129          1           0      -14.607778    0.701401    2.079062
    130          1           0      -14.362139    2.814027   -0.202543
    131          1           0      -15.955158    2.130029   -0.040668
    132          1           0      -14.511595   -0.340558   -0.153248
    133          1           0      -13.397997    0.693475   -0.959459
    134          1           0      -15.164494    1.511748   -2.467773
    135          1           0      -16.986424   -0.906608   -2.083017
    136          1           0      -17.275867    0.793326   -2.189244
    137          1           0      -16.873874   -0.059082   -0.688628
    138          1           0      -14.110903   -1.418690   -2.369698
    139          1           0      -13.582363   -0.145821   -3.431449
    140          1           0      -15.229531   -0.788086   -3.477250
 ---------------------------------------------------------------------

 SCF Done:  E(RwB97XD) =  -3007.86281108     A.U. after   19 cycles

 Excitation energies and oscillator strengths:

 Excited State   1:      Singlet-A      1.6310 eV  760.19 nm  f=0.3689  <S**2>=0.000
     245 -> 248        0.17111
     246 -> 247        0.68651
     245 <- 248        0.11176
 This state for optimization and/or second-order correction.
 Total Energy, E(TD-HF/TD-DFT) =  -3007.80287395
 Copying the excited state density for this state as the 1-particle RhoCI density.

 Excited State   2:      Singlet-A      2.1108 eV  587.39 nm  f=0.1393  <S**2>=0.000
     245 -> 247        0.64813
     246 -> 248       -0.26396

 Excited State   3:      Singlet-A      3.3264 eV  372.73 nm  f=0.0115  <S**2>=0.000
     242 -> 247        0.54893
     244 -> 247       -0.37256
     246 -> 248        0.17946

 Excited State   4:      Singlet-A      3.5209 eV  352.14 nm  f=0.0776  <S**2>=0.000
     240 -> 247       -0.14692
     242 -> 247        0.22574
     244 -> 247        0.53121
     246 -> 248        0.34075

 Excited State   5:      Singlet-A      3.6620 eV  338.57 nm  f=0.7833  <S**2>=0.000
     242 -> 247       -0.30080
     244 -> 247       -0.20955
     245 -> 247        0.27679
     246 -> 248        0.52272
     245 <- 247       -0.10407

 The electronic state is 1-A.
 Alpha  occ. eigenvalues --  -46.94487 -19.30195 -19.29506 -19.25586 -19.25405
 Alpha  occ. eigenvalues --  -19.23479 -19.23103 -14.47247 -14.47047 -14.44294
 Alpha  occ. eigenvalues --  -14.43420 -10.43189 -10.42567 -10.40906 -10.38087
 Alpha  occ. eigenvalues --  -10.36236 -10.36142 -10.35682 -10.35649 -10.35419
 Alpha  occ. eigenvalues --  -10.35026 -10.34628 -10.33796 -10.33504 -10.33466
 Alpha  occ. eigenvalues --  -10.32801 -10.32344 -10.32232 -10.32215 -10.32076
 Alpha  occ. eigenvalues --  -10.31849 -10.31800 -10.31767 -10.31712 -10.31662
 Alpha  occ. eigenvalues --  -10.31555 -10.31381 -10.31354 -10.31332 -10.31109
 Alpha  occ. eigenvalues --  -10.30919 -10.30485 -10.30246 -10.30170 -10.30012
 Alpha  occ. eigenvalues --  -10.30008 -10.29984 -10.29983 -10.29609 -10.29485
 Alpha  occ. eigenvalues --  -10.29458 -10.29417 -10.29322 -10.29177 -10.28943
 Alpha  occ. eigenvalues --  -10.28865 -10.28816 -10.28800 -10.28701 -10.28669
 Alpha  occ. eigenvalues --  -10.28500 -10.28226 -10.28138 -10.28062 -10.27982
 Alpha  occ. eigenvalues --  -10.27812  -3.20578  -1.94173  -1.93691  -1.93580
 Alpha  occ. eigenvalues --   -1.19959  -1.18073  -1.13135  -1.11901  -1.11607
 Alpha  occ. eigenvalues --   -1.08142  -1.06356  -1.05652  -1.05396  -1.04611
 Alpha  occ. eigenvalues --   -0.94811  -0.92485  -0.91867  -0.91244  -0.90954
 Alpha  occ. eigenvalues --   -0.90602  -0.90121  -0.89657  -0.89018  -0.88667
 Alpha  occ. eigenvalues --   -0.87903  -0.87869  -0.85872  -0.85480  -0.85060
 Alpha  occ. eigenvalues --   -0.83908  -0.83531  -0.83283  -0.82426  -0.82030
 Alpha  occ. eigenvalues --   -0.80990  -0.80615  -0.80320  -0.79370  -0.78327
 Alpha  occ. eigenvalues --   -0.77677  -0.77653  -0.77282  -0.76099  -0.75893
 Alpha  occ. eigenvalues --   -0.75571  -0.74621  -0.73875  -0.72666  -0.71445
 Alpha  occ. eigenvalues --   -0.70624  -0.70265  -0.69313  -0.68815  -0.67716
 Alpha  occ. eigenvalues --   -0.66898  -0.66593  -0.66280  -0.65906  -0.65623
 Alpha  occ. eigenvalues --   -0.65500  -0.65000  -0.64601  -0.63531  -0.62776
 Alpha  occ. eigenvalues --   -0.62406  -0.61739  -0.61288  -0.60644  -0.59788
 Alpha  occ. eigenvalues --   -0.59348  -0.59058  -0.58105  -0.57954  -0.57620
 Alpha  occ. eigenvalues --   -0.57199  -0.56911  -0.56400  -0.56172  -0.55948
 Alpha  occ. eigenvalues --   -0.55697  -0.55593  -0.55290  -0.54976  -0.54797
 Alpha  occ. eigenvalues --   -0.54517  -0.54345  -0.54101  -0.53855  -0.53572
 Alpha  occ. eigenvalues --   -0.53101  -0.53029  -0.52910  -0.52890  -0.52771
 Alpha  occ. eigenvalues --   -0.52576  -0.52239  -0.51941  -0.51679  -0.51638
 Alpha  occ. eigenvalues --   -0.51517  -0.51212  -0.51057  -0.50953  -0.50917
 Alpha  occ. eigenvalues --   -0.50657  -0.50442  -0.50281  -0.50008  -0.49737
 Alpha  occ. eigenvalues --   -0.49457  -0.49289  -0.49112  -0.48814  -0.48429
 Alpha  occ. eigenvalues --   -0.48270  -0.48184  -0.47848  -0.47590  -0.47523
 Alpha  occ. eigenvalues --   -0.47357  -0.46997  -0.46936  -0.46888  -0.46712
 Alpha  occ. eigenvalues --   -0.46596  -0.46550  -0.46360  -0.46198  -0.46028
 Alpha  occ. eigenvalues --   -0.45847  -0.45719  -0.45404  -0.45101  -0.44958
 Alpha  occ. eigenvalues --   -0.44892  -0.44502  -0.44447  -0.44210  -0.44060
 Alpha  occ. eigenvalues --   -0.44005  -0.43625  -0.43373  -0.43204  -0.43006
 Alpha  occ. eigenvalues --   -0.42745  -0.42656  -0.42341  -0.42104  -0.42018
 Alpha  occ. eigenvalues --   -0.41739  -0.41526  -0.41290  -0.41149  -0.41012
 Alpha  occ. eigenvalues --   -0.40447  -0.40205  -0.40140  -0.39808  -0.39250
 Alpha  occ. eigenvalues --   -0.39083  -0.38841  -0.38696  -0.38149  -0.37977
 Alpha  occ. eigenvalues --   -0.37563  -0.37181  -0.37125  -0.36825  -0.36419
 Alpha  occ. eigenvalues --   -0.35513  -0.34911  -0.34887  -0.33925  -0.33205
 Alpha  occ. eigenvalues --   -0.32645  -0.32449  -0.32344  -0.31832  -0.25947
 Alpha  occ. eigenvalues --   -0.23148
 Alpha virt. eigenvalues --   -0.07363   0.00284   0.02375   0.04295   0.06295
 Alpha virt. eigenvalues --    0.06906   0.07702   0.07772   0.08623   0.08930
 Alpha virt. eigenvalues --    0.09916   0.11159   0.11837   0.11885   0.12425

 Mulliken charges:
               1
     1  Mg   0.987744
     2  C    0.003012
     3  C   -0.098663
     4  C   -0.065599
     5  C   -0.110486
     6  N   -0.404476
     7  C    0.018856
     8  C   -0.047368
     9  C   -0.129924
    10  C    0.106029
    11  C    0.061013
    12  C    0.006767
    13  C    0.013407
    14  C    0.176078
    15  O   -0.199170
    16  O   -0.372471
    17  N   -0.413083
    18  C    0.132523
    19  C   -0.185760
    20  C   -0.074826
    21  C    0.108236
    22  C    0.079933
    23  C    0.074052
    24  O   -0.225088
    25  C   -0.023141
    26  N   -0.360087
    27  C    0.075834
    28  C   -0.102961
    29  C   -0.104234
    30  C    0.103454
    31  C    0.047789
    32  C   -0.008495
    33  C   -0.044082
    34  N   -0.445925
    35  C    0.117565
    36  C   -0.219959
    37  C   -0.020949
    38  C    0.098221
    39  C    0.093014
    40  C    0.111889
    41  O   -0.202731
    42  C   -0.040493
    43  C    0.239259
    44  O   -0.277635
    45  O   -0.361155
    46  C    0.140479
    47  C    0.210671
    48  C   -0.099449
    49  C   -0.159040
    50  C    0.046116
    51  C    0.042537
    52  C   -0.004270
    53  C    0.003237
    54  C   -0.213557
    55  C   -0.024580
    56  C    0.021760
    57  C   -0.040462
    58  C   -0.000531
    59  C   -0.179611
    60  C    0.001221
    61  C    0.017533
    62  C   -0.016532
    63  C   -0.039354
    64  C   -0.172729
    65  C   -0.012639
    66  C   -0.005300
    67  H   -0.022571
    68  H    0.028744
    69  H    0.002953
    70  H    0.031597
    71  H    0.038463
    72  H    0.031055
    73  H    0.035010
    74  H    0.044931
    75  H    0.046940
    76  H    0.065949
    77  H    0.044080
    78  H    0.049145
    79  H    0.037311
    80  H    0.059131
    81  H    0.057105
    82  H    0.051739
    83  H    0.066097
    84  H    0.058379
    85  H    0.032677
    86  H    0.019943
    87  H    0.036467
    88  H    0.045374
    89  H    0.037930
    90  H    0.034929
    91  H    0.025444
    92  H    0.044216
    93  H    0.037203
    94  H    0.039253
    95  H    0.058855
    96  H    0.040684
    97  H    0.063656
    98  H    0.068351
    99  H    0.049141
   100  H    0.062061
   101  H    0.062462
   102  H    0.053146
   103  H    0.018923
   104  H    0.017402
   105  H    0.042011
   106  H    0.048426
   107  H    0.020224
   108  H    0.008694
   109  H    0.016677
   110  H    0.010976
   111  H    0.019700
   112  H    0.030050
   113  H    0.016689
   114  H    0.019836
   115  H    0.032280
   116  H    0.026169
   117  H    0.016074
   118  H    0.018295
   119  H    0.008903
   120  H    0.022217
   121  H    0.017702
   122  H    0.008375
   123  H    0.011181
   124  H    0.023004
   125  H    0.026164
   126  H    0.018993
   127  H    0.024494
   128  H    0.023723
   129  H    0.027077
   130  H    0.026654
   131  H    0.017254
   132  H    0.019070
   133  H    0.018539
   134  H    0.026188
   135  H    0.024824
   136  H    0.030447
   137  H    0.025908
   138  H    0.024543
   139  H    0.033434
   140  H    0.009618
 Sum of Mulliken charges =  -0.00000

 Dipole moment (field-independent basis, Debye):
    X=             -2.2637    Y=              4.8242    Z=             -2.5691  Tot=              5.9158
 Quadrupole moment (field-independent basis, Debye-Ang):
   XX=           -366.1869   YY=           -409.0120   ZZ=           -409.7177
   XY=             20.5145   XZ=              8.4139   YZ=             -4.2962

 Normal termination of Gaussian 16 at Fri Apr 29 16:46:14 2022.
