 Gaussian 16, Revision A.03,
 Gaussian 16:  ES64L-G16RevA.03 25-Dec-2016

 --------------------
 #p ZINDO=(nstates=5)
 --------------------

 ----------------------------
 step_401_chromophore_1 ZINDO
 ----------------------------
 Symbolic Z-matrix:
 Charge =  0 Multiplicity = 1

                         Standard orientation:
 ---------------------------------------------------------------------
 Center     Atomic      Atomic             Coordinates (Angstroms)
 Number     Number       Type             X           Y           Z
 ---------------------------------------------------------------------
      1         12           0        6.108013    0.303473   -0.127143
      2          6           0        3.944382   -2.280082   -0.540205
      3          6           0        3.745570    2.544372   -1.169790
      4          6           0        8.472410    2.885469   -0.036044
      5          6           0        8.721605   -1.925726    0.516335
      6          7           0        4.108687    0.116265   -0.788999
      7          6           0        3.356615   -1.036378   -0.776858
      8          6           0        1.883309   -0.653690   -1.161135
      9          6           0        1.911361    0.832431   -1.588434
     10          6           0        3.325549    1.186869   -1.167850
     11          6           0        1.312442    1.185448   -2.891969
     12          6           0        0.871399   -0.879198    0.124180
     13          6           0       -0.570507   -0.217644    0.144750
     14          6           0       -1.692451   -0.914449    0.873647
     15          8           0       -2.107480   -0.712733    1.957646
     16          8           0       -2.226687   -1.857980    0.007990
     17          7           0        6.041429    2.464523   -0.389908
     18          6           0        4.988024    3.159245   -0.819374
     19          6           0        5.277144    4.596304   -0.743851
     20          6           0        6.657471    4.693699   -0.392629
     21          6           0        7.127127    3.334593   -0.268751
     22          6           0        4.290313    5.686903   -0.986903
     23          6           0        7.485348    6.022653   -0.170384
     24          8           0        8.705790    5.999139   -0.050371
     25          6           0        6.774676    7.402248   -0.301780
     26          7           0        8.201516    0.378642    0.044911
     27          6           0        8.974984    1.534315    0.015507
     28          6           0       10.526475    1.278727    0.266146
     29          6           0       10.423757   -0.114981    0.952174
     30          6           0        9.010704   -0.594598    0.515717
     31          6           0       11.538630    1.419714   -0.904234
     32          6           0       10.622418    0.012116    2.476285
     33          6           0        9.718756    0.826288    3.372538
     34          7           0        6.342204   -1.694503   -0.000950
     35          6           0        7.442151   -2.498061    0.227104
     36          6           0        7.106364   -3.892854    0.040335
     37          6           0        5.712172   -3.890237   -0.209722
     38          6           0        5.339813   -2.548480   -0.211185
     39          6           0        8.049920   -5.084585    0.225901
     40          6           0        4.529116   -4.664415   -0.409691
     41          8           0        4.425552   -5.878368   -0.454322
     42          6           0        3.392846   -3.686820   -0.599387
     43          6           0        2.249271   -3.952446    0.309940
     44          8           0        2.109539   -3.626104    1.492011
     45          8           0        1.298755   -4.686115   -0.302341
     46          6           0        0.005470   -4.952007    0.370639
     47          6           0       -3.367033   -2.575914    0.509477
     48          6           0       -4.697806   -2.010004   -0.062199
     49          6           0       -5.782469   -2.663923   -0.465976
     50          6           0       -6.017308   -4.133792   -0.301507
     51          6           0       -6.922213   -1.895268   -1.054817
     52          6           0       -8.132007   -1.568286   -0.211649
     53          6           0       -8.059308   -0.147510    0.533630
     54          6           0       -9.230849    0.833067    0.116187
     55          6           0       -8.739357    1.728760   -1.117644
     56          6           0       -9.622702    1.784453    1.216787
     57          6           0      -11.074278    2.330446    1.059631
     58          6           0      -12.149274    1.487006    1.792998
     59          6           0      -13.449036    2.380461    2.164091
     60          6           0      -13.405555    2.646196    3.724569
     61          6           0      -14.795873    1.712999    1.718340
     62          6           0      -14.901103    1.940333    0.164228
     63          6           0      -14.445652    0.619070   -0.667881
     64          6           0      -15.202361    0.526054   -2.003551
     65          6           0      -16.608093    0.057213   -1.739651
     66          6           0      -14.420551   -0.473859   -2.817375
     67          1           0        2.983493    3.308031   -1.339379
     68          1           0        9.212879    3.681103    0.074963
     69          1           0        9.558320   -2.620989    0.618395
     70          1           0        1.546664   -1.171808   -2.058255
     71          1           0        1.351349    1.495598   -0.930013
     72          1           0        0.476219    1.875051   -2.772145
     73          1           0        0.874961    0.279676   -3.310970
     74          1           0        2.088792    1.659586   -3.492047
     75          1           0        1.422341   -0.450361    0.961034
     76          1           0        0.710802   -1.930220    0.364344
     77          1           0       -0.912546   -0.065782   -0.879011
     78          1           0       -0.531280    0.756079    0.634869
     79          1           0        3.289140    5.311027   -1.196859
     80          1           0        4.709987    6.153659   -1.877946
     81          1           0        4.196723    6.374395   -0.145812
     82          1           0        7.550959    8.166961   -0.281278
     83          1           0        6.066700    7.512859    0.518879
     84          1           0        6.366204    7.562871   -1.299467
     85          1           0       10.836692    1.949200    1.066714
     86          1           0       11.173958   -0.814892    0.585767
     87          1           0       11.111061    1.959434   -1.749389
     88          1           0       11.910576    0.441388   -1.210337
     89          1           0       12.317863    2.120471   -0.605778
     90          1           0       11.640823    0.401006    2.482925
     91          1           0       10.538962   -1.029034    2.786682
     92          1           0        9.039860    0.142320    3.880703
     93          1           0        9.158552    1.571179    2.808434
     94          1           0       10.210920    1.431181    4.133905
     95          1           0        8.530728   -4.970810    1.196839
     96          1           0        8.784663   -5.054937   -0.579016
     97          1           0        7.394447   -5.927117    0.004339
     98          1           0        2.930555   -3.815829   -1.578199
     99          1           0       -0.625308   -4.067319    0.456108
    100          1           0        0.278826   -5.262123    1.379158
    101          1           0       -0.533179   -5.742261   -0.152259
    102          1           0       -3.444863   -2.651956    1.593546
    103          1           0       -3.196542   -3.644967    0.382119
    104          1           0       -4.616778   -0.927157   -0.153319
    105          1           0       -6.136657   -4.613580   -1.272919
    106          1           0       -6.915513   -4.350373    0.276338
    107          1           0       -5.161719   -4.612744    0.175938
    108          1           0       -7.340776   -2.470737   -1.881239
    109          1           0       -6.695295   -0.948923   -1.544656
    110          1           0       -8.187288   -2.325685    0.569098
    111          1           0       -9.108155   -1.564380   -0.696165
    112          1           0       -7.171257    0.479049    0.449794
    113          1           0       -8.376329   -0.381100    1.549736
    114          1           0      -10.047259    0.272199   -0.338646
    115          1           0       -7.674578    1.682545   -1.350607
    116          1           0       -9.110511    2.744266   -0.979380
    117          1           0       -9.251935    1.404728   -2.022712
    118          1           0       -8.879779    2.581559    1.242466
    119          1           0       -9.572451    1.335816    2.208774
    120          1           0      -11.412503    2.513145    0.039407
    121          1           0      -10.997518    3.309571    1.532571
    122          1           0      -11.730564    1.008251    2.677671
    123          1           0      -12.364130    0.623496    1.163804
    124          1           0      -13.274428    3.291374    1.591727
    125          1           0      -12.817635    3.548228    3.896309
    126          1           0      -12.889005    1.910994    4.341752
    127          1           0      -14.357265    2.709321    4.251135
    128          1           0      -15.680458    2.109965    2.218656
    129          1           0      -14.607778    0.701401    2.079062
    130          1           0      -14.362139    2.814027   -0.202543
    131          1           0      -15.955158    2.130029   -0.040668
    132          1           0      -14.511595   -0.340558   -0.153248
    133          1           0      -13.397997    0.693475   -0.959459
    134          1           0      -15.164494    1.511748   -2.467773
    135          1           0      -16.986424   -0.906608   -2.083017
    136          1           0      -17.275867    0.793326   -2.189244
    137          1           0      -16.873874   -0.059082   -0.688628
    138          1           0      -14.110903   -1.418690   -2.369698
    139          1           0      -13.582363   -0.145821   -3.431449
    140          1           0      -15.229531   -0.788086   -3.477250
 ---------------------------------------------------------------------

 SCF Done:  E(RZINDO/S) =  -474.200758644     A.U. after   19 cycles

 Excitation energies and oscillator strengths:

 Excited State   1:      Singlet-A      1.2754 eV  972.09 nm  f=0.5747  <S**2>=0.000
     175 ->178         0.16934
     176 ->177         0.66848
 This state for optimization and/or second-order correction.
 Total Energy, E(CIS/TDA) =  -474.153887325
 Copying the excited state density for this state as the 1-particle RhoCI density.

 Excited State   2:      Singlet-A      1.9112 eV  648.71 nm  f=0.0756  <S**2>=0.000
     175 ->177         0.56728
     176 ->178        -0.38510

 Excited State   3:      Singlet-A      2.9977 eV  413.60 nm  f=0.7137  <S**2>=0.000
     168 ->177        -0.11336
     168 ->179         0.18288
     168 ->180        -0.11117
     171 ->177        -0.22265
     175 ->177         0.30463
     176 ->178         0.48308

 Excited State   4:      Singlet-A      3.0436 eV  407.36 nm  f=0.2313  <S**2>=0.000
     168 ->177        -0.22501
     168 ->178         0.16924
     168 ->179         0.38685
     168 ->180        -0.22475
     168 ->185        -0.16878
     175 ->177        -0.17124
     176 ->178        -0.24740
     176 ->179         0.10922

 Excited State   5:      Singlet-A      3.0781 eV  402.80 nm  f=0.0028  <S**2>=0.000
     170 ->177         0.28669
     170 ->178        -0.10628
     170 ->179         0.28775
     170 ->180         0.40537
     170 ->185        -0.19616
     170 ->188         0.19341
     170 ->203        -0.14165

 The electronic state is 1-A.
 Alpha  occ. eigenvalues --   -1.84696  -1.80489  -1.79910  -1.74538  -1.72878
 Alpha  occ. eigenvalues --   -1.70998  -1.64104  -1.60840  -1.59236  -1.58098
 Alpha  occ. eigenvalues --   -1.55631  -1.51205  -1.48619  -1.47904  -1.46226
 Alpha  occ. eigenvalues --   -1.45192  -1.41363  -1.40401  -1.38370  -1.37148
 Alpha  occ. eigenvalues --   -1.36267  -1.33122  -1.32334  -1.30371  -1.29847
 Alpha  occ. eigenvalues --   -1.25622  -1.23709  -1.21731  -1.20167  -1.18931
 Alpha  occ. eigenvalues --   -1.17535  -1.16335  -1.15346  -1.14968  -1.14222
 Alpha  occ. eigenvalues --   -1.11356  -1.11116  -1.10407  -1.04885  -1.04197
 Alpha  occ. eigenvalues --   -1.03983  -1.01192  -0.99547  -0.98309  -0.97252
 Alpha  occ. eigenvalues --   -0.96152  -0.94635  -0.93218  -0.92989  -0.92296
 Alpha  occ. eigenvalues --   -0.89803  -0.89652  -0.88824  -0.87622  -0.86728
 Alpha  occ. eigenvalues --   -0.85084  -0.84014  -0.82569  -0.81993  -0.80972
 Alpha  occ. eigenvalues --   -0.79909  -0.78739  -0.77499  -0.76371  -0.75679
 Alpha  occ. eigenvalues --   -0.75362  -0.74996  -0.74343  -0.73448  -0.73231
 Alpha  occ. eigenvalues --   -0.73080  -0.72589  -0.71968  -0.71426  -0.71160
 Alpha  occ. eigenvalues --   -0.70080  -0.69599  -0.69003  -0.68559  -0.68463
 Alpha  occ. eigenvalues --   -0.67820  -0.67394  -0.66735  -0.66373  -0.65827
 Alpha  occ. eigenvalues --   -0.65075  -0.64506  -0.64168  -0.63481  -0.63369
 Alpha  occ. eigenvalues --   -0.63134  -0.62828  -0.62673  -0.62300  -0.61907
 Alpha  occ. eigenvalues --   -0.61773  -0.61129  -0.60244  -0.59855  -0.59694
 Alpha  occ. eigenvalues --   -0.59497  -0.58869  -0.58807  -0.58646  -0.58486
 Alpha  occ. eigenvalues --   -0.57874  -0.57438  -0.57320  -0.56581  -0.56413
 Alpha  occ. eigenvalues --   -0.56076  -0.55837  -0.55307  -0.54674  -0.54324
 Alpha  occ. eigenvalues --   -0.53709  -0.53389  -0.53311  -0.53119  -0.52854
 Alpha  occ. eigenvalues --   -0.52542  -0.52158  -0.51868  -0.51653  -0.51486
 Alpha  occ. eigenvalues --   -0.50922  -0.50816  -0.50642  -0.50236  -0.49637
 Alpha  occ. eigenvalues --   -0.49557  -0.49207  -0.48994  -0.48847  -0.48532
 Alpha  occ. eigenvalues --   -0.48358  -0.48203  -0.48096  -0.48027  -0.47545
 Alpha  occ. eigenvalues --   -0.47281  -0.47271  -0.47053  -0.46942  -0.46745
 Alpha  occ. eigenvalues --   -0.46682  -0.46475  -0.46256  -0.45598  -0.45270
 Alpha  occ. eigenvalues --   -0.45127  -0.45060  -0.44939  -0.44216  -0.43718
 Alpha  occ. eigenvalues --   -0.43436  -0.43128  -0.42636  -0.42597  -0.41850
 Alpha  occ. eigenvalues --   -0.41676  -0.40902  -0.40456  -0.38909  -0.38503
 Alpha  occ. eigenvalues --   -0.37888  -0.37500  -0.36823  -0.34440  -0.34249
 Alpha  occ. eigenvalues --   -0.33394  -0.32738  -0.32506  -0.31913  -0.26732
 Alpha  occ. eigenvalues --   -0.22063
 Alpha virt. eigenvalues --   -0.08702  -0.02048  -0.00650   0.01235   0.02660
 Alpha virt. eigenvalues --    0.02830   0.03015   0.03211   0.04207   0.05086
 Alpha virt. eigenvalues --    0.05967   0.06363   0.06928   0.07482   0.07814

 Mulliken charges:
               1
     1  Mg   0.426884
     2  C   -0.044854
     3  C   -0.111727
     4  C   -0.065030
     5  C   -0.057294
     6  N   -0.287964
     7  C    0.098490
     8  C    0.005037
     9  C    0.003150
    10  C    0.169184
    11  C   -0.040797
    12  C   -0.029707
    13  C    0.000359
    14  C    0.477949
    15  O   -0.488607
    16  O   -0.280976
    17  N   -0.329676
    18  C    0.149332
    19  C    0.020954
    20  C   -0.040428
    21  C    0.141701
    22  C   -0.039359
    23  C    0.321231
    24  O   -0.499999
    25  C   -0.032108
    26  N   -0.258942
    27  C    0.148727
    28  C   -0.003174
    29  C   -0.002093
    30  C    0.103366
    31  C   -0.047660
    32  C   -0.023024
    33  C   -0.050297
    34  N   -0.310904
    35  C    0.059970
    36  C    0.006123
    37  C   -0.064546
    38  C    0.109050
    39  C   -0.045036
    40  C    0.346698
    41  O   -0.534299
    42  C    0.069770
    43  C    0.495155
    44  O   -0.542596
    45  O   -0.272988
    46  C    0.074408
    47  C    0.094676
    48  C   -0.076649
    49  C    0.008001
    50  C   -0.038208
    51  C   -0.014114
    52  C   -0.031142
    53  C   -0.053340
    54  C   -0.020185
    55  C   -0.071717
    56  C   -0.025080
    57  C   -0.037157
    58  C   -0.042300
    59  C   -0.017340
    60  C   -0.065440
    61  C   -0.038186
    62  C   -0.042474
    63  C   -0.042131
    64  C    0.004776
    65  C   -0.053348
    66  C   -0.061947
    67  H    0.017906
    68  H    0.049557
    69  H    0.026129
    70  H    0.030894
    71  H    0.027018
    72  H    0.018168
    73  H    0.025442
    74  H    0.027165
    75  H    0.030914
    76  H    0.043036
    77  H    0.031668
    78  H    0.031126
    79  H    0.025622
    80  H    0.036716
    81  H    0.036392
    82  H    0.034068
    83  H    0.043188
    84  H    0.040413
    85  H    0.028984
    86  H    0.025206
    87  H    0.021936
    88  H    0.030735
    89  H    0.023153
    90  H    0.017626
    91  H    0.016683
    92  H    0.022586
    93  H    0.020611
    94  H    0.020036
    95  H    0.041055
    96  H    0.025058
    97  H    0.040857
    98  H    0.047780
    99  H    0.042870
   100  H    0.049857
   101  H    0.037188
   102  H    0.050367
   103  H    0.030399
   104  H    0.032263
   105  H    0.025484
   106  H    0.031497
   107  H    0.019023
   108  H    0.008112
   109  H    0.018568
   110  H    0.013613
   111  H    0.026193
   112  H    0.040204
   113  H    0.015642
   114  H    0.025608
   115  H    0.025347
   116  H    0.017858
   117  H    0.005903
   118  H    0.017486
   119  H    0.013403
   120  H    0.024293
   121  H    0.008904
   122  H    0.020397
   123  H    0.016950
   124  H    0.026606
   125  H    0.013047
   126  H    0.017094
   127  H    0.018435
   128  H    0.022404
   129  H    0.028030
   130  H    0.030414
   131  H    0.013824
   132  H    0.028159
   133  H    0.010051
   134  H    0.028408
   135  H    0.019923
   136  H    0.009844
   137  H    0.014437
   138  H    0.022008
   139  H    0.020062
   140  H    0.001948
 Sum of Mulliken charges =  -0.00000

 Dipole moment (field-independent basis, Debye):
    X=             -2.8645    Y=              8.4281    Z=             -4.8964  Tot=             10.1593
 N-N= 4.233888853294D+03 E-N= 0.000000000000D+00  KE=-9.142263915336D+03
 Leave Link  601 at Fri Apr 29 16:57:32 2022, MaxMem=  6710886400 cpu:               0.8 elap:               0.0
 (Enter /sw/apps/gaussian-16.0/g16/l9999.exe)
 1\1\GINC-BP1-COMPUTE162\SP\RZINDO CIS\STO-3G\C55H74Mg1N4O6\OF15641\29-
 Apr-2022\0\\#p ZINDO=(nstates=5)\\step_401_chromophore_1 ZINDO\\0,1\Mg
 ,0,-2.143,17.192,27.554\C,0,-2.229,15.15,30.265\C,0,-2.605,19.948,29.5
 24\C,0,-2.412,19.218,24.71\C,0,-2.121,14.429,25.414\N,0,-2.405,17.474,
 29.633\C,0,-2.293,16.503,30.602\C,0,-2.363,17.21,32.002\C,0,-2.725,18.
 689,31.731\C,0,-2.577,18.71,30.221\C,0,-3.869,19.264,32.468\C,0,-0.914
 ,17.091,32.785\C,0,-0.582,18.03,34.02\C,0,0.324,17.52,35.113\O,0,1.476

 Normal termination of Gaussian 16 at Fri Apr 29 16:57:32 2022.
