 Gaussian 16, Revision A.03,
 Gaussian 16:  ES64L-G16RevA.03 25-Dec-2016

 ------------------------------
 #p blyp/Def2SVP td=(nstates=5)
 ------------------------------

 --------------------------------------------------
 step_1201_chromophore_9 TDDFT with blyp functional
 --------------------------------------------------
 Symbolic Z-matrix:
 Charge =  0 Multiplicity = 1

                         Standard orientation:
 ---------------------------------------------------------------------
 Center     Atomic      Atomic             Coordinates (Angstroms)
 Number     Number       Type             X           Y           Z
 ---------------------------------------------------------------------
      1         12           0       -4.842667    0.720599   -0.209303
      2          6           0       -3.737894   -2.524676    0.124193
      3          6           0       -1.548184    1.712304   -0.450794
      4          6           0       -5.926508    3.943349   -0.262756
      5          6           0       -8.115907   -0.292268    0.757108
      6          7           0       -2.905662   -0.331553   -0.104652
      7          6           0       -2.688301   -1.662772   -0.124129
      8          6           0       -1.261634   -2.016420   -0.310473
      9          6           0       -0.493281   -0.656133   -0.026612
     10          6           0       -1.730182    0.291808   -0.254937
     11          6           0        0.164248   -0.661230    1.382473
     12          6           0       -1.015249   -2.639298   -1.652957
     13          6           0       -0.130491   -3.859540   -1.785197
     14          6           0        1.097788   -3.783306   -0.839130
     15          8           0        1.254464   -4.242958    0.304728
     16          8           0        2.148963   -3.141156   -1.480740
     17          7           0       -3.867322    2.535974   -0.544837
     18          6           0       -2.520156    2.812713   -0.676175
     19          6           0       -2.318183    4.267127   -1.001211
     20          6           0       -3.563299    4.886101   -0.885514
     21          6           0       -4.544386    3.775000   -0.492518
     22          6           0       -0.898081    4.794511   -1.200297
     23          6           0       -3.921445    6.364317   -1.084114
     24          8           0       -5.046483    6.771814   -1.018591
     25          6           0       -2.837595    7.385231   -1.704192
     26          7           0       -6.738712    1.710455    0.441890
     27          6           0       -6.911479    2.995811    0.055849
     28          6           0       -8.381236    3.375332    0.235140
     29          6           0       -9.109021    2.044681    0.540877
     30          6           0       -7.981914    1.079524    0.532959
     31          6           0       -8.661409    4.615000    1.208199
     32          6           0      -10.426787    1.816895   -0.363944
     33          6           0      -10.157384    0.911498   -1.593793
     34          7           0       -5.780734   -1.012725    0.452399
     35          6           0       -7.126401   -1.287025    0.688441
     36          6           0       -7.255562   -2.712701    0.860081
     37          6           0       -5.978129   -3.240117    0.642356
     38          6           0       -5.113206   -2.187391    0.459080
     39          6           0       -8.584252   -3.384294    1.312917
     40          6           0       -5.235423   -4.439436    0.588164
     41          8           0       -5.528842   -5.638861    0.764890
     42          6           0       -3.681953   -4.001204    0.316258
     43          6           0       -2.976372   -4.411271    1.536986
     44          8           0       -2.794654   -3.746851    2.536292
     45          8           0       -2.353911   -5.636491    1.288744
     46          6           0       -1.286415   -6.108498    2.299379
     47          6           0        3.287680   -2.816359   -0.625633
     48          6           0        4.275393   -2.059784   -1.358662
     49          6           0        5.433680   -2.388221   -1.927097
     50          6           0        6.052084   -3.823236   -1.878915
     51          6           0        6.385486   -1.267727   -2.368191
     52          6           0        6.939031   -1.363472   -3.777745
     53          6           0        8.438111   -1.519047   -3.737176
     54          6           0        9.218131   -0.193374   -3.443994
     55          6           0       10.326032    0.179630   -4.406032
     56          6           0        9.812854   -0.242426   -1.965567
     57          6           0        9.574108    1.064261   -1.198247
     58          6           0       10.968241    1.715188   -0.836522
     59          6           0       10.866423    2.359000    0.495765
     60          6           0       11.880492    3.525470    0.653338
     61          6           0       11.061345    1.187020    1.620571
     62          6           0        9.743404    1.098243    2.484034
     63          6           0        9.882288    0.931079    4.011590
     64          6           0        9.536429    2.290471    4.804326
     65          6           0       10.343316    2.391298    6.122191
     66          6           0        7.974470    2.311922    5.063653
     67          1           0       -0.489183    1.979082   -0.427942
     68          1           0       -6.277246    4.965646   -0.424974
     69          1           0       -9.151710   -0.639230    0.729966
     70          1           0       -1.041096   -2.754340    0.460281
     71          1           0        0.237278   -0.435158   -0.803984
     72          1           0        1.219723   -0.889477    1.228951
     73          1           0       -0.256745   -1.471142    1.978198
     74          1           0        0.024380    0.324637    1.824074
     75          1           0       -0.492346   -1.955367   -2.321684
     76          1           0       -1.980337   -2.629341   -2.159377
     77          1           0        0.166283   -3.956689   -2.830071
     78          1           0       -0.860207   -4.629109   -1.533861
     79          1           0       -0.743335    5.187198   -2.205223
     80          1           0       -0.231944    3.939912   -1.082304
     81          1           0       -0.658947    5.571166   -0.473518
     82          1           0       -2.142752    7.639880   -0.903531
     83          1           0       -3.296725    8.326399   -2.005399
     84          1           0       -2.399690    6.993771   -2.622069
     85          1           0       -8.680144    3.664565   -0.773243
     86          1           0       -9.448922    2.070182    1.576767
     87          1           0       -7.774352    5.218302    1.398945
     88          1           0       -8.973484    4.216952    2.173526
     89          1           0       -9.444510    5.276019    0.836071
     90          1           0      -10.911232    2.755358   -0.632139
     91          1           0      -11.135208    1.175577    0.160835
     92          1           0      -10.852889    0.072097   -1.586451
     93          1           0       -9.134426    0.544508   -1.678205
     94          1           0      -10.278455    1.443279   -2.536895
     95          1           0       -9.260526   -3.524609    0.468891
     96          1           0       -9.140056   -2.775055    2.025373
     97          1           0       -8.426592   -4.366120    1.757987
     98          1           0       -3.239532   -4.491452   -0.551514
     99          1           0       -1.513030   -7.123560    2.628015
    100          1           0       -1.246607   -5.473701    3.184773
    101          1           0       -0.301858   -6.055121    1.834298
    102          1           0        3.794579   -3.708145   -0.255335
    103          1           0        2.909267   -2.169893    0.166108
    104          1           0        4.025457   -0.999035   -1.368428
    105          1           0        7.127633   -3.802368   -2.048821
    106          1           0        5.565865   -4.441943   -2.632673
    107          1           0        5.874157   -4.238365   -0.886152
    108          1           0        7.128989   -1.184664   -1.576085
    109          1           0        5.967517   -0.265133   -2.279846
    110          1           0        6.653760   -0.445800   -4.293275
    111          1           0        6.507007   -2.217197   -4.298981
    112          1           0        8.730964   -1.780027   -4.755104
    113          1           0        8.693166   -2.376765   -3.114284
    114          1           0        8.494869    0.621181   -3.491452
    115          1           0        9.966219    1.033810   -4.980351
    116          1           0       10.691723   -0.596645   -5.077886
    117          1           0       11.229929    0.489120   -3.881188
    118          1           0       10.874138   -0.492240   -1.946164
    119          1           0        9.267828   -0.944821   -1.335462
    120          1           0        9.027478    0.791748   -0.295415
    121          1           0        9.070002    1.877886   -1.718632
    122          1           0       11.281392    2.358296   -1.659199
    123          1           0       11.717844    0.925655   -0.784475
    124          1           0        9.852878    2.756957    0.549494
    125          1           0       12.719032    3.494981   -0.041694
    126          1           0       12.183381    3.627693    1.695280
    127          1           0       11.387557    4.442477    0.331650
    128          1           0       11.902330    1.362794    2.291621
    129          1           0       11.196713    0.191823    1.196625
    130          1           0        9.266850    0.161263    2.198814
    131          1           0        9.108547    1.952249    2.244217
    132          1           0       10.926120    0.674132    4.188568
    133          1           0        9.314942    0.113551    4.456660
    134          1           0        9.945930    3.089540    4.185724
    135          1           0        9.879309    2.936437    6.943800
    136          1           0       11.315780    2.846333    5.932353
    137          1           0       10.513853    1.379608    6.489055
    138          1           0        7.666666    3.333634    4.840589
    139          1           0        7.734375    2.066451    6.097891
    140          1           0        7.485218    1.552761    4.452909
 ---------------------------------------------------------------------

 SCF Done:  E(RB-LYP) =  -3007.37780510     A.U. after   20 cycles

 Excitation energies and oscillator strengths:

 Excited State   1:      Singlet-A      1.7568 eV  705.74 nm  f=0.2001  <S**2>=0.000
     244 -> 247       -0.32120
     245 -> 247        0.19695
     245 -> 248       -0.15275
     246 -> 247        0.58264
     246 <- 247       -0.12331
 This state for optimization and/or second-order correction.
 Total Energy, E(TD-HF/TD-DFT) =  -3007.31324400
 Copying the excited state density for this state as the 1-particle RhoCI density.

 Excited State   2:      Singlet-A      1.7900 eV  692.66 nm  f=0.1121  <S**2>=0.000
     244 -> 247        0.53748
     245 -> 247       -0.25438
     246 -> 247        0.36668

 Excited State   3:      Singlet-A      1.9620 eV  631.92 nm  f=0.0735  <S**2>=0.000
     244 -> 247        0.32068
     245 -> 247        0.57779
     246 -> 248        0.19651
     246 -> 249        0.11772

 Excited State   4:      Singlet-A      2.1552 eV  575.29 nm  f=0.0006  <S**2>=0.000
     243 -> 247        0.70519

 Excited State   5:      Singlet-A      2.5060 eV  494.75 nm  f=0.0033  <S**2>=0.000
     241 -> 247       -0.17606
     242 -> 247        0.67146

 The electronic state is 1-A.
 Alpha  occ. eigenvalues --  -46.27840 -18.82443 -18.80036 -18.78017 -18.76819
 Alpha  occ. eigenvalues --  -18.75628 -18.75120 -14.03261 -14.02892 -14.02029
 Alpha  occ. eigenvalues --  -14.00407 -10.05335 -10.02546 -10.01100  -9.99180
 Alpha  occ. eigenvalues --   -9.97718  -9.97123  -9.96967  -9.96935  -9.96309
 Alpha  occ. eigenvalues --   -9.96169  -9.96134  -9.95813  -9.95042  -9.94916
 Alpha  occ. eigenvalues --   -9.94503  -9.94415  -9.94195  -9.93997  -9.93930
 Alpha  occ. eigenvalues --   -9.93775  -9.93716  -9.93636  -9.93594  -9.93403
 Alpha  occ. eigenvalues --   -9.93392  -9.93330  -9.93184  -9.93151  -9.93000
 Alpha  occ. eigenvalues --   -9.92886  -9.92487  -9.92443  -9.92420  -9.92379
 Alpha  occ. eigenvalues --   -9.92375  -9.92338  -9.92200  -9.92129  -9.92102
 Alpha  occ. eigenvalues --   -9.92080  -9.91805  -9.91749  -9.91591  -9.91319
 Alpha  occ. eigenvalues --   -9.91298  -9.91214  -9.91189  -9.91173  -9.91166
 Alpha  occ. eigenvalues --   -9.91162  -9.91112  -9.90997  -9.90672  -9.90661
 Alpha  occ. eigenvalues --   -9.90548  -2.92327  -1.72743  -1.72231  -1.72024
 Alpha  occ. eigenvalues --   -0.97898  -0.95032  -0.93763  -0.89672  -0.89330
 Alpha  occ. eigenvalues --   -0.87558  -0.87231  -0.85821  -0.85155  -0.84056
 Alpha  occ. eigenvalues --   -0.75179  -0.74427  -0.73942  -0.73122  -0.71933
 Alpha  occ. eigenvalues --   -0.71883  -0.70859  -0.70672  -0.70366  -0.70290
 Alpha  occ. eigenvalues --   -0.69491  -0.68939  -0.68510  -0.66899  -0.66838
 Alpha  occ. eigenvalues --   -0.66431  -0.65581  -0.65269  -0.64548  -0.64149
 Alpha  occ. eigenvalues --   -0.63556  -0.62698  -0.62393  -0.61599  -0.61315
 Alpha  occ. eigenvalues --   -0.59973  -0.59926  -0.59669  -0.59470  -0.58721
 Alpha  occ. eigenvalues --   -0.58340  -0.57583  -0.56330  -0.55697  -0.55024
 Alpha  occ. eigenvalues --   -0.53993  -0.53656  -0.52864  -0.51984  -0.51815
 Alpha  occ. eigenvalues --   -0.50962  -0.50744  -0.50662  -0.50409  -0.50135
 Alpha  occ. eigenvalues --   -0.49930  -0.49750  -0.48817  -0.47037  -0.46661
 Alpha  occ. eigenvalues --   -0.46303  -0.45894  -0.45540  -0.44566  -0.44333
 Alpha  occ. eigenvalues --   -0.43758  -0.43661  -0.43195  -0.42621  -0.42575
 Alpha  occ. eigenvalues --   -0.42306  -0.41880  -0.41435  -0.41274  -0.40990
 Alpha  occ. eigenvalues --   -0.40634  -0.40309  -0.40067  -0.40042  -0.39759
 Alpha  occ. eigenvalues --   -0.39591  -0.39493  -0.39428  -0.39013  -0.38695
 Alpha  occ. eigenvalues --   -0.38606  -0.38298  -0.38194  -0.38025  -0.37698
 Alpha  occ. eigenvalues --   -0.37596  -0.37532  -0.37510  -0.37212  -0.37001
 Alpha  occ. eigenvalues --   -0.36984  -0.36924  -0.36672  -0.36535  -0.36463
 Alpha  occ. eigenvalues --   -0.36097  -0.35956  -0.35807  -0.35757  -0.35644
 Alpha  occ. eigenvalues --   -0.35426  -0.35190  -0.35083  -0.34917  -0.34642
 Alpha  occ. eigenvalues --   -0.34488  -0.34210  -0.34117  -0.33907  -0.33840
 Alpha  occ. eigenvalues --   -0.33778  -0.33697  -0.33613  -0.33537  -0.33123
 Alpha  occ. eigenvalues --   -0.32908  -0.32871  -0.32751  -0.32560  -0.32432
 Alpha  occ. eigenvalues --   -0.32172  -0.32069  -0.32035  -0.31785  -0.31709
 Alpha  occ. eigenvalues --   -0.31471  -0.31384  -0.31290  -0.31097  -0.30922
 Alpha  occ. eigenvalues --   -0.30703  -0.30547  -0.30388  -0.30282  -0.29976
 Alpha  occ. eigenvalues --   -0.29585  -0.29360  -0.29208  -0.28917  -0.28730
 Alpha  occ. eigenvalues --   -0.28705  -0.28678  -0.28124  -0.28037  -0.27979
 Alpha  occ. eigenvalues --   -0.27486  -0.27178  -0.27102  -0.26894  -0.26580
 Alpha  occ. eigenvalues --   -0.26133  -0.26006  -0.25774  -0.25488  -0.25366
 Alpha  occ. eigenvalues --   -0.25220  -0.24731  -0.23637  -0.23393  -0.23328
 Alpha  occ. eigenvalues --   -0.23289  -0.23118  -0.22260  -0.21393  -0.21323
 Alpha  occ. eigenvalues --   -0.20950  -0.20280  -0.19404  -0.18107  -0.16980
 Alpha  occ. eigenvalues --   -0.15781
 Alpha virt. eigenvalues --   -0.11581  -0.07051  -0.06109  -0.04919  -0.04451
 Alpha virt. eigenvalues --   -0.03237  -0.03062  -0.02083  -0.01253   0.00360
 Alpha virt. eigenvalues --    0.01172   0.01642   0.01819   0.02313   0.02442

 Mulliken charges:
               1
     1  Mg   0.684918
     2  C    0.017710
     3  C   -0.036332
     4  C   -0.062535
     5  C   -0.047537
     6  N   -0.176313
     7  C   -0.057031
     8  C   -0.034548
     9  C    0.000225
    10  C   -0.019244
    11  C    0.146915
    12  C    0.085833
    13  C    0.206896
    14  C    0.104878
    15  O   -0.204034
    16  O   -0.282518
    17  N   -0.317007
    18  C    0.107497
    19  C   -0.124360
    20  C    0.018119
    21  C    0.113521
    22  C    0.172823
    23  C   -0.058079
    24  O   -0.129926
    25  C    0.090585
    26  N   -0.220549
    27  C    0.029125
    28  C    0.030556
    29  C    0.082863
    30  C   -0.028252
    31  C    0.118772
    32  C    0.085171
    33  C    0.031569
    34  N   -0.268781
    35  C    0.110679
    36  C   -0.171096
    37  C    0.163754
    38  C    0.049955
    39  C    0.163789
    40  C   -0.084910
    41  O   -0.149730
    42  C    0.023410
    43  C    0.147778
    44  O   -0.174739
    45  O   -0.312477
    46  C    0.191616
    47  C    0.373787
    48  C   -0.142311
    49  C   -0.111319
    50  C    0.121968
    51  C    0.103443
    52  C    0.088427
    53  C    0.122419
    54  C   -0.068470
    55  C    0.121072
    56  C    0.102459
    57  C    0.033384
    58  C    0.070789
    59  C   -0.066908
    60  C    0.118816
    61  C    0.098554
    62  C    0.042998
    63  C    0.074609
    64  C   -0.106032
    65  C    0.097022
    66  C    0.111994
    67  H   -0.064282
    68  H   -0.036081
    69  H   -0.058305
    70  H    0.004019
    71  H   -0.032057
    72  H   -0.006846
    73  H    0.022283
    74  H   -0.005689
    75  H   -0.037463
    76  H   -0.024452
    77  H   -0.001017
    78  H   -0.000485
    79  H    0.002221
    80  H   -0.016199
    81  H    0.010907
    82  H    0.005357
    83  H   -0.010342
    84  H    0.014670
    85  H   -0.027342
    86  H   -0.019562
    87  H    0.005782
    88  H   -0.014414
    89  H   -0.003777
    90  H   -0.004423
    91  H   -0.021726
    92  H   -0.005988
    93  H    0.006364
    94  H   -0.016409
    95  H   -0.006482
    96  H   -0.006259
    97  H    0.007129
    98  H   -0.005690
    99  H    0.019698
   100  H    0.020246
   101  H    0.028462
   102  H   -0.019897
   103  H   -0.017214
   104  H   -0.047696
   105  H   -0.009332
   106  H    0.015257
   107  H    0.008813
   108  H   -0.016092
   109  H   -0.046854
   110  H   -0.028419
   111  H   -0.025941
   112  H   -0.056927
   113  H   -0.027822
   114  H   -0.040875
   115  H   -0.017409
   116  H   -0.016346
   117  H   -0.020091
   118  H   -0.023977
   119  H   -0.040312
   120  H   -0.023605
   121  H   -0.020292
   122  H   -0.036579
   123  H   -0.036872
   124  H   -0.025609
   125  H   -0.018684
   126  H   -0.012393
   127  H   -0.027444
   128  H   -0.027702
   129  H   -0.026190
   130  H   -0.029849
   131  H   -0.015120
   132  H   -0.046962
   133  H   -0.032015
   134  H   -0.029781
   135  H   -0.018609
   136  H   -0.019210
   137  H   -0.019999
   138  H   -0.005593
   139  H   -0.013336
   140  H   -0.010525
 Sum of Mulliken charges =  -0.00000

 Dipole moment (field-independent basis, Debye):
    X=              4.0678    Y=              3.9778    Z=             -3.9385  Tot=              6.9197
 Quadrupole moment (field-independent basis, Debye-Ang):
   XX=           -370.8054   YY=           -436.8010   ZZ=           -406.7585
   XY=            -20.9799   XZ=              3.2716   YZ=              7.5766

 Normal termination of Gaussian 16 at Wed Apr 27 16:13:02 2022.
