 Gaussian 16, Revision A.03,
 Gaussian 16:  ES64L-G16RevA.03 25-Dec-2016

 -----------------------------------
 #p cam-b3lyp/Def2SVP td=(nstates=5)
 -----------------------------------

 -------------------------------------------------------
 step_1201_chromophore_9 TDDFT with cam-b3lyp functional
 -------------------------------------------------------
 Symbolic Z-matrix:
 Charge =  0 Multiplicity = 1

                         Standard orientation:
 ---------------------------------------------------------------------
 Center     Atomic      Atomic             Coordinates (Angstroms)
 Number     Number       Type             X           Y           Z
 ---------------------------------------------------------------------
      1         12           0       -4.842667    0.720599   -0.209303
      2          6           0       -3.737894   -2.524676    0.124193
      3          6           0       -1.548184    1.712304   -0.450794
      4          6           0       -5.926508    3.943349   -0.262756
      5          6           0       -8.115907   -0.292268    0.757108
      6          7           0       -2.905662   -0.331553   -0.104652
      7          6           0       -2.688301   -1.662772   -0.124129
      8          6           0       -1.261634   -2.016420   -0.310473
      9          6           0       -0.493281   -0.656133   -0.026612
     10          6           0       -1.730182    0.291808   -0.254937
     11          6           0        0.164248   -0.661230    1.382473
     12          6           0       -1.015249   -2.639298   -1.652957
     13          6           0       -0.130491   -3.859540   -1.785197
     14          6           0        1.097788   -3.783306   -0.839130
     15          8           0        1.254464   -4.242958    0.304728
     16          8           0        2.148963   -3.141156   -1.480740
     17          7           0       -3.867322    2.535974   -0.544837
     18          6           0       -2.520156    2.812713   -0.676175
     19          6           0       -2.318183    4.267127   -1.001211
     20          6           0       -3.563299    4.886101   -0.885514
     21          6           0       -4.544386    3.775000   -0.492518
     22          6           0       -0.898081    4.794511   -1.200297
     23          6           0       -3.921445    6.364317   -1.084114
     24          8           0       -5.046483    6.771814   -1.018591
     25          6           0       -2.837595    7.385231   -1.704192
     26          7           0       -6.738712    1.710455    0.441890
     27          6           0       -6.911479    2.995811    0.055849
     28          6           0       -8.381236    3.375332    0.235140
     29          6           0       -9.109021    2.044681    0.540877
     30          6           0       -7.981914    1.079524    0.532959
     31          6           0       -8.661409    4.615000    1.208199
     32          6           0      -10.426787    1.816895   -0.363944
     33          6           0      -10.157384    0.911498   -1.593793
     34          7           0       -5.780734   -1.012725    0.452399
     35          6           0       -7.126401   -1.287025    0.688441
     36          6           0       -7.255562   -2.712701    0.860081
     37          6           0       -5.978129   -3.240117    0.642356
     38          6           0       -5.113206   -2.187391    0.459080
     39          6           0       -8.584252   -3.384294    1.312917
     40          6           0       -5.235423   -4.439436    0.588164
     41          8           0       -5.528842   -5.638861    0.764890
     42          6           0       -3.681953   -4.001204    0.316258
     43          6           0       -2.976372   -4.411271    1.536986
     44          8           0       -2.794654   -3.746851    2.536292
     45          8           0       -2.353911   -5.636491    1.288744
     46          6           0       -1.286415   -6.108498    2.299379
     47          6           0        3.287680   -2.816359   -0.625633
     48          6           0        4.275393   -2.059784   -1.358662
     49          6           0        5.433680   -2.388221   -1.927097
     50          6           0        6.052084   -3.823236   -1.878915
     51          6           0        6.385486   -1.267727   -2.368191
     52          6           0        6.939031   -1.363472   -3.777745
     53          6           0        8.438111   -1.519047   -3.737176
     54          6           0        9.218131   -0.193374   -3.443994
     55          6           0       10.326032    0.179630   -4.406032
     56          6           0        9.812854   -0.242426   -1.965567
     57          6           0        9.574108    1.064261   -1.198247
     58          6           0       10.968241    1.715188   -0.836522
     59          6           0       10.866423    2.359000    0.495765
     60          6           0       11.880492    3.525470    0.653338
     61          6           0       11.061345    1.187020    1.620571
     62          6           0        9.743404    1.098243    2.484034
     63          6           0        9.882288    0.931079    4.011590
     64          6           0        9.536429    2.290471    4.804326
     65          6           0       10.343316    2.391298    6.122191
     66          6           0        7.974470    2.311922    5.063653
     67          1           0       -0.489183    1.979082   -0.427942
     68          1           0       -6.277246    4.965646   -0.424974
     69          1           0       -9.151710   -0.639230    0.729966
     70          1           0       -1.041096   -2.754340    0.460281
     71          1           0        0.237278   -0.435158   -0.803984
     72          1           0        1.219723   -0.889477    1.228951
     73          1           0       -0.256745   -1.471142    1.978198
     74          1           0        0.024380    0.324637    1.824074
     75          1           0       -0.492346   -1.955367   -2.321684
     76          1           0       -1.980337   -2.629341   -2.159377
     77          1           0        0.166283   -3.956689   -2.830071
     78          1           0       -0.860207   -4.629109   -1.533861
     79          1           0       -0.743335    5.187198   -2.205223
     80          1           0       -0.231944    3.939912   -1.082304
     81          1           0       -0.658947    5.571166   -0.473518
     82          1           0       -2.142752    7.639880   -0.903531
     83          1           0       -3.296725    8.326399   -2.005399
     84          1           0       -2.399690    6.993771   -2.622069
     85          1           0       -8.680144    3.664565   -0.773243
     86          1           0       -9.448922    2.070182    1.576767
     87          1           0       -7.774352    5.218302    1.398945
     88          1           0       -8.973484    4.216952    2.173526
     89          1           0       -9.444510    5.276019    0.836071
     90          1           0      -10.911232    2.755358   -0.632139
     91          1           0      -11.135208    1.175577    0.160835
     92          1           0      -10.852889    0.072097   -1.586451
     93          1           0       -9.134426    0.544508   -1.678205
     94          1           0      -10.278455    1.443279   -2.536895
     95          1           0       -9.260526   -3.524609    0.468891
     96          1           0       -9.140056   -2.775055    2.025373
     97          1           0       -8.426592   -4.366120    1.757987
     98          1           0       -3.239532   -4.491452   -0.551514
     99          1           0       -1.513030   -7.123560    2.628015
    100          1           0       -1.246607   -5.473701    3.184773
    101          1           0       -0.301858   -6.055121    1.834298
    102          1           0        3.794579   -3.708145   -0.255335
    103          1           0        2.909267   -2.169893    0.166108
    104          1           0        4.025457   -0.999035   -1.368428
    105          1           0        7.127633   -3.802368   -2.048821
    106          1           0        5.565865   -4.441943   -2.632673
    107          1           0        5.874157   -4.238365   -0.886152
    108          1           0        7.128989   -1.184664   -1.576085
    109          1           0        5.967517   -0.265133   -2.279846
    110          1           0        6.653760   -0.445800   -4.293275
    111          1           0        6.507007   -2.217197   -4.298981
    112          1           0        8.730964   -1.780027   -4.755104
    113          1           0        8.693166   -2.376765   -3.114284
    114          1           0        8.494869    0.621181   -3.491452
    115          1           0        9.966219    1.033810   -4.980351
    116          1           0       10.691723   -0.596645   -5.077886
    117          1           0       11.229929    0.489120   -3.881188
    118          1           0       10.874138   -0.492240   -1.946164
    119          1           0        9.267828   -0.944821   -1.335462
    120          1           0        9.027478    0.791748   -0.295415
    121          1           0        9.070002    1.877886   -1.718632
    122          1           0       11.281392    2.358296   -1.659199
    123          1           0       11.717844    0.925655   -0.784475
    124          1           0        9.852878    2.756957    0.549494
    125          1           0       12.719032    3.494981   -0.041694
    126          1           0       12.183381    3.627693    1.695280
    127          1           0       11.387557    4.442477    0.331650
    128          1           0       11.902330    1.362794    2.291621
    129          1           0       11.196713    0.191823    1.196625
    130          1           0        9.266850    0.161263    2.198814
    131          1           0        9.108547    1.952249    2.244217
    132          1           0       10.926120    0.674132    4.188568
    133          1           0        9.314942    0.113551    4.456660
    134          1           0        9.945930    3.089540    4.185724
    135          1           0        9.879309    2.936437    6.943800
    136          1           0       11.315780    2.846333    5.932353
    137          1           0       10.513853    1.379608    6.489055
    138          1           0        7.666666    3.333634    4.840589
    139          1           0        7.734375    2.066451    6.097891
    140          1           0        7.485218    1.552761    4.452909
 ---------------------------------------------------------------------

 SCF Done:  E(RCAM-B3LYP) =  -3007.16047384     A.U. after   19 cycles

 Excitation energies and oscillator strengths:

 Excited State   1:      Singlet-A      1.7255 eV  718.53 nm  f=0.3662  <S**2>=0.000
     245 -> 248       -0.16913
     246 -> 247        0.68615
     245 <- 248       -0.10053
 This state for optimization and/or second-order correction.
 Total Energy, E(TD-HF/TD-DFT) =  -3007.09706190
 Copying the excited state density for this state as the 1-particle RhoCI density.

 Excited State   2:      Singlet-A      2.1755 eV  569.90 nm  f=0.1245  <S**2>=0.000
     245 -> 247        0.64699
     246 -> 248        0.26601

 Excited State   3:      Singlet-A      3.4460 eV  359.79 nm  f=0.0582  <S**2>=0.000
     242 -> 247       -0.16196
     243 -> 247        0.28516
     243 -> 249       -0.18921
     243 -> 251        0.21222
     244 -> 247        0.48981
     244 -> 249       -0.10026
     246 -> 248        0.16408

 Excited State   4:      Singlet-A      3.4575 eV  358.59 nm  f=0.0109  <S**2>=0.000
     242 -> 247        0.11196
     243 -> 247        0.47132
     243 -> 249       -0.13828
     243 -> 251        0.12152
     244 -> 247       -0.42273
     246 -> 248        0.16105

 Excited State   5:      Singlet-A      3.4842 eV  355.84 nm  f=0.4880  <S**2>=0.000
     239 -> 247       -0.15993
     242 -> 247       -0.14118
     243 -> 247       -0.20004
     245 -> 247       -0.22128
     246 -> 248        0.57973

 The electronic state is 1-A.
 Alpha  occ. eigenvalues --  -46.89391 -19.25267 -19.22726 -19.20960 -19.20632
 Alpha  occ. eigenvalues --  -19.18517 -19.17690 -14.42081 -14.41787 -14.40838
 Alpha  occ. eigenvalues --  -14.38449 -10.40700 -10.37796 -10.36883 -10.34137
 Alpha  occ. eigenvalues --  -10.32337 -10.32094 -10.31889 -10.31749 -10.31166
 Alpha  occ. eigenvalues --  -10.30446 -10.30101 -10.30086 -10.29865 -10.29109
 Alpha  occ. eigenvalues --  -10.28564 -10.28435 -10.28384 -10.28168 -10.28085
 Alpha  occ. eigenvalues --  -10.28065 -10.27940 -10.27588 -10.27463 -10.27306
 Alpha  occ. eigenvalues --  -10.27121 -10.27047 -10.27044 -10.26952 -10.26929
 Alpha  occ. eigenvalues --  -10.26906 -10.26858 -10.26532 -10.26289 -10.26225
 Alpha  occ. eigenvalues --  -10.26166 -10.26153 -10.26109 -10.25897 -10.25791
 Alpha  occ. eigenvalues --  -10.25584 -10.25422 -10.25382 -10.25162 -10.25054
 Alpha  occ. eigenvalues --  -10.24967 -10.24902 -10.24896 -10.24895 -10.24877
 Alpha  occ. eigenvalues --  -10.24843 -10.24709 -10.24629 -10.24359 -10.24283
 Alpha  occ. eigenvalues --  -10.23882  -3.17776  -1.92671  -1.92243  -1.92065
 Alpha  occ. eigenvalues --   -1.16275  -1.13373  -1.12793  -1.07437  -1.07128
 Alpha  occ. eigenvalues --   -1.05189  -1.04951  -1.03399  -1.02421  -1.01931
 Alpha  occ. eigenvalues --   -0.91991  -0.91305  -0.90727  -0.89939  -0.88607
 Alpha  occ. eigenvalues --   -0.88565  -0.87737  -0.87303  -0.87269  -0.86806
 Alpha  occ. eigenvalues --   -0.85838  -0.85072  -0.84775  -0.83035  -0.82838
 Alpha  occ. eigenvalues --   -0.82504  -0.81574  -0.81254  -0.80441  -0.80288
 Alpha  occ. eigenvalues --   -0.79397  -0.78554  -0.78110  -0.76991  -0.76707
 Alpha  occ. eigenvalues --   -0.75338  -0.75171  -0.74995  -0.74639  -0.73939
 Alpha  occ. eigenvalues --   -0.73361  -0.72454  -0.71242  -0.70520  -0.69549
 Alpha  occ. eigenvalues --   -0.68725  -0.68194  -0.67430  -0.66323  -0.66095
 Alpha  occ. eigenvalues --   -0.65169  -0.64700  -0.64609  -0.64427  -0.64033
 Alpha  occ. eigenvalues --   -0.63786  -0.63700  -0.62754  -0.60685  -0.60178
 Alpha  occ. eigenvalues --   -0.59905  -0.59602  -0.58953  -0.57787  -0.57511
 Alpha  occ. eigenvalues --   -0.57137  -0.56992  -0.56454  -0.55750  -0.55579
 Alpha  occ. eigenvalues --   -0.55200  -0.54804  -0.54706  -0.54180  -0.53810
 Alpha  occ. eigenvalues --   -0.53503  -0.53385  -0.52922  -0.52748  -0.52581
 Alpha  occ. eigenvalues --   -0.52322  -0.52173  -0.52098  -0.51806  -0.51346
 Alpha  occ. eigenvalues --   -0.50951  -0.50925  -0.50581  -0.50560  -0.50442
 Alpha  occ. eigenvalues --   -0.50059  -0.49879  -0.49775  -0.49660  -0.49446
 Alpha  occ. eigenvalues --   -0.49229  -0.49075  -0.49035  -0.48745  -0.48623
 Alpha  occ. eigenvalues --   -0.48414  -0.48220  -0.48143  -0.47904  -0.47656
 Alpha  occ. eigenvalues --   -0.47615  -0.47412  -0.47229  -0.47060  -0.46385
 Alpha  occ. eigenvalues --   -0.46259  -0.46120  -0.45961  -0.45651  -0.45558
 Alpha  occ. eigenvalues --   -0.45506  -0.45370  -0.45266  -0.45156  -0.44901
 Alpha  occ. eigenvalues --   -0.44624  -0.44552  -0.44431  -0.44340  -0.44243
 Alpha  occ. eigenvalues --   -0.44162  -0.43770  -0.43762  -0.43355  -0.43160
 Alpha  occ. eigenvalues --   -0.43047  -0.42936  -0.42586  -0.42445  -0.42298
 Alpha  occ. eigenvalues --   -0.42096  -0.41982  -0.41633  -0.41573  -0.41484
 Alpha  occ. eigenvalues --   -0.40739  -0.40529  -0.40317  -0.39947  -0.39846
 Alpha  occ. eigenvalues --   -0.39764  -0.39668  -0.39542  -0.38997  -0.38971
 Alpha  occ. eigenvalues --   -0.38354  -0.38259  -0.38003  -0.37818  -0.37705
 Alpha  occ. eigenvalues --   -0.36963  -0.36744  -0.36633  -0.36427  -0.36005
 Alpha  occ. eigenvalues --   -0.35776  -0.35214  -0.35080  -0.34792  -0.34380
 Alpha  occ. eigenvalues --   -0.33645  -0.33141  -0.32712  -0.32101  -0.31862
 Alpha  occ. eigenvalues --   -0.31293  -0.30669  -0.29501  -0.29048  -0.23795
 Alpha  occ. eigenvalues --   -0.21131
 Alpha virt. eigenvalues --   -0.08613  -0.01735   0.00207   0.01838   0.02127
 Alpha virt. eigenvalues --    0.03464   0.04173   0.05191   0.06675   0.07131
 Alpha virt. eigenvalues --    0.07842   0.08078   0.08478   0.08602   0.08893

 Mulliken charges:
               1
     1  Mg   0.814057
     2  C   -0.004912
     3  C   -0.060617
     4  C   -0.086829
     5  C   -0.045549
     6  N   -0.246053
     7  C   -0.023528
     8  C   -0.092606
     9  C   -0.047009
    10  C    0.006636
    11  C    0.095180
    12  C    0.034289
    13  C    0.140064
    14  C    0.177311
    15  O   -0.245612
    16  O   -0.345431
    17  N   -0.403001
    18  C    0.121963
    19  C   -0.129126
    20  C   -0.042930
    21  C    0.142693
    22  C    0.120591
    23  C    0.016069
    24  O   -0.166885
    25  C    0.019546
    26  N   -0.283278
    27  C    0.057354
    28  C   -0.032338
    29  C    0.031218
    30  C   -0.021993
    31  C    0.061730
    32  C    0.029880
    33  C   -0.028862
    34  N   -0.356634
    35  C    0.105339
    36  C   -0.165172
    37  C    0.073829
    38  C    0.092761
    39  C    0.113989
    40  C    0.008775
    41  O   -0.193680
    42  C   -0.053152
    43  C    0.235548
    44  O   -0.212513
    45  O   -0.377731
    46  C    0.160222
    47  C    0.340333
    48  C   -0.159518
    49  C   -0.130102
    50  C    0.062823
    51  C    0.046309
    52  C    0.027307
    53  C    0.068281
    54  C   -0.123891
    55  C    0.063262
    56  C    0.046657
    57  C   -0.014906
    58  C    0.022212
    59  C   -0.126616
    60  C    0.062914
    61  C    0.047240
    62  C   -0.011030
    63  C    0.022452
    64  C   -0.160946
    65  C    0.038252
    66  C    0.050602
    67  H   -0.031542
    68  H    0.005168
    69  H   -0.025376
    70  H    0.035994
    71  H    0.002611
    72  H    0.013152
    73  H    0.047522
    74  H    0.019218
    75  H   -0.006207
    76  H    0.011022
    77  H    0.034584
    78  H    0.030278
    79  H    0.030580
    80  H    0.013269
    81  H    0.038079
    82  H    0.032730
    83  H    0.025760
    84  H    0.041026
    85  H    0.006895
    86  H    0.015728
    87  H    0.029380
    88  H    0.010912
    89  H    0.020821
    90  H    0.022027
    91  H    0.006896
    92  H    0.017276
    93  H    0.029821
    94  H    0.007052
    95  H    0.016846
    96  H    0.016390
    97  H    0.033063
    98  H    0.035288
    99  H    0.041090
   100  H    0.045558
   101  H    0.049202
   102  H    0.009067
   103  H    0.007841
   104  H   -0.016836
   105  H    0.014052
   106  H    0.040066
   107  H    0.031899
   108  H    0.010011
   109  H   -0.014857
   110  H    0.001313
   111  H    0.004373
   112  H   -0.023961
   113  H   -0.002233
   114  H   -0.009667
   115  H    0.006621
   116  H    0.008708
   117  H    0.002777
   118  H    0.004357
   119  H   -0.013036
   120  H    0.001646
   121  H    0.006841
   122  H   -0.007593
   123  H   -0.009487
   124  H    0.004776
   125  H    0.005887
   126  H    0.010281
   127  H   -0.002746
   128  H   -0.000152
   129  H    0.001726
   130  H   -0.001962
   131  H    0.009376
   132  H   -0.017520
   133  H   -0.003090
   134  H   -0.000986
   135  H    0.006475
   136  H    0.004760
   137  H    0.003019
   138  H    0.017691
   139  H    0.010844
   140  H    0.012364
 Sum of Mulliken charges =  -0.00000

 Dipole moment (field-independent basis, Debye):
    X=              4.8579    Y=              5.7119    Z=             -4.4177  Tot=              8.7030
 Quadrupole moment (field-independent basis, Debye-Ang):
   XX=           -375.4057   YY=           -430.6937   ZZ=           -406.3629
   XY=            -27.1282   XZ=              5.2788   YZ=              6.0649

 Normal termination of Gaussian 16 at Wed Apr 27 15:05:46 2022.
