 Gaussian 16, Revision A.03,
 Gaussian 16:  ES64L-G16RevA.03 25-Dec-2016

 ---------------------------------
 #p PBE1PBE/Def2SVP td=(nstates=5)
 ---------------------------------

 -----------------------------------------------------
 step_1201_chromophore_9 TDDFT with PBE1PBE functional
 -----------------------------------------------------
 Symbolic Z-matrix:
 Charge =  0 Multiplicity = 1

                         Standard orientation:
 ---------------------------------------------------------------------
 Center     Atomic      Atomic             Coordinates (Angstroms)
 Number     Number       Type             X           Y           Z
 ---------------------------------------------------------------------
      1         12           0       -4.842667    0.720599   -0.209303
      2          6           0       -3.737894   -2.524676    0.124193
      3          6           0       -1.548184    1.712304   -0.450794
      4          6           0       -5.926508    3.943349   -0.262756
      5          6           0       -8.115907   -0.292268    0.757108
      6          7           0       -2.905662   -0.331553   -0.104652
      7          6           0       -2.688301   -1.662772   -0.124129
      8          6           0       -1.261634   -2.016420   -0.310473
      9          6           0       -0.493281   -0.656133   -0.026612
     10          6           0       -1.730182    0.291808   -0.254937
     11          6           0        0.164248   -0.661230    1.382473
     12          6           0       -1.015249   -2.639298   -1.652957
     13          6           0       -0.130491   -3.859540   -1.785197
     14          6           0        1.097788   -3.783306   -0.839130
     15          8           0        1.254464   -4.242958    0.304728
     16          8           0        2.148963   -3.141156   -1.480740
     17          7           0       -3.867322    2.535974   -0.544837
     18          6           0       -2.520156    2.812713   -0.676175
     19          6           0       -2.318183    4.267127   -1.001211
     20          6           0       -3.563299    4.886101   -0.885514
     21          6           0       -4.544386    3.775000   -0.492518
     22          6           0       -0.898081    4.794511   -1.200297
     23          6           0       -3.921445    6.364317   -1.084114
     24          8           0       -5.046483    6.771814   -1.018591
     25          6           0       -2.837595    7.385231   -1.704192
     26          7           0       -6.738712    1.710455    0.441890
     27          6           0       -6.911479    2.995811    0.055849
     28          6           0       -8.381236    3.375332    0.235140
     29          6           0       -9.109021    2.044681    0.540877
     30          6           0       -7.981914    1.079524    0.532959
     31          6           0       -8.661409    4.615000    1.208199
     32          6           0      -10.426787    1.816895   -0.363944
     33          6           0      -10.157384    0.911498   -1.593793
     34          7           0       -5.780734   -1.012725    0.452399
     35          6           0       -7.126401   -1.287025    0.688441
     36          6           0       -7.255562   -2.712701    0.860081
     37          6           0       -5.978129   -3.240117    0.642356
     38          6           0       -5.113206   -2.187391    0.459080
     39          6           0       -8.584252   -3.384294    1.312917
     40          6           0       -5.235423   -4.439436    0.588164
     41          8           0       -5.528842   -5.638861    0.764890
     42          6           0       -3.681953   -4.001204    0.316258
     43          6           0       -2.976372   -4.411271    1.536986
     44          8           0       -2.794654   -3.746851    2.536292
     45          8           0       -2.353911   -5.636491    1.288744
     46          6           0       -1.286415   -6.108498    2.299379
     47          6           0        3.287680   -2.816359   -0.625633
     48          6           0        4.275393   -2.059784   -1.358662
     49          6           0        5.433680   -2.388221   -1.927097
     50          6           0        6.052084   -3.823236   -1.878915
     51          6           0        6.385486   -1.267727   -2.368191
     52          6           0        6.939031   -1.363472   -3.777745
     53          6           0        8.438111   -1.519047   -3.737176
     54          6           0        9.218131   -0.193374   -3.443994
     55          6           0       10.326032    0.179630   -4.406032
     56          6           0        9.812854   -0.242426   -1.965567
     57          6           0        9.574108    1.064261   -1.198247
     58          6           0       10.968241    1.715188   -0.836522
     59          6           0       10.866423    2.359000    0.495765
     60          6           0       11.880492    3.525470    0.653338
     61          6           0       11.061345    1.187020    1.620571
     62          6           0        9.743404    1.098243    2.484034
     63          6           0        9.882288    0.931079    4.011590
     64          6           0        9.536429    2.290471    4.804326
     65          6           0       10.343316    2.391298    6.122191
     66          6           0        7.974470    2.311922    5.063653
     67          1           0       -0.489183    1.979082   -0.427942
     68          1           0       -6.277246    4.965646   -0.424974
     69          1           0       -9.151710   -0.639230    0.729966
     70          1           0       -1.041096   -2.754340    0.460281
     71          1           0        0.237278   -0.435158   -0.803984
     72          1           0        1.219723   -0.889477    1.228951
     73          1           0       -0.256745   -1.471142    1.978198
     74          1           0        0.024380    0.324637    1.824074
     75          1           0       -0.492346   -1.955367   -2.321684
     76          1           0       -1.980337   -2.629341   -2.159377
     77          1           0        0.166283   -3.956689   -2.830071
     78          1           0       -0.860207   -4.629109   -1.533861
     79          1           0       -0.743335    5.187198   -2.205223
     80          1           0       -0.231944    3.939912   -1.082304
     81          1           0       -0.658947    5.571166   -0.473518
     82          1           0       -2.142752    7.639880   -0.903531
     83          1           0       -3.296725    8.326399   -2.005399
     84          1           0       -2.399690    6.993771   -2.622069
     85          1           0       -8.680144    3.664565   -0.773243
     86          1           0       -9.448922    2.070182    1.576767
     87          1           0       -7.774352    5.218302    1.398945
     88          1           0       -8.973484    4.216952    2.173526
     89          1           0       -9.444510    5.276019    0.836071
     90          1           0      -10.911232    2.755358   -0.632139
     91          1           0      -11.135208    1.175577    0.160835
     92          1           0      -10.852889    0.072097   -1.586451
     93          1           0       -9.134426    0.544508   -1.678205
     94          1           0      -10.278455    1.443279   -2.536895
     95          1           0       -9.260526   -3.524609    0.468891
     96          1           0       -9.140056   -2.775055    2.025373
     97          1           0       -8.426592   -4.366120    1.757987
     98          1           0       -3.239532   -4.491452   -0.551514
     99          1           0       -1.513030   -7.123560    2.628015
    100          1           0       -1.246607   -5.473701    3.184773
    101          1           0       -0.301858   -6.055121    1.834298
    102          1           0        3.794579   -3.708145   -0.255335
    103          1           0        2.909267   -2.169893    0.166108
    104          1           0        4.025457   -0.999035   -1.368428
    105          1           0        7.127633   -3.802368   -2.048821
    106          1           0        5.565865   -4.441943   -2.632673
    107          1           0        5.874157   -4.238365   -0.886152
    108          1           0        7.128989   -1.184664   -1.576085
    109          1           0        5.967517   -0.265133   -2.279846
    110          1           0        6.653760   -0.445800   -4.293275
    111          1           0        6.507007   -2.217197   -4.298981
    112          1           0        8.730964   -1.780027   -4.755104
    113          1           0        8.693166   -2.376765   -3.114284
    114          1           0        8.494869    0.621181   -3.491452
    115          1           0        9.966219    1.033810   -4.980351
    116          1           0       10.691723   -0.596645   -5.077886
    117          1           0       11.229929    0.489120   -3.881188
    118          1           0       10.874138   -0.492240   -1.946164
    119          1           0        9.267828   -0.944821   -1.335462
    120          1           0        9.027478    0.791748   -0.295415
    121          1           0        9.070002    1.877886   -1.718632
    122          1           0       11.281392    2.358296   -1.659199
    123          1           0       11.717844    0.925655   -0.784475
    124          1           0        9.852878    2.756957    0.549494
    125          1           0       12.719032    3.494981   -0.041694
    126          1           0       12.183381    3.627693    1.695280
    127          1           0       11.387557    4.442477    0.331650
    128          1           0       11.902330    1.362794    2.291621
    129          1           0       11.196713    0.191823    1.196625
    130          1           0        9.266850    0.161263    2.198814
    131          1           0        9.108547    1.952249    2.244217
    132          1           0       10.926120    0.674132    4.188568
    133          1           0        9.314942    0.113551    4.456660
    134          1           0        9.945930    3.089540    4.185724
    135          1           0        9.879309    2.936437    6.943800
    136          1           0       11.315780    2.846333    5.932353
    137          1           0       10.513853    1.379608    6.489055
    138          1           0        7.666666    3.333634    4.840589
    139          1           0        7.734375    2.066451    6.097891
    140          1           0        7.485218    1.552761    4.452909
 ---------------------------------------------------------------------

 SCF Done:  E(RPBE1PBE) =  -3005.34786392     A.U. after   16 cycles

 Excitation energies and oscillator strengths:

 Excited State   1:      Singlet-A      1.8272 eV  678.55 nm  f=0.3555  <S**2>=0.000
     245 -> 248       -0.16553
     246 -> 247        0.69204
     246 <- 247       -0.10289
 This state for optimization and/or second-order correction.
 Total Energy, E(TD-HF/TD-DFT) =  -3005.28071622
 Copying the excited state density for this state as the 1-particle RhoCI density.

 Excited State   2:      Singlet-A      2.1643 eV  572.87 nm  f=0.1200  <S**2>=0.000
     245 -> 247        0.65944
     246 -> 248        0.23617

 Excited State   3:      Singlet-A      2.8602 eV  433.49 nm  f=0.0011  <S**2>=0.000
     243 -> 247       -0.12644
     244 -> 247        0.66375
     244 -> 249       -0.13305
     244 -> 250        0.10022

 Excited State   4:      Singlet-A      3.0520 eV  406.24 nm  f=0.0016  <S**2>=0.000
     243 -> 247        0.68013
     244 -> 247        0.13756

 Excited State   5:      Singlet-A      3.2054 eV  386.80 nm  f=0.0042  <S**2>=0.000
     241 -> 247        0.63907
     241 -> 248       -0.11918
     241 -> 249        0.15671
     242 -> 247       -0.17441

 The electronic state is 1-A.
 Alpha  occ. eigenvalues --  -46.92809 -19.25956 -19.23535 -19.21252 -19.20486
 Alpha  occ. eigenvalues --  -19.18861 -19.18323 -14.41590 -14.41280 -14.40346
 Alpha  occ. eigenvalues --  -14.38353 -10.37782 -10.34923 -10.33724 -10.31610
 Alpha  occ. eigenvalues --  -10.29610 -10.29429 -10.29356 -10.29100 -10.28600
 Alpha  occ. eigenvalues --  -10.28154 -10.27814 -10.27650 -10.27426 -10.26604
 Alpha  occ. eigenvalues --  -10.26390 -10.26315 -10.26006 -10.25950 -10.25863
 Alpha  occ. eigenvalues --  -10.25732 -10.25388 -10.25347 -10.25239 -10.25167
 Alpha  occ. eigenvalues --  -10.25164 -10.24946 -10.24785 -10.24762 -10.24575
 Alpha  occ. eigenvalues --  -10.24259 -10.24138 -10.24059 -10.24028 -10.23902
 Alpha  occ. eigenvalues --  -10.23867 -10.23604 -10.23602 -10.23513 -10.23353
 Alpha  occ. eigenvalues --  -10.23187 -10.23157 -10.22908 -10.22686 -10.22577
 Alpha  occ. eigenvalues --  -10.22530 -10.22502 -10.22472 -10.22446 -10.22434
 Alpha  occ. eigenvalues --  -10.22211 -10.22083 -10.22019 -10.22003 -10.21915
 Alpha  occ. eigenvalues --  -10.21648  -3.14778  -1.87613  -1.87162  -1.86989
 Alpha  occ. eigenvalues --   -1.11078  -1.08222  -1.07226  -1.02300  -1.02195
 Alpha  occ. eigenvalues --   -1.00126  -0.99607  -0.98055  -0.97300  -0.96356
 Alpha  occ. eigenvalues --   -0.86544  -0.85478  -0.84977  -0.84045  -0.82840
 Alpha  occ. eigenvalues --   -0.82722  -0.81812  -0.81462  -0.81350  -0.81145
 Alpha  occ. eigenvalues --   -0.80077  -0.79633  -0.78999  -0.77338  -0.77195
 Alpha  occ. eigenvalues --   -0.76690  -0.75774  -0.75438  -0.74525  -0.74406
 Alpha  occ. eigenvalues --   -0.73677  -0.72616  -0.72437  -0.71358  -0.70853
 Alpha  occ. eigenvalues --   -0.69547  -0.69397  -0.69120  -0.69015  -0.68107
 Alpha  occ. eigenvalues --   -0.67690  -0.66968  -0.65627  -0.64842  -0.63936
 Alpha  occ. eigenvalues --   -0.63114  -0.62455  -0.61870  -0.60630  -0.60424
 Alpha  occ. eigenvalues --   -0.59389  -0.59221  -0.59107  -0.58799  -0.58502
 Alpha  occ. eigenvalues --   -0.58273  -0.57891  -0.56924  -0.55125  -0.54688
 Alpha  occ. eigenvalues --   -0.54356  -0.54122  -0.53613  -0.52417  -0.51997
 Alpha  occ. eigenvalues --   -0.51789  -0.51514  -0.50987  -0.50277  -0.50216
 Alpha  occ. eigenvalues --   -0.49782  -0.49395  -0.49110  -0.48707  -0.48402
 Alpha  occ. eigenvalues --   -0.47906  -0.47742  -0.47373  -0.47068  -0.46996
 Alpha  occ. eigenvalues --   -0.46903  -0.46784  -0.46658  -0.46444  -0.45965
 Alpha  occ. eigenvalues --   -0.45534  -0.45473  -0.45114  -0.45062  -0.44779
 Alpha  occ. eigenvalues --   -0.44650  -0.44411  -0.44252  -0.44220  -0.44162
 Alpha  occ. eigenvalues --   -0.43838  -0.43686  -0.43607  -0.43354  -0.43169
 Alpha  occ. eigenvalues --   -0.43060  -0.42797  -0.42731  -0.42611  -0.42242
 Alpha  occ. eigenvalues --   -0.42194  -0.41983  -0.41853  -0.41748  -0.40987
 Alpha  occ. eigenvalues --   -0.40855  -0.40762  -0.40659  -0.40429  -0.40290
 Alpha  occ. eigenvalues --   -0.40144  -0.40038  -0.40012  -0.39876  -0.39577
 Alpha  occ. eigenvalues --   -0.39392  -0.39328  -0.39155  -0.39015  -0.38973
 Alpha  occ. eigenvalues --   -0.38784  -0.38552  -0.38515  -0.38149  -0.37931
 Alpha  occ. eigenvalues --   -0.37832  -0.37764  -0.37571  -0.37342  -0.37084
 Alpha  occ. eigenvalues --   -0.37036  -0.36899  -0.36541  -0.36367  -0.36332
 Alpha  occ. eigenvalues --   -0.35543  -0.35441  -0.35267  -0.34827  -0.34682
 Alpha  occ. eigenvalues --   -0.34579  -0.34511  -0.34423  -0.33988  -0.33738
 Alpha  occ. eigenvalues --   -0.33291  -0.33093  -0.32860  -0.32761  -0.32539
 Alpha  occ. eigenvalues --   -0.31858  -0.31695  -0.31606  -0.31275  -0.31097
 Alpha  occ. eigenvalues --   -0.30647  -0.30159  -0.29946  -0.29780  -0.29650
 Alpha  occ. eigenvalues --   -0.28632  -0.28418  -0.28012  -0.27414  -0.26599
 Alpha  occ. eigenvalues --   -0.26411  -0.26275  -0.25109  -0.24652  -0.20683
 Alpha  occ. eigenvalues --   -0.18720
 Alpha virt. eigenvalues --   -0.11150  -0.05303  -0.03921  -0.02351  -0.01283
 Alpha virt. eigenvalues --   -0.00800  -0.00265   0.00732   0.01933   0.03419
 Alpha virt. eigenvalues --    0.04139   0.04392   0.04734   0.05182   0.05318

 Mulliken charges:
               1
     1  Mg   0.959070
     2  C   -0.019310
     3  C   -0.060730
     4  C   -0.073972
     5  C   -0.039969
     6  N   -0.350709
     7  C    0.040187
     8  C   -0.175225
     9  C   -0.114859
    10  C    0.040611
    11  C    0.032443
    12  C   -0.003491
    13  C    0.057571
    14  C    0.237876
    15  O   -0.279241
    16  O   -0.374026
    17  N   -0.506233
    18  C    0.142598
    19  C   -0.158408
    20  C   -0.088900
    21  C    0.162885
    22  C    0.062707
    23  C    0.066838
    24  O   -0.205101
    25  C   -0.054285
    26  N   -0.377954
    27  C    0.085938
    28  C   -0.109387
    29  C   -0.032170
    30  C    0.008109
    31  C    0.001682
    32  C   -0.038935
    33  C   -0.097905
    34  N   -0.480850
    35  C    0.129565
    36  C   -0.170425
    37  C    0.016689
    38  C    0.163275
    39  C    0.062236
    40  C    0.094487
    41  O   -0.234942
    42  C   -0.163646
    43  C    0.326756
    44  O   -0.246877
    45  O   -0.407193
    46  C    0.104885
    47  C    0.286916
    48  C   -0.168024
    49  C   -0.170349
    50  C   -0.000507
    51  C   -0.014048
    52  C   -0.040648
    53  C    0.005047
    54  C   -0.204145
    55  C    0.007493
    56  C   -0.013260
    57  C   -0.072502
    58  C   -0.031128
    59  C   -0.218134
    60  C    0.004329
    61  C   -0.001823
    62  C   -0.075296
    63  C   -0.032484
    64  C   -0.251578
    65  C   -0.022505
    66  C   -0.011513
    67  H    0.000772
    68  H    0.036846
    69  H    0.006417
    70  H    0.081145
    71  H    0.037268
    72  H    0.044933
    73  H    0.072281
    74  H    0.047356
    75  H    0.028429
    76  H    0.043302
    77  H    0.066242
    78  H    0.064970
    79  H    0.056408
    80  H    0.040451
    81  H    0.063580
    82  H    0.058574
    83  H    0.051987
    84  H    0.065956
    85  H    0.047124
    86  H    0.054615
    87  H    0.056672
    88  H    0.037827
    89  H    0.047448
    90  H    0.054139
    91  H    0.039345
    92  H    0.044109
    93  H    0.059566
    94  H    0.036476
    95  H    0.046548
    96  H    0.044270
    97  H    0.061732
    98  H    0.074253
    99  H    0.062839
   100  H    0.066310
   101  H    0.072531
   102  H    0.036406
   103  H    0.040858
   104  H    0.013433
   105  H    0.042365
   106  H    0.067417
   107  H    0.058458
   108  H    0.047133
   109  H    0.016399
   110  H    0.034531
   111  H    0.037839
   112  H    0.011314
   113  H    0.031654
   114  H    0.027542
   115  H    0.033921
   116  H    0.034853
   117  H    0.030411
   118  H    0.035850
   119  H    0.018948
   120  H    0.037175
   121  H    0.038657
   122  H    0.024982
   123  H    0.023527
   124  H    0.041992
   125  H    0.032816
   126  H    0.037470
   127  H    0.025830
   128  H    0.030835
   129  H    0.033701
   130  H    0.030736
   131  H    0.040660
   132  H    0.016042
   133  H    0.028668
   134  H    0.037119
   135  H    0.034043
   136  H    0.032625
   137  H    0.030717
   138  H    0.045464
   139  H    0.037917
   140  H    0.039466
 Sum of Mulliken charges =  -0.00000

 Dipole moment (field-independent basis, Debye):
    X=              4.4670    Y=              4.9141    Z=             -4.2434  Tot=              7.8809
 Quadrupole moment (field-independent basis, Debye-Ang):
   XX=           -365.1949   YY=           -429.7435   ZZ=           -403.9021
   XY=            -23.9585   XZ=              4.1579   YZ=              6.2183

 Normal termination of Gaussian 16 at Wed Apr 27 15:25:48 2022.
