 Gaussian 16, Revision A.03,
 Gaussian 16:  ES64L-G16RevA.03 25-Dec-2016

 --------------------------------
 #p wB97XD/Def2SVP td=(nstates=5)
 --------------------------------

 ----------------------------------------------------
 step_1201_chromophore_9 TDDFT with wB97XD functional
 ----------------------------------------------------
 Symbolic Z-matrix:
 Charge =  0 Multiplicity = 1

                         Standard orientation:
 ---------------------------------------------------------------------
 Center     Atomic      Atomic             Coordinates (Angstroms)
 Number     Number       Type             X           Y           Z
 ---------------------------------------------------------------------
      1         12           0       -4.842667    0.720599   -0.209303
      2          6           0       -3.737894   -2.524676    0.124193
      3          6           0       -1.548184    1.712304   -0.450794
      4          6           0       -5.926508    3.943349   -0.262756
      5          6           0       -8.115907   -0.292268    0.757108
      6          7           0       -2.905662   -0.331553   -0.104652
      7          6           0       -2.688301   -1.662772   -0.124129
      8          6           0       -1.261634   -2.016420   -0.310473
      9          6           0       -0.493281   -0.656133   -0.026612
     10          6           0       -1.730182    0.291808   -0.254937
     11          6           0        0.164248   -0.661230    1.382473
     12          6           0       -1.015249   -2.639298   -1.652957
     13          6           0       -0.130491   -3.859540   -1.785197
     14          6           0        1.097788   -3.783306   -0.839130
     15          8           0        1.254464   -4.242958    0.304728
     16          8           0        2.148963   -3.141156   -1.480740
     17          7           0       -3.867322    2.535974   -0.544837
     18          6           0       -2.520156    2.812713   -0.676175
     19          6           0       -2.318183    4.267127   -1.001211
     20          6           0       -3.563299    4.886101   -0.885514
     21          6           0       -4.544386    3.775000   -0.492518
     22          6           0       -0.898081    4.794511   -1.200297
     23          6           0       -3.921445    6.364317   -1.084114
     24          8           0       -5.046483    6.771814   -1.018591
     25          6           0       -2.837595    7.385231   -1.704192
     26          7           0       -6.738712    1.710455    0.441890
     27          6           0       -6.911479    2.995811    0.055849
     28          6           0       -8.381236    3.375332    0.235140
     29          6           0       -9.109021    2.044681    0.540877
     30          6           0       -7.981914    1.079524    0.532959
     31          6           0       -8.661409    4.615000    1.208199
     32          6           0      -10.426787    1.816895   -0.363944
     33          6           0      -10.157384    0.911498   -1.593793
     34          7           0       -5.780734   -1.012725    0.452399
     35          6           0       -7.126401   -1.287025    0.688441
     36          6           0       -7.255562   -2.712701    0.860081
     37          6           0       -5.978129   -3.240117    0.642356
     38          6           0       -5.113206   -2.187391    0.459080
     39          6           0       -8.584252   -3.384294    1.312917
     40          6           0       -5.235423   -4.439436    0.588164
     41          8           0       -5.528842   -5.638861    0.764890
     42          6           0       -3.681953   -4.001204    0.316258
     43          6           0       -2.976372   -4.411271    1.536986
     44          8           0       -2.794654   -3.746851    2.536292
     45          8           0       -2.353911   -5.636491    1.288744
     46          6           0       -1.286415   -6.108498    2.299379
     47          6           0        3.287680   -2.816359   -0.625633
     48          6           0        4.275393   -2.059784   -1.358662
     49          6           0        5.433680   -2.388221   -1.927097
     50          6           0        6.052084   -3.823236   -1.878915
     51          6           0        6.385486   -1.267727   -2.368191
     52          6           0        6.939031   -1.363472   -3.777745
     53          6           0        8.438111   -1.519047   -3.737176
     54          6           0        9.218131   -0.193374   -3.443994
     55          6           0       10.326032    0.179630   -4.406032
     56          6           0        9.812854   -0.242426   -1.965567
     57          6           0        9.574108    1.064261   -1.198247
     58          6           0       10.968241    1.715188   -0.836522
     59          6           0       10.866423    2.359000    0.495765
     60          6           0       11.880492    3.525470    0.653338
     61          6           0       11.061345    1.187020    1.620571
     62          6           0        9.743404    1.098243    2.484034
     63          6           0        9.882288    0.931079    4.011590
     64          6           0        9.536429    2.290471    4.804326
     65          6           0       10.343316    2.391298    6.122191
     66          6           0        7.974470    2.311922    5.063653
     67          1           0       -0.489183    1.979082   -0.427942
     68          1           0       -6.277246    4.965646   -0.424974
     69          1           0       -9.151710   -0.639230    0.729966
     70          1           0       -1.041096   -2.754340    0.460281
     71          1           0        0.237278   -0.435158   -0.803984
     72          1           0        1.219723   -0.889477    1.228951
     73          1           0       -0.256745   -1.471142    1.978198
     74          1           0        0.024380    0.324637    1.824074
     75          1           0       -0.492346   -1.955367   -2.321684
     76          1           0       -1.980337   -2.629341   -2.159377
     77          1           0        0.166283   -3.956689   -2.830071
     78          1           0       -0.860207   -4.629109   -1.533861
     79          1           0       -0.743335    5.187198   -2.205223
     80          1           0       -0.231944    3.939912   -1.082304
     81          1           0       -0.658947    5.571166   -0.473518
     82          1           0       -2.142752    7.639880   -0.903531
     83          1           0       -3.296725    8.326399   -2.005399
     84          1           0       -2.399690    6.993771   -2.622069
     85          1           0       -8.680144    3.664565   -0.773243
     86          1           0       -9.448922    2.070182    1.576767
     87          1           0       -7.774352    5.218302    1.398945
     88          1           0       -8.973484    4.216952    2.173526
     89          1           0       -9.444510    5.276019    0.836071
     90          1           0      -10.911232    2.755358   -0.632139
     91          1           0      -11.135208    1.175577    0.160835
     92          1           0      -10.852889    0.072097   -1.586451
     93          1           0       -9.134426    0.544508   -1.678205
     94          1           0      -10.278455    1.443279   -2.536895
     95          1           0       -9.260526   -3.524609    0.468891
     96          1           0       -9.140056   -2.775055    2.025373
     97          1           0       -8.426592   -4.366120    1.757987
     98          1           0       -3.239532   -4.491452   -0.551514
     99          1           0       -1.513030   -7.123560    2.628015
    100          1           0       -1.246607   -5.473701    3.184773
    101          1           0       -0.301858   -6.055121    1.834298
    102          1           0        3.794579   -3.708145   -0.255335
    103          1           0        2.909267   -2.169893    0.166108
    104          1           0        4.025457   -0.999035   -1.368428
    105          1           0        7.127633   -3.802368   -2.048821
    106          1           0        5.565865   -4.441943   -2.632673
    107          1           0        5.874157   -4.238365   -0.886152
    108          1           0        7.128989   -1.184664   -1.576085
    109          1           0        5.967517   -0.265133   -2.279846
    110          1           0        6.653760   -0.445800   -4.293275
    111          1           0        6.507007   -2.217197   -4.298981
    112          1           0        8.730964   -1.780027   -4.755104
    113          1           0        8.693166   -2.376765   -3.114284
    114          1           0        8.494869    0.621181   -3.491452
    115          1           0        9.966219    1.033810   -4.980351
    116          1           0       10.691723   -0.596645   -5.077886
    117          1           0       11.229929    0.489120   -3.881188
    118          1           0       10.874138   -0.492240   -1.946164
    119          1           0        9.267828   -0.944821   -1.335462
    120          1           0        9.027478    0.791748   -0.295415
    121          1           0        9.070002    1.877886   -1.718632
    122          1           0       11.281392    2.358296   -1.659199
    123          1           0       11.717844    0.925655   -0.784475
    124          1           0        9.852878    2.756957    0.549494
    125          1           0       12.719032    3.494981   -0.041694
    126          1           0       12.183381    3.627693    1.695280
    127          1           0       11.387557    4.442477    0.331650
    128          1           0       11.902330    1.362794    2.291621
    129          1           0       11.196713    0.191823    1.196625
    130          1           0        9.266850    0.161263    2.198814
    131          1           0        9.108547    1.952249    2.244217
    132          1           0       10.926120    0.674132    4.188568
    133          1           0        9.314942    0.113551    4.456660
    134          1           0        9.945930    3.089540    4.185724
    135          1           0        9.879309    2.936437    6.943800
    136          1           0       11.315780    2.846333    5.932353
    137          1           0       10.513853    1.379608    6.489055
    138          1           0        7.666666    3.333634    4.840589
    139          1           0        7.734375    2.066451    6.097891
    140          1           0        7.485218    1.552761    4.452909
 ---------------------------------------------------------------------

 SCF Done:  E(RwB97XD) =  -3007.86246377     A.U. after   19 cycles

 Excitation energies and oscillator strengths:

 Excited State   1:      Singlet-A      1.6977 eV  730.31 nm  f=0.3657  <S**2>=0.000
     245 -> 248       -0.17177
     246 -> 247        0.68416
     245 <- 248       -0.10752
 This state for optimization and/or second-order correction.
 Total Energy, E(TD-HF/TD-DFT) =  -3007.80007490
 Copying the excited state density for this state as the 1-particle RhoCI density.

 Excited State   2:      Singlet-A      2.1262 eV  583.13 nm  f=0.1216  <S**2>=0.000
     245 -> 247        0.64437
     246 -> 248        0.26812

 Excited State   3:      Singlet-A      3.4923 eV  355.03 nm  f=0.3791  <S**2>=0.000
     239 -> 247       -0.17747
     242 -> 247       -0.28255
     243 -> 247       -0.13285
     244 -> 247        0.32016
     245 -> 247       -0.18734
     246 -> 248        0.46071

 Excited State   4:      Singlet-A      3.5111 eV  353.12 nm  f=0.1613  <S**2>=0.000
     243 -> 247       -0.31714
     244 -> 247        0.43995
     245 -> 247        0.14492
     246 -> 248       -0.39278

 Excited State   5:      Singlet-A      3.5250 eV  351.72 nm  f=0.0125  <S**2>=0.000
     243 -> 247        0.44710
     243 -> 249       -0.23447
     243 -> 250        0.25747
     244 -> 247        0.29927
     244 -> 249       -0.13725
     244 -> 250        0.13536

 The electronic state is 1-A.
 Alpha  occ. eigenvalues --  -46.95733 -19.30489 -19.27922 -19.25868 -19.25723
 Alpha  occ. eigenvalues --  -19.23395 -19.22672 -14.46660 -14.46385 -14.45508
 Alpha  occ. eigenvalues --  -14.42984 -10.44521 -10.41587 -10.40949 -10.38091
 Alpha  occ. eigenvalues --  -10.36560 -10.36309 -10.36014 -10.35623 -10.35261
 Alpha  occ. eigenvalues --  -10.34734 -10.34034 -10.33822 -10.33815 -10.33339
 Alpha  occ. eigenvalues --  -10.32643 -10.32315 -10.32281 -10.32222 -10.32200
 Alpha  occ. eigenvalues --  -10.32085 -10.31843 -10.31645 -10.31484 -10.31351
 Alpha  occ. eigenvalues --  -10.31058 -10.31049 -10.31020 -10.30973 -10.30913
 Alpha  occ. eigenvalues --  -10.30842 -10.30711 -10.30651 -10.30259 -10.30184
 Alpha  occ. eigenvalues --  -10.30162 -10.30057 -10.29979 -10.29891 -10.29739
 Alpha  occ. eigenvalues --  -10.29542 -10.29297 -10.29224 -10.29075 -10.28906
 Alpha  occ. eigenvalues --  -10.28867 -10.28851 -10.28835 -10.28826 -10.28816
 Alpha  occ. eigenvalues --  -10.28655 -10.28535 -10.28452 -10.28291 -10.28092
 Alpha  occ. eigenvalues --  -10.27792  -3.21580  -1.95160  -1.94708  -1.94535
 Alpha  occ. eigenvalues --   -1.18426  -1.15464  -1.15094  -1.09612  -1.09280
 Alpha  occ. eigenvalues --   -1.07333  -1.06971  -1.05396  -1.04440  -1.04010
 Alpha  occ. eigenvalues --   -0.93899  -0.93123  -0.92556  -0.91723  -0.90498
 Alpha  occ. eigenvalues --   -0.90397  -0.89727  -0.89266  -0.89038  -0.88722
 Alpha  occ. eigenvalues --   -0.87713  -0.86973  -0.86627  -0.84940  -0.84716
 Alpha  occ. eigenvalues --   -0.84352  -0.83489  -0.83140  -0.82334  -0.82156
 Alpha  occ. eigenvalues --   -0.81337  -0.80556  -0.79999  -0.78882  -0.78544
 Alpha  occ. eigenvalues --   -0.77120  -0.77105  -0.76819  -0.76558  -0.75784
 Alpha  occ. eigenvalues --   -0.75278  -0.74403  -0.73216  -0.72462  -0.71430
 Alpha  occ. eigenvalues --   -0.70734  -0.70081  -0.69463  -0.68213  -0.68029
 Alpha  occ. eigenvalues --   -0.67027  -0.66676  -0.66544  -0.66338  -0.65977
 Alpha  occ. eigenvalues --   -0.65734  -0.65556  -0.64582  -0.62586  -0.62129
 Alpha  occ. eigenvalues --   -0.61948  -0.61605  -0.60946  -0.59716  -0.59447
 Alpha  occ. eigenvalues --   -0.59133  -0.58888  -0.58376  -0.57677  -0.57562
 Alpha  occ. eigenvalues --   -0.57107  -0.56813  -0.56576  -0.56096  -0.55703
 Alpha  occ. eigenvalues --   -0.55500  -0.55288  -0.54804  -0.54737  -0.54450
 Alpha  occ. eigenvalues --   -0.54222  -0.54061  -0.53988  -0.53707  -0.53300
 Alpha  occ. eigenvalues --   -0.52839  -0.52805  -0.52532  -0.52482  -0.52392
 Alpha  occ. eigenvalues --   -0.51995  -0.51793  -0.51680  -0.51521  -0.51315
 Alpha  occ. eigenvalues --   -0.51150  -0.50957  -0.50933  -0.50679  -0.50528
 Alpha  occ. eigenvalues --   -0.50350  -0.50165  -0.50041  -0.49800  -0.49667
 Alpha  occ. eigenvalues --   -0.49489  -0.49300  -0.49133  -0.48916  -0.48251
 Alpha  occ. eigenvalues --   -0.48127  -0.48045  -0.47862  -0.47564  -0.47448
 Alpha  occ. eigenvalues --   -0.47378  -0.47237  -0.47127  -0.47027  -0.46888
 Alpha  occ. eigenvalues --   -0.46545  -0.46502  -0.46285  -0.46241  -0.46168
 Alpha  occ. eigenvalues --   -0.46082  -0.45719  -0.45683  -0.45263  -0.45051
 Alpha  occ. eigenvalues --   -0.44931  -0.44835  -0.44537  -0.44340  -0.44169
 Alpha  occ. eigenvalues --   -0.43960  -0.43877  -0.43513  -0.43476  -0.43413
 Alpha  occ. eigenvalues --   -0.42615  -0.42442  -0.42187  -0.41792  -0.41772
 Alpha  occ. eigenvalues --   -0.41634  -0.41511  -0.41455  -0.40871  -0.40815
 Alpha  occ. eigenvalues --   -0.40302  -0.40125  -0.39842  -0.39713  -0.39574
 Alpha  occ. eigenvalues --   -0.38891  -0.38663  -0.38604  -0.38277  -0.38086
 Alpha  occ. eigenvalues --   -0.37634  -0.37072  -0.36980  -0.36753  -0.36357
 Alpha  occ. eigenvalues --   -0.35492  -0.35083  -0.34915  -0.34343  -0.33902
 Alpha  occ. eigenvalues --   -0.33327  -0.32881  -0.31459  -0.31104  -0.25744
 Alpha  occ. eigenvalues --   -0.22961
 Alpha virt. eigenvalues --   -0.06943   0.00200   0.02227   0.04238   0.04928
 Alpha virt. eigenvalues --    0.05757   0.06399   0.07511   0.08925   0.09989
 Alpha virt. eigenvalues --    0.10557   0.11068   0.11526   0.11922   0.12063

 Mulliken charges:
               1
     1  Mg   0.950518
     2  C   -0.016676
     3  C   -0.077888
     4  C   -0.095408
     5  C   -0.052548
     6  N   -0.316091
     7  C    0.011893
     8  C   -0.136125
     9  C   -0.093511
    10  C    0.030082
    11  C    0.046346
    12  C   -0.001013
    13  C    0.079123
    14  C    0.224239
    15  O   -0.274843
    16  O   -0.373464
    17  N   -0.482225
    18  C    0.141961
    19  C   -0.147837
    20  C   -0.081492
    21  C    0.163256
    22  C    0.075140
    23  C    0.061996
    24  O   -0.198081
    25  C   -0.040791
    26  N   -0.347814
    27  C    0.080710
    28  C   -0.087027
    29  C   -0.012419
    30  C   -0.002483
    31  C    0.014713
    32  C   -0.022603
    33  C   -0.081596
    34  N   -0.444764
    35  C    0.115543
    36  C   -0.174334
    37  C    0.022553
    38  C    0.134395
    39  C    0.071891
    40  C    0.079078
    41  O   -0.229448
    42  C   -0.122237
    43  C    0.301506
    44  O   -0.241891
    45  O   -0.407393
    46  C    0.122791
    47  C    0.309020
    48  C   -0.175529
    49  C   -0.159531
    50  C    0.012974
    51  C    0.005551
    52  C   -0.024552
    53  C    0.027008
    54  C   -0.177430
    55  C    0.017192
    56  C    0.007142
    57  C   -0.056589
    58  C   -0.014221
    59  C   -0.182408
    60  C    0.015588
    61  C    0.008644
    62  C   -0.056899
    63  C   -0.016335
    64  C   -0.222410
    65  C   -0.011003
    66  C   -0.000319
    67  H   -0.006318
    68  H    0.031466
    69  H   -0.000431
    70  H    0.055361
    71  H    0.028706
    72  H    0.035864
    73  H    0.069963
    74  H    0.041396
    75  H    0.018336
    76  H    0.036179
    77  H    0.062690
    78  H    0.057832
    79  H    0.053678
    80  H    0.037142
    81  H    0.060728
    82  H    0.054537
    83  H    0.051941
    84  H    0.061453
    85  H    0.034579
    86  H    0.043080
    87  H    0.049825
    88  H    0.032465
    89  H    0.042992
    90  H    0.046598
    91  H    0.031985
    92  H    0.039284
    93  H    0.049339
    94  H    0.029978
    95  H    0.039304
    96  H    0.036974
    97  H    0.057107
    98  H    0.064981
    99  H    0.058835
   100  H    0.061909
   101  H    0.068322
   102  H    0.029843
   103  H    0.030928
   104  H    0.008642
   105  H    0.035871
   106  H    0.062609
   107  H    0.052718
   108  H    0.031889
   109  H    0.009557
   110  H    0.027062
   111  H    0.030468
   112  H    0.002560
   113  H    0.019095
   114  H    0.012569
   115  H    0.028997
   116  H    0.029945
   117  H    0.022571
   118  H    0.025904
   119  H    0.008423
   120  H    0.023211
   121  H    0.030278
   122  H    0.017159
   123  H    0.010250
   124  H    0.027305
   125  H    0.027230
   126  H    0.031555
   127  H    0.019850
   128  H    0.021880
   129  H    0.024700
   130  H    0.023018
   131  H    0.028223
   132  H    0.005623
   133  H    0.020876
   134  H    0.024736
   135  H    0.028800
   136  H    0.027145
   137  H    0.023488
   138  H    0.039993
   139  H    0.032416
   140  H    0.032909
 Sum of Mulliken charges =  -0.00000

 Dipole moment (field-independent basis, Debye):
    X=              5.0268    Y=              6.0146    Z=             -4.5222  Tot=              9.0495
 Quadrupole moment (field-independent basis, Debye-Ang):
   XX=           -371.2821   YY=           -426.1690   ZZ=           -403.3054
   XY=            -28.0800   XZ=              5.4703   YZ=              5.6605

 Normal termination of Gaussian 16 at Wed Apr 27 15:57:41 2022.
