 Gaussian 16, Revision A.03,
 Gaussian 16:  ES64L-G16RevA.03 25-Dec-2016

 --------------------
 #p ZINDO=(nstates=5)
 --------------------

 -----------------------------
 step_1201_chromophore_9 ZINDO
 -----------------------------
 Symbolic Z-matrix:
 Charge =  0 Multiplicity = 1

                         Standard orientation:
 ---------------------------------------------------------------------
 Center     Atomic      Atomic             Coordinates (Angstroms)
 Number     Number       Type             X           Y           Z
 ---------------------------------------------------------------------
      1         12           0       -4.842667    0.720599   -0.209303
      2          6           0       -3.737894   -2.524676    0.124193
      3          6           0       -1.548184    1.712304   -0.450794
      4          6           0       -5.926508    3.943349   -0.262756
      5          6           0       -8.115907   -0.292268    0.757108
      6          7           0       -2.905662   -0.331553   -0.104652
      7          6           0       -2.688301   -1.662772   -0.124129
      8          6           0       -1.261634   -2.016420   -0.310473
      9          6           0       -0.493281   -0.656133   -0.026612
     10          6           0       -1.730182    0.291808   -0.254937
     11          6           0        0.164248   -0.661230    1.382473
     12          6           0       -1.015249   -2.639298   -1.652957
     13          6           0       -0.130491   -3.859540   -1.785197
     14          6           0        1.097788   -3.783306   -0.839130
     15          8           0        1.254464   -4.242958    0.304728
     16          8           0        2.148963   -3.141156   -1.480740
     17          7           0       -3.867322    2.535974   -0.544837
     18          6           0       -2.520156    2.812713   -0.676175
     19          6           0       -2.318183    4.267127   -1.001211
     20          6           0       -3.563299    4.886101   -0.885514
     21          6           0       -4.544386    3.775000   -0.492518
     22          6           0       -0.898081    4.794511   -1.200297
     23          6           0       -3.921445    6.364317   -1.084114
     24          8           0       -5.046483    6.771814   -1.018591
     25          6           0       -2.837595    7.385231   -1.704192
     26          7           0       -6.738712    1.710455    0.441890
     27          6           0       -6.911479    2.995811    0.055849
     28          6           0       -8.381236    3.375332    0.235140
     29          6           0       -9.109021    2.044681    0.540877
     30          6           0       -7.981914    1.079524    0.532959
     31          6           0       -8.661409    4.615000    1.208199
     32          6           0      -10.426787    1.816895   -0.363944
     33          6           0      -10.157384    0.911498   -1.593793
     34          7           0       -5.780734   -1.012725    0.452399
     35          6           0       -7.126401   -1.287025    0.688441
     36          6           0       -7.255562   -2.712701    0.860081
     37          6           0       -5.978129   -3.240117    0.642356
     38          6           0       -5.113206   -2.187391    0.459080
     39          6           0       -8.584252   -3.384294    1.312917
     40          6           0       -5.235423   -4.439436    0.588164
     41          8           0       -5.528842   -5.638861    0.764890
     42          6           0       -3.681953   -4.001204    0.316258
     43          6           0       -2.976372   -4.411271    1.536986
     44          8           0       -2.794654   -3.746851    2.536292
     45          8           0       -2.353911   -5.636491    1.288744
     46          6           0       -1.286415   -6.108498    2.299379
     47          6           0        3.287680   -2.816359   -0.625633
     48          6           0        4.275393   -2.059784   -1.358662
     49          6           0        5.433680   -2.388221   -1.927097
     50          6           0        6.052084   -3.823236   -1.878915
     51          6           0        6.385486   -1.267727   -2.368191
     52          6           0        6.939031   -1.363472   -3.777745
     53          6           0        8.438111   -1.519047   -3.737176
     54          6           0        9.218131   -0.193374   -3.443994
     55          6           0       10.326032    0.179630   -4.406032
     56          6           0        9.812854   -0.242426   -1.965567
     57          6           0        9.574108    1.064261   -1.198247
     58          6           0       10.968241    1.715188   -0.836522
     59          6           0       10.866423    2.359000    0.495765
     60          6           0       11.880492    3.525470    0.653338
     61          6           0       11.061345    1.187020    1.620571
     62          6           0        9.743404    1.098243    2.484034
     63          6           0        9.882288    0.931079    4.011590
     64          6           0        9.536429    2.290471    4.804326
     65          6           0       10.343316    2.391298    6.122191
     66          6           0        7.974470    2.311922    5.063653
     67          1           0       -0.489183    1.979082   -0.427942
     68          1           0       -6.277246    4.965646   -0.424974
     69          1           0       -9.151710   -0.639230    0.729966
     70          1           0       -1.041096   -2.754340    0.460281
     71          1           0        0.237278   -0.435158   -0.803984
     72          1           0        1.219723   -0.889477    1.228951
     73          1           0       -0.256745   -1.471142    1.978198
     74          1           0        0.024380    0.324637    1.824074
     75          1           0       -0.492346   -1.955367   -2.321684
     76          1           0       -1.980337   -2.629341   -2.159377
     77          1           0        0.166283   -3.956689   -2.830071
     78          1           0       -0.860207   -4.629109   -1.533861
     79          1           0       -0.743335    5.187198   -2.205223
     80          1           0       -0.231944    3.939912   -1.082304
     81          1           0       -0.658947    5.571166   -0.473518
     82          1           0       -2.142752    7.639880   -0.903531
     83          1           0       -3.296725    8.326399   -2.005399
     84          1           0       -2.399690    6.993771   -2.622069
     85          1           0       -8.680144    3.664565   -0.773243
     86          1           0       -9.448922    2.070182    1.576767
     87          1           0       -7.774352    5.218302    1.398945
     88          1           0       -8.973484    4.216952    2.173526
     89          1           0       -9.444510    5.276019    0.836071
     90          1           0      -10.911232    2.755358   -0.632139
     91          1           0      -11.135208    1.175577    0.160835
     92          1           0      -10.852889    0.072097   -1.586451
     93          1           0       -9.134426    0.544508   -1.678205
     94          1           0      -10.278455    1.443279   -2.536895
     95          1           0       -9.260526   -3.524609    0.468891
     96          1           0       -9.140056   -2.775055    2.025373
     97          1           0       -8.426592   -4.366120    1.757987
     98          1           0       -3.239532   -4.491452   -0.551514
     99          1           0       -1.513030   -7.123560    2.628015
    100          1           0       -1.246607   -5.473701    3.184773
    101          1           0       -0.301858   -6.055121    1.834298
    102          1           0        3.794579   -3.708145   -0.255335
    103          1           0        2.909267   -2.169893    0.166108
    104          1           0        4.025457   -0.999035   -1.368428
    105          1           0        7.127633   -3.802368   -2.048821
    106          1           0        5.565865   -4.441943   -2.632673
    107          1           0        5.874157   -4.238365   -0.886152
    108          1           0        7.128989   -1.184664   -1.576085
    109          1           0        5.967517   -0.265133   -2.279846
    110          1           0        6.653760   -0.445800   -4.293275
    111          1           0        6.507007   -2.217197   -4.298981
    112          1           0        8.730964   -1.780027   -4.755104
    113          1           0        8.693166   -2.376765   -3.114284
    114          1           0        8.494869    0.621181   -3.491452
    115          1           0        9.966219    1.033810   -4.980351
    116          1           0       10.691723   -0.596645   -5.077886
    117          1           0       11.229929    0.489120   -3.881188
    118          1           0       10.874138   -0.492240   -1.946164
    119          1           0        9.267828   -0.944821   -1.335462
    120          1           0        9.027478    0.791748   -0.295415
    121          1           0        9.070002    1.877886   -1.718632
    122          1           0       11.281392    2.358296   -1.659199
    123          1           0       11.717844    0.925655   -0.784475
    124          1           0        9.852878    2.756957    0.549494
    125          1           0       12.719032    3.494981   -0.041694
    126          1           0       12.183381    3.627693    1.695280
    127          1           0       11.387557    4.442477    0.331650
    128          1           0       11.902330    1.362794    2.291621
    129          1           0       11.196713    0.191823    1.196625
    130          1           0        9.266850    0.161263    2.198814
    131          1           0        9.108547    1.952249    2.244217
    132          1           0       10.926120    0.674132    4.188568
    133          1           0        9.314942    0.113551    4.456660
    134          1           0        9.945930    3.089540    4.185724
    135          1           0        9.879309    2.936437    6.943800
    136          1           0       11.315780    2.846333    5.932353
    137          1           0       10.513853    1.379608    6.489055
    138          1           0        7.666666    3.333634    4.840589
    139          1           0        7.734375    2.066451    6.097891
    140          1           0        7.485218    1.552761    4.452909
 ---------------------------------------------------------------------

 SCF Done:  E(RZINDO/S) =  -473.948116145     A.U. after   19 cycles

 Excitation energies and oscillator strengths:

 Excited State   1:      Singlet-A      1.3232 eV  937.03 nm  f=0.5212  <S**2>=0.000
     175 ->178         0.15090
     176 ->177         0.67219
 This state for optimization and/or second-order correction.
 Total Energy, E(CIS/TDA) =  -473.899490862
 Copying the excited state density for this state as the 1-particle RhoCI density.

 Excited State   2:      Singlet-A      1.8930 eV  654.95 nm  f=0.0572  <S**2>=0.000
     175 ->177         0.55308
     176 ->178        -0.39313

 Excited State   3:      Singlet-A      2.9126 eV  425.68 nm  f=0.6137  <S**2>=0.000
     167 ->177         0.13524
     167 ->179        -0.20452
     168 ->177         0.12415
     168 ->179        -0.14046
     175 ->177         0.30442
     176 ->178         0.46051

 Excited State   4:      Singlet-A      2.9282 eV  423.42 nm  f=0.3110  <S**2>=0.000
     166 ->179        -0.10731
     167 ->177         0.20590
     167 ->178        -0.11858
     167 ->179        -0.28111
     167 ->181         0.11619
     167 ->184         0.11859
     168 ->177         0.15228
     168 ->179        -0.22685
     175 ->177        -0.21190
     176 ->178        -0.31746

 Excited State   5:      Singlet-A      3.0048 eV  412.61 nm  f=0.1429  <S**2>=0.000
     171 ->181        -0.13247
     176 ->179         0.52926
     176 ->180        -0.16165
     176 ->181         0.27602

 The electronic state is 1-A.
 Alpha  occ. eigenvalues --   -1.84758  -1.80683  -1.78359  -1.73238  -1.70325
 Alpha  occ. eigenvalues --   -1.68594  -1.66608  -1.60949  -1.60203  -1.54629
 Alpha  occ. eigenvalues --   -1.54474  -1.51484  -1.48076  -1.46481  -1.45136
 Alpha  occ. eigenvalues --   -1.43785  -1.41342  -1.38839  -1.37838  -1.37622
 Alpha  occ. eigenvalues --   -1.35614  -1.32983  -1.32058  -1.30170  -1.29065
 Alpha  occ. eigenvalues --   -1.27591  -1.24543  -1.21613  -1.20665  -1.18509
 Alpha  occ. eigenvalues --   -1.17007  -1.15830  -1.15484  -1.14736  -1.13363
 Alpha  occ. eigenvalues --   -1.12046  -1.11454  -1.10024  -1.04422  -1.03335
 Alpha  occ. eigenvalues --   -1.02158  -1.01611  -0.98271  -0.97512  -0.97134
 Alpha  occ. eigenvalues --   -0.96841  -0.94879  -0.93770  -0.92877  -0.91691
 Alpha  occ. eigenvalues --   -0.91297  -0.89521  -0.88792  -0.88264  -0.86870
 Alpha  occ. eigenvalues --   -0.85680  -0.84714  -0.83403  -0.81775  -0.80398
 Alpha  occ. eigenvalues --   -0.80139  -0.79418  -0.77262  -0.76501  -0.76297
 Alpha  occ. eigenvalues --   -0.75268  -0.74767  -0.74189  -0.73723  -0.73650
 Alpha  occ. eigenvalues --   -0.73125  -0.72678  -0.71825  -0.71637  -0.70561
 Alpha  occ. eigenvalues --   -0.69409  -0.68828  -0.68646  -0.68233  -0.67830
 Alpha  occ. eigenvalues --   -0.67516  -0.67156  -0.66320  -0.65580  -0.65198
 Alpha  occ. eigenvalues --   -0.64938  -0.64268  -0.63849  -0.63415  -0.63210
 Alpha  occ. eigenvalues --   -0.62912  -0.62663  -0.62573  -0.62057  -0.61478
 Alpha  occ. eigenvalues --   -0.61369  -0.60464  -0.60439  -0.59883  -0.59871
 Alpha  occ. eigenvalues --   -0.59765  -0.59436  -0.59183  -0.58842  -0.58577
 Alpha  occ. eigenvalues --   -0.58360  -0.58220  -0.57487  -0.57143  -0.56610
 Alpha  occ. eigenvalues --   -0.56078  -0.55915  -0.55421  -0.55378  -0.55187
 Alpha  occ. eigenvalues --   -0.54504  -0.54221  -0.53857  -0.53352  -0.53039
 Alpha  occ. eigenvalues --   -0.52548  -0.52452  -0.51878  -0.51846  -0.51407
 Alpha  occ. eigenvalues --   -0.51158  -0.50902  -0.50771  -0.50500  -0.50161
 Alpha  occ. eigenvalues --   -0.49857  -0.49594  -0.49381  -0.49087  -0.48890
 Alpha  occ. eigenvalues --   -0.48730  -0.48344  -0.47925  -0.47905  -0.47833
 Alpha  occ. eigenvalues --   -0.47593  -0.47407  -0.46948  -0.46737  -0.46489
 Alpha  occ. eigenvalues --   -0.46238  -0.46163  -0.45974  -0.45612  -0.45497
 Alpha  occ. eigenvalues --   -0.45176  -0.44970  -0.44223  -0.44085  -0.43867
 Alpha  occ. eigenvalues --   -0.43566  -0.43288  -0.42717  -0.42539  -0.42328
 Alpha  occ. eigenvalues --   -0.42226  -0.41140  -0.40493  -0.39674  -0.38169
 Alpha  occ. eigenvalues --   -0.37356  -0.37024  -0.36655  -0.35260  -0.34109
 Alpha  occ. eigenvalues --   -0.33586  -0.33484  -0.32190  -0.31346  -0.26514
 Alpha  occ. eigenvalues --   -0.21774
 Alpha virt. eigenvalues --   -0.08238  -0.02061  -0.00978   0.00908   0.01160
 Alpha virt. eigenvalues --    0.01829   0.02903   0.03858   0.04288   0.04497
 Alpha virt. eigenvalues --    0.05392   0.06386   0.06741   0.07691   0.08021

 Mulliken charges:
               1
     1  Mg   0.434663
     2  C   -0.044687
     3  C   -0.119358
     4  C   -0.072308
     5  C   -0.055547
     6  N   -0.272933
     7  C    0.111080
     8  C    0.010995
     9  C    0.000616
    10  C    0.171878
    11  C   -0.044507
    12  C   -0.021699
    13  C    0.016005
    14  C    0.468141
    15  O   -0.515921
    16  O   -0.273679
    17  N   -0.333548
    18  C    0.142891
    19  C    0.031898
    20  C   -0.020610
    21  C    0.143887
    22  C   -0.039057
    23  C    0.322099
    24  O   -0.482884
    25  C   -0.035131
    26  N   -0.275638
    27  C    0.183724
    28  C    0.002716
    29  C    0.007131
    30  C    0.089179
    31  C   -0.051439
    32  C   -0.033651
    33  C   -0.059902
    34  N   -0.323862
    35  C    0.059395
    36  C   -0.000334
    37  C   -0.042364
    38  C    0.103721
    39  C   -0.042608
    40  C    0.323639
    41  O   -0.544541
    42  C    0.052453
    43  C    0.498463
    44  O   -0.524723
    45  O   -0.287124
    46  C    0.068500
    47  C    0.115297
    48  C   -0.077777
    49  C   -0.010415
    50  C   -0.045044
    51  C   -0.023312
    52  C   -0.023146
    53  C   -0.030595
    54  C   -0.009824
    55  C   -0.053213
    56  C   -0.043184
    57  C   -0.047948
    58  C   -0.035344
    59  C   -0.010010
    60  C   -0.061667
    61  C   -0.042185
    62  C   -0.043690
    63  C   -0.040730
    64  C   -0.021413
    65  C   -0.058750
    66  C   -0.055700
    67  H    0.018828
    68  H    0.047486
    69  H    0.022553
    70  H    0.042354
    71  H    0.028838
    72  H    0.022092
    73  H    0.041957
    74  H    0.026280
    75  H    0.004703
    76  H    0.027801
    77  H    0.040814
    78  H    0.043475
    79  H    0.033636
    80  H    0.028754
    81  H    0.035557
    82  H    0.036668
    83  H    0.035732
    84  H    0.037855
    85  H    0.025489
    86  H    0.028355
    87  H    0.028313
    88  H    0.021117
    89  H    0.024849
    90  H    0.030015
    91  H    0.019950
    92  H    0.020954
    93  H    0.026342
    94  H    0.010232
    95  H    0.023720
    96  H    0.021915
    97  H    0.030672
    98  H    0.049202
    99  H    0.040858
   100  H    0.049692
   101  H    0.043124
   102  H    0.050607
   103  H    0.044488
   104  H    0.012662
   105  H    0.023891
   106  H    0.032467
   107  H    0.027768
   108  H    0.027049
   109  H    0.009960
   110  H    0.019652
   111  H    0.018631
   112  H    0.001400
   113  H    0.026684
   114  H    0.022311
   115  H    0.014773
   116  H    0.021485
   117  H    0.015527
   118  H    0.029120
   119  H    0.012811
   120  H    0.020927
   121  H    0.023314
   122  H    0.014934
   123  H    0.014847
   124  H    0.025651
   125  H    0.023111
   126  H    0.021965
   127  H    0.009965
   128  H    0.024830
   129  H    0.024087
   130  H    0.011650
   131  H    0.024826
   132  H    0.010132
   133  H    0.023385
   134  H    0.025166
   135  H    0.018806
   136  H    0.013740
   137  H    0.014933
   138  H    0.019958
   139  H    0.023138
   140  H    0.022799
 Sum of Mulliken charges =  -0.00000

 Dipole moment (field-independent basis, Debye):
    X=              7.2770    Y=              9.6889    Z=             -7.2272  Tot=             14.1089
 N-N= 4.382457869466D+03 E-N= 0.000000000000D+00  KE=-9.439117835062D+03
 Leave Link  601 at Wed Apr 27 16:13:11 2022, MaxMem=  6710886400 cpu:               0.7 elap:               0.0
 (Enter /sw/apps/gaussian-16.0/g16/l9999.exe)
 1\1\GINC-BP1-COMPUTE175\SP\RZINDO CIS\STO-3G\C55H74Mg1N4O6\OF15641\27-
 Apr-2022\0\\#p ZINDO=(nstates=5)\\step_1201_chromophore_9 ZINDO\\0,1\M
 g,0,35.866,1.563,30.446\C,0,33.453,2.253,32.805\C,0,38.24,1.87,32.929\
 C,0,38.258,1.153,28.064\C,0,33.456,1.973,27.858\N,0,35.793,2.068,32.59
 3\C,0,34.703,2.155,33.383\C,0,35.035,2.247,34.824\C,0,36.584,2.596,34.
 835\C,0,36.883,2.101,33.37\C,0,36.823,4.099,35.154\C,0,34.639,1.004,35
 .565\C,0,33.952,1.095,36.91\C,0,34.537,2.242,37.777\O,0,34.155,3.417,3

 Normal termination of Gaussian 16 at Wed Apr 27 16:13:11 2022.
