 Gaussian 16, Revision A.03,
 Gaussian 16:  ES64L-G16RevA.03 25-Dec-2016

 ------------------------------
 #p blyp/Def2SVP td=(nstates=5)
 ------------------------------

 ---------------------------------------------------
 step_1551_chromophore_21 TDDFT with blyp functional
 ---------------------------------------------------
 Symbolic Z-matrix:
 Charge =  0 Multiplicity = 1

                         Standard orientation:
 ---------------------------------------------------------------------
 Center     Atomic      Atomic             Coordinates (Angstroms)
 Number     Number       Type             X           Y           Z
 ---------------------------------------------------------------------
      1         12           0       -5.277141    1.179449   -0.229812
      2          6           0       -4.975461   -2.367191   -0.234318
      3          6           0       -1.892841    1.443361   -0.016700
      4          6           0       -5.559679    4.496765    0.041569
      5          6           0       -8.706720    0.713985    0.276173
      6          7           0       -3.629170   -0.262658   -0.093446
      7          6           0       -3.722395   -1.663231   -0.276972
      8          6           0       -2.342438   -2.288404   -0.449564
      9          6           0       -1.317590   -1.124518   -0.180923
     10          6           0       -2.318040    0.127230   -0.093321
     11          6           0       -0.392612   -1.381558    1.004917
     12          6           0       -2.155518   -2.948680   -1.853945
     13          6           0       -0.931431   -3.991055   -1.962903
     14          6           0       -0.077822   -4.412520   -0.784064
     15          8           0       -0.311717   -5.345291   -0.054990
     16          8           0        0.961383   -3.538635   -0.568250
     17          7           0       -3.894646    2.775470   -0.276091
     18          6           0       -2.533317    2.656738   -0.138810
     19          6           0       -1.921294    3.921047   -0.323886
     20          6           0       -2.984112    4.883950   -0.236089
     21          6           0       -4.236836    4.034821   -0.111444
     22          6           0       -0.392553    4.085587   -0.430102
     23          6           0       -2.982301    6.476867   -0.251695
     24          8           0       -4.058110    7.137236   -0.162402
     25          6           0       -1.652910    7.099376   -0.312415
     26          7           0       -6.898326    2.417844    0.248650
     27          6           0       -6.742734    3.749229    0.179146
     28          6           0       -8.126115    4.391928    0.463108
     29          6           0       -9.143779    3.232309    0.352372
     30          6           0       -8.197299    2.034475    0.155640
     31          6           0       -8.210226    5.349449    1.659268
     32          6           0      -10.250788    3.456208   -0.705890
     33          6           0      -11.694380    3.724356   -0.293301
     34          7           0       -6.626241   -0.431923    0.085980
     35          6           0       -8.020195   -0.477611    0.198228
     36          6           0       -8.491882   -1.863194    0.301756
     37          6           0       -7.299249   -2.640659    0.084110
     38          6           0       -6.241817   -1.747348    0.011980
     39          6           0       -9.919313   -2.329737    0.348511
     40          6           0       -6.835708   -3.972538   -0.068724
     41          8           0       -7.442566   -5.061674   -0.023394
     42          6           0       -5.255119   -3.898199   -0.225462
     43          6           0       -4.581035   -4.673120    0.869302
     44          8           0       -4.621114   -4.464124    2.074733
     45          8           0       -3.904234   -5.785510    0.275681
     46          6           0       -3.141489   -6.670692    1.042537
     47          6           0        1.880574   -3.925045    0.542125
     48          6           0        3.134580   -3.210424    0.113695
     49          6           0        4.125076   -2.718492    0.891794
     50          6           0        4.397536   -2.935307    2.384594
     51          6           0        5.045698   -1.708870    0.276255
     52          6           0        5.756218   -2.164463   -0.949851
     53          6           0        7.270362   -2.205002   -0.800143
     54          6           0        7.930155   -0.932746   -1.239289
     55          6           0        8.368681   -0.976795   -2.691466
     56          6           0        9.089751   -0.507522   -0.322603
     57          6           0        9.746534    0.839706   -0.639716
     58          6           0       11.051801    0.694051   -1.471788
     59          6           0       12.219589    1.517027   -0.778933
     60          6           0       13.148478    2.160808   -1.861576
     61          6           0       13.092973    0.548704    0.076278
     62          6           0       13.847229    1.281410    1.250905
     63          6           0       15.429719    0.981679    1.353946
     64          6           0       16.335462    2.204265    1.126932
     65          6           0       17.671980    1.585846    0.665048
     66          6           0       16.395904    2.963855    2.504391
     67          1           0       -0.801830    1.406040   -0.031847
     68          1           0       -5.717119    5.528799    0.359147
     69          1           0       -9.787704    0.585443    0.362221
     70          1           0       -2.322112   -3.040048    0.339637
     71          1           0       -0.713829   -0.966883   -1.074550
     72          1           0       -0.657817   -0.670585    1.787586
     73          1           0        0.666755   -1.371851    0.752672
     74          1           0       -0.569202   -2.393710    1.369147
     75          1           0       -2.002326   -2.153196   -2.582717
     76          1           0       -3.087584   -3.452632   -2.111103
     77          1           0       -0.295907   -3.502090   -2.701147
     78          1           0       -1.379108   -4.886679   -2.393272
     79          1           0        0.097656    3.258673    0.083473
     80          1           0       -0.075003    5.024385    0.024830
     81          1           0       -0.007395    4.152344   -1.447750
     82          1           0       -1.249391    6.565957   -1.173139
     83          1           0       -1.078918    6.976006    0.606072
     84          1           0       -1.711317    8.146693   -0.608791
     85          1           0       -8.244536    5.056538   -0.392905
     86          1           0       -9.685711    3.054285    1.281405
     87          1           0       -7.444150    5.372457    2.434678
     88          1           0       -9.186326    5.319453    2.141818
     89          1           0       -8.193701    6.361188    1.253241
     90          1           0      -10.201209    2.528268   -1.275538
     91          1           0      -10.004432    4.268231   -1.390572
     92          1           0      -12.366294    3.016899   -0.779969
     93          1           0      -12.025164    4.751072   -0.444825
     94          1           0      -11.773076    3.631145    0.789834
     95          1           0      -10.446562   -1.807641    1.146396
     96          1           0       -9.826444   -3.353591    0.709105
     97          1           0      -10.368206   -2.373050   -0.644119
     98          1           0       -5.059741   -4.318091   -1.212052
     99          1           0       -3.922037   -7.305667    1.461951
    100          1           0       -2.403531   -6.263517    1.734547
    101          1           0       -2.642904   -7.328233    0.329969
    102          1           0        2.189490   -4.962515    0.414564
    103          1           0        1.462218   -3.681170    1.518704
    104          1           0        3.110130   -2.877604   -0.923384
    105          1           0        5.259218   -3.574472    2.573151
    106          1           0        3.605579   -3.446567    2.932174
    107          1           0        4.532987   -1.975646    2.883144
    108          1           0        5.812589   -1.374942    0.975654
    109          1           0        4.502580   -0.796116    0.033296
    110          1           0        5.461660   -1.481644   -1.746677
    111          1           0        5.447615   -3.155591   -1.282831
    112          1           0        7.487590   -3.099590   -1.383729
    113          1           0        7.589496   -2.407975    0.221956
    114          1           0        7.227815   -0.111243   -1.100276
    115          1           0        7.803842   -1.706735   -3.271527
    116          1           0        9.408026   -1.220876   -2.912713
    117          1           0        8.199475    0.015377   -3.109285
    118          1           0        9.852258   -1.285493   -0.352437
    119          1           0        8.778686   -0.490174    0.721926
    120          1           0        9.805883    1.488509    0.234345
    121          1           0        9.026089    1.341936   -1.286005
    122          1           0       10.726273    1.055794   -2.447667
    123          1           0       11.302150   -0.358865   -1.599851
    124          1           0       11.854748    2.251422   -0.060608
    125          1           0       13.059416    1.740783   -2.863933
    126          1           0       14.194569    2.135759   -1.557352
    127          1           0       12.794466    3.179765   -2.012593
    128          1           0       13.872638    0.109789   -0.546847
    129          1           0       12.473243   -0.271079    0.439400
    130          1           0       13.325455    0.900541    2.129152
    131          1           0       13.631185    2.349736    1.273143
    132          1           0       15.603144    0.172560    0.643512
    133          1           0       15.571106    0.516420    2.328993
    134          1           0       15.855551    2.649710    0.256623
    135          1           0       17.711805    0.553703    1.013004
    136          1           0       18.479460    2.194313    1.074380
    137          1           0       17.802661    1.541625   -0.415891
    138          1           0       17.320713    2.792093    3.054264
    139          1           0       15.501827    2.755767    3.092223
    140          1           0       16.369937    4.015079    2.215527
 ---------------------------------------------------------------------

 SCF Done:  E(RB-LYP) =  -3007.37324152     A.U. after   22 cycles

 Excitation energies and oscillator strengths:

 Excited State   1:      Singlet-A      1.7665 eV  701.88 nm  f=0.2997  <S**2>=0.000
     245 -> 248        0.17273
     246 -> 247        0.68710
     246 <- 247       -0.15244
 This state for optimization and/or second-order correction.
 Total Energy, E(TD-HF/TD-DFT) =  -3007.30832508
 Copying the excited state density for this state as the 1-particle RhoCI density.

 Excited State   2:      Singlet-A      1.8885 eV  656.54 nm  f=0.0100  <S**2>=0.000
     244 -> 247        0.69040
     245 -> 247        0.12001

 Excited State   3:      Singlet-A      1.9707 eV  629.14 nm  f=0.0677  <S**2>=0.000
     244 -> 247       -0.12812
     245 -> 247        0.63256
     246 -> 248       -0.21890
     246 -> 249        0.11764

 Excited State   4:      Singlet-A      2.0580 eV  602.44 nm  f=0.0008  <S**2>=0.000
     243 -> 247        0.70263

 Excited State   5:      Singlet-A      2.2689 eV  546.45 nm  f=0.0002  <S**2>=0.000
     242 -> 247        0.70674

 The electronic state is 1-A.
 Alpha  occ. eigenvalues --  -46.27297 -18.82886 -18.80123 -18.77696 -18.76667
 Alpha  occ. eigenvalues --  -18.76197 -18.75395 -14.03629 -14.03108 -14.01147
 Alpha  occ. eigenvalues --  -14.00579 -10.04791 -10.03670 -10.00878  -9.99297
 Alpha  occ. eigenvalues --   -9.98806  -9.97156  -9.96782  -9.96531  -9.96297
 Alpha  occ. eigenvalues --   -9.96054  -9.95573  -9.95516  -9.95067  -9.94638
 Alpha  occ. eigenvalues --   -9.94495  -9.94429  -9.94298  -9.94250  -9.94235
 Alpha  occ. eigenvalues --   -9.94220  -9.94107  -9.93914  -9.93611  -9.93561
 Alpha  occ. eigenvalues --   -9.93357  -9.93293  -9.93158  -9.92950  -9.92747
 Alpha  occ. eigenvalues --   -9.92561  -9.92554  -9.92280  -9.92254  -9.92202
 Alpha  occ. eigenvalues --   -9.92194  -9.92083  -9.92021  -9.91985  -9.91852
 Alpha  occ. eigenvalues --   -9.91806  -9.91768  -9.91522  -9.91516  -9.91287
 Alpha  occ. eigenvalues --   -9.91143  -9.91093  -9.91053  -9.91053  -9.91006
 Alpha  occ. eigenvalues --   -9.90997  -9.90964  -9.90862  -9.90854  -9.90806
 Alpha  occ. eigenvalues --   -9.90794  -2.91882  -1.72311  -1.71742  -1.71610
 Alpha  occ. eigenvalues --   -0.98780  -0.95756  -0.90975  -0.89741  -0.89702
 Alpha  occ. eigenvalues --   -0.89250  -0.87008  -0.86216  -0.85011  -0.84166
 Alpha  occ. eigenvalues --   -0.74943  -0.74808  -0.73214  -0.72675  -0.72336
 Alpha  occ. eigenvalues --   -0.72099  -0.71847  -0.70933  -0.70599  -0.70206
 Alpha  occ. eigenvalues --   -0.69586  -0.69449  -0.68362  -0.67482  -0.67361
 Alpha  occ. eigenvalues --   -0.66640  -0.66483  -0.65471  -0.65028  -0.64466
 Alpha  occ. eigenvalues --   -0.63814  -0.62534  -0.62336  -0.61961  -0.61074
 Alpha  occ. eigenvalues --   -0.60503  -0.60425  -0.59824  -0.59732  -0.58679
 Alpha  occ. eigenvalues --   -0.58346  -0.57422  -0.56668  -0.56073  -0.54508
 Alpha  occ. eigenvalues --   -0.54375  -0.53852  -0.52521  -0.52383  -0.51353
 Alpha  occ. eigenvalues --   -0.51100  -0.50817  -0.50791  -0.50236  -0.50043
 Alpha  occ. eigenvalues --   -0.49947  -0.49461  -0.49085  -0.47599  -0.46655
 Alpha  occ. eigenvalues --   -0.46634  -0.45730  -0.45388  -0.44856  -0.44415
 Alpha  occ. eigenvalues --   -0.44054  -0.43659  -0.43126  -0.42957  -0.42131
 Alpha  occ. eigenvalues --   -0.41843  -0.41644  -0.41528  -0.41302  -0.40860
 Alpha  occ. eigenvalues --   -0.40797  -0.40604  -0.40498  -0.40249  -0.40050
 Alpha  occ. eigenvalues --   -0.39865  -0.39581  -0.39527  -0.39179  -0.39116
 Alpha  occ. eigenvalues --   -0.38939  -0.38712  -0.38622  -0.38510  -0.38345
 Alpha  occ. eigenvalues --   -0.38118  -0.37983  -0.37903  -0.37671  -0.37614
 Alpha  occ. eigenvalues --   -0.37385  -0.37145  -0.36871  -0.36784  -0.36571
 Alpha  occ. eigenvalues --   -0.36304  -0.35931  -0.35781  -0.35711  -0.35461
 Alpha  occ. eigenvalues --   -0.35409  -0.35273  -0.34977  -0.34903  -0.34784
 Alpha  occ. eigenvalues --   -0.34602  -0.34460  -0.34172  -0.34109  -0.34045
 Alpha  occ. eigenvalues --   -0.33815  -0.33684  -0.33611  -0.33208  -0.32999
 Alpha  occ. eigenvalues --   -0.32942  -0.32677  -0.32602  -0.32497  -0.32288
 Alpha  occ. eigenvalues --   -0.32088  -0.31911  -0.31886  -0.31823  -0.31631
 Alpha  occ. eigenvalues --   -0.31408  -0.31247  -0.31027  -0.30941  -0.30580
 Alpha  occ. eigenvalues --   -0.30538  -0.30344  -0.30254  -0.30133  -0.29864
 Alpha  occ. eigenvalues --   -0.29628  -0.29621  -0.28928  -0.28776  -0.28407
 Alpha  occ. eigenvalues --   -0.28344  -0.28148  -0.28047  -0.28038  -0.27787
 Alpha  occ. eigenvalues --   -0.27512  -0.27348  -0.27094  -0.26848  -0.26612
 Alpha  occ. eigenvalues --   -0.26531  -0.26509  -0.26399  -0.26090  -0.25350
 Alpha  occ. eigenvalues --   -0.25278  -0.24555  -0.24201  -0.24034  -0.23381
 Alpha  occ. eigenvalues --   -0.23116  -0.22761  -0.22054  -0.21357  -0.20594
 Alpha  occ. eigenvalues --   -0.20239  -0.20005  -0.19116  -0.18496  -0.17387
 Alpha  occ. eigenvalues --   -0.15802
 Alpha virt. eigenvalues --   -0.11668  -0.07214  -0.06524  -0.05141  -0.03974
 Alpha virt. eigenvalues --   -0.02833  -0.02735  -0.02509  -0.01863  -0.00005
 Alpha virt. eigenvalues --    0.01138   0.01721   0.02270   0.02646   0.02810

 Mulliken charges:
               1
     1  Mg   0.681812
     2  C   -0.046681
     3  C   -0.045215
     4  C   -0.043615
     5  C   -0.086965
     6  N   -0.236562
     7  C   -0.054029
     8  C    0.000574
     9  C    0.013772
    10  C   -0.046114
    11  C    0.143511
    12  C    0.107063
    13  C    0.157083
    14  C    0.065843
    15  O   -0.174361
    16  O   -0.297718
    17  N   -0.260935
    18  C    0.189349
    19  C   -0.124150
    20  C   -0.023329
    21  C    0.094894
    22  C    0.152683
    23  C   -0.035152
    24  O   -0.191224
    25  C    0.137544
    26  N   -0.239053
    27  C    0.019485
    28  C    0.039124
    29  C    0.018457
    30  C    0.062884
    31  C    0.125557
    32  C    0.084238
    33  C    0.071884
    34  N   -0.264539
    35  C    0.118408
    36  C   -0.177050
    37  C    0.117155
    38  C    0.089852
    39  C    0.174561
    40  C   -0.089661
    41  O   -0.156104
    42  C    0.088764
    43  C    0.148639
    44  O   -0.169384
    45  O   -0.299819
    46  C    0.235059
    47  C    0.328343
    48  C   -0.123609
    49  C   -0.138561
    50  C    0.133948
    51  C    0.154838
    52  C    0.049460
    53  C    0.136651
    54  C   -0.046186
    55  C    0.118150
    56  C    0.053682
    57  C    0.082182
    58  C    0.099219
    59  C   -0.067500
    60  C    0.106670
    61  C    0.074063
    62  C    0.053052
    63  C    0.049803
    64  C   -0.084025
    65  C    0.112938
    66  C    0.122596
    67  H   -0.074948
    68  H   -0.031302
    69  H   -0.060961
    70  H    0.005616
    71  H   -0.026402
    72  H   -0.008801
    73  H    0.001640
    74  H   -0.006646
    75  H   -0.021508
    76  H   -0.013665
    77  H   -0.013383
    78  H    0.002137
    79  H    0.001104
    80  H   -0.020300
    81  H    0.005583
    82  H    0.006429
    83  H    0.043005
    84  H   -0.007627
    85  H   -0.025017
    86  H   -0.024347
    87  H    0.003021
    88  H   -0.020992
    89  H   -0.015643
    90  H   -0.031227
    91  H   -0.023394
    92  H    0.001523
    93  H   -0.008154
    94  H   -0.024338
    95  H   -0.002423
    96  H    0.001585
    97  H    0.021285
    98  H    0.000172
    99  H   -0.007048
   100  H    0.019686
   101  H   -0.002140
   102  H    0.012315
   103  H    0.028077
   104  H   -0.020765
   105  H    0.005484
   106  H   -0.027943
   107  H    0.002292
   108  H   -0.046296
   109  H   -0.022951
   110  H   -0.038514
   111  H   -0.032491
   112  H   -0.045916
   113  H   -0.043344
   114  H   -0.046846
   115  H   -0.024261
   116  H   -0.013806
   117  H   -0.020842
   118  H   -0.037756
   119  H   -0.047713
   120  H   -0.031509
   121  H   -0.047287
   122  H   -0.034811
   123  H   -0.014858
   124  H   -0.025176
   125  H   -0.017824
   126  H   -0.009105
   127  H   -0.023555
   128  H   -0.035559
   129  H   -0.031568
   130  H   -0.039211
   131  H   -0.026192
   132  H   -0.036679
   133  H   -0.034319
   134  H   -0.026456
   135  H   -0.012467
   136  H   -0.024651
   137  H   -0.017761
   138  H   -0.006230
   139  H   -0.002397
   140  H   -0.015877
 Sum of Mulliken charges =  -0.00000

 Dipole moment (field-independent basis, Debye):
    X=              5.1796    Y=              3.6227    Z=             -2.4349  Tot=              6.7736
 Quadrupole moment (field-independent basis, Debye-Ang):
   XX=           -400.7386   YY=           -442.4127   ZZ=           -403.0071
   XY=            -30.4425   XZ=             14.0039   YZ=              8.6014

 Normal termination of Gaussian 16 at Thu Apr 28 12:48:12 2022.
