 Gaussian 16, Revision A.03,
 Gaussian 16:  ES64L-G16RevA.03 25-Dec-2016

 -----------------------------------
 #p cam-b3lyp/Def2SVP td=(nstates=5)
 -----------------------------------

 --------------------------------------------------------
 step_1551_chromophore_21 TDDFT with cam-b3lyp functional
 --------------------------------------------------------
 Symbolic Z-matrix:
 Charge =  0 Multiplicity = 1

                         Standard orientation:
 ---------------------------------------------------------------------
 Center     Atomic      Atomic             Coordinates (Angstroms)
 Number     Number       Type             X           Y           Z
 ---------------------------------------------------------------------
      1         12           0       -5.277141    1.179449   -0.229812
      2          6           0       -4.975461   -2.367191   -0.234318
      3          6           0       -1.892841    1.443361   -0.016700
      4          6           0       -5.559679    4.496765    0.041569
      5          6           0       -8.706720    0.713985    0.276173
      6          7           0       -3.629170   -0.262658   -0.093446
      7          6           0       -3.722395   -1.663231   -0.276972
      8          6           0       -2.342438   -2.288404   -0.449564
      9          6           0       -1.317590   -1.124518   -0.180923
     10          6           0       -2.318040    0.127230   -0.093321
     11          6           0       -0.392612   -1.381558    1.004917
     12          6           0       -2.155518   -2.948680   -1.853945
     13          6           0       -0.931431   -3.991055   -1.962903
     14          6           0       -0.077822   -4.412520   -0.784064
     15          8           0       -0.311717   -5.345291   -0.054990
     16          8           0        0.961383   -3.538635   -0.568250
     17          7           0       -3.894646    2.775470   -0.276091
     18          6           0       -2.533317    2.656738   -0.138810
     19          6           0       -1.921294    3.921047   -0.323886
     20          6           0       -2.984112    4.883950   -0.236089
     21          6           0       -4.236836    4.034821   -0.111444
     22          6           0       -0.392553    4.085587   -0.430102
     23          6           0       -2.982301    6.476867   -0.251695
     24          8           0       -4.058110    7.137236   -0.162402
     25          6           0       -1.652910    7.099376   -0.312415
     26          7           0       -6.898326    2.417844    0.248650
     27          6           0       -6.742734    3.749229    0.179146
     28          6           0       -8.126115    4.391928    0.463108
     29          6           0       -9.143779    3.232309    0.352372
     30          6           0       -8.197299    2.034475    0.155640
     31          6           0       -8.210226    5.349449    1.659268
     32          6           0      -10.250788    3.456208   -0.705890
     33          6           0      -11.694380    3.724356   -0.293301
     34          7           0       -6.626241   -0.431923    0.085980
     35          6           0       -8.020195   -0.477611    0.198228
     36          6           0       -8.491882   -1.863194    0.301756
     37          6           0       -7.299249   -2.640659    0.084110
     38          6           0       -6.241817   -1.747348    0.011980
     39          6           0       -9.919313   -2.329737    0.348511
     40          6           0       -6.835708   -3.972538   -0.068724
     41          8           0       -7.442566   -5.061674   -0.023394
     42          6           0       -5.255119   -3.898199   -0.225462
     43          6           0       -4.581035   -4.673120    0.869302
     44          8           0       -4.621114   -4.464124    2.074733
     45          8           0       -3.904234   -5.785510    0.275681
     46          6           0       -3.141489   -6.670692    1.042537
     47          6           0        1.880574   -3.925045    0.542125
     48          6           0        3.134580   -3.210424    0.113695
     49          6           0        4.125076   -2.718492    0.891794
     50          6           0        4.397536   -2.935307    2.384594
     51          6           0        5.045698   -1.708870    0.276255
     52          6           0        5.756218   -2.164463   -0.949851
     53          6           0        7.270362   -2.205002   -0.800143
     54          6           0        7.930155   -0.932746   -1.239289
     55          6           0        8.368681   -0.976795   -2.691466
     56          6           0        9.089751   -0.507522   -0.322603
     57          6           0        9.746534    0.839706   -0.639716
     58          6           0       11.051801    0.694051   -1.471788
     59          6           0       12.219589    1.517027   -0.778933
     60          6           0       13.148478    2.160808   -1.861576
     61          6           0       13.092973    0.548704    0.076278
     62          6           0       13.847229    1.281410    1.250905
     63          6           0       15.429719    0.981679    1.353946
     64          6           0       16.335462    2.204265    1.126932
     65          6           0       17.671980    1.585846    0.665048
     66          6           0       16.395904    2.963855    2.504391
     67          1           0       -0.801830    1.406040   -0.031847
     68          1           0       -5.717119    5.528799    0.359147
     69          1           0       -9.787704    0.585443    0.362221
     70          1           0       -2.322112   -3.040048    0.339637
     71          1           0       -0.713829   -0.966883   -1.074550
     72          1           0       -0.657817   -0.670585    1.787586
     73          1           0        0.666755   -1.371851    0.752672
     74          1           0       -0.569202   -2.393710    1.369147
     75          1           0       -2.002326   -2.153196   -2.582717
     76          1           0       -3.087584   -3.452632   -2.111103
     77          1           0       -0.295907   -3.502090   -2.701147
     78          1           0       -1.379108   -4.886679   -2.393272
     79          1           0        0.097656    3.258673    0.083473
     80          1           0       -0.075003    5.024385    0.024830
     81          1           0       -0.007395    4.152344   -1.447750
     82          1           0       -1.249391    6.565957   -1.173139
     83          1           0       -1.078918    6.976006    0.606072
     84          1           0       -1.711317    8.146693   -0.608791
     85          1           0       -8.244536    5.056538   -0.392905
     86          1           0       -9.685711    3.054285    1.281405
     87          1           0       -7.444150    5.372457    2.434678
     88          1           0       -9.186326    5.319453    2.141818
     89          1           0       -8.193701    6.361188    1.253241
     90          1           0      -10.201209    2.528268   -1.275538
     91          1           0      -10.004432    4.268231   -1.390572
     92          1           0      -12.366294    3.016899   -0.779969
     93          1           0      -12.025164    4.751072   -0.444825
     94          1           0      -11.773076    3.631145    0.789834
     95          1           0      -10.446562   -1.807641    1.146396
     96          1           0       -9.826444   -3.353591    0.709105
     97          1           0      -10.368206   -2.373050   -0.644119
     98          1           0       -5.059741   -4.318091   -1.212052
     99          1           0       -3.922037   -7.305667    1.461951
    100          1           0       -2.403531   -6.263517    1.734547
    101          1           0       -2.642904   -7.328233    0.329969
    102          1           0        2.189490   -4.962515    0.414564
    103          1           0        1.462218   -3.681170    1.518704
    104          1           0        3.110130   -2.877604   -0.923384
    105          1           0        5.259218   -3.574472    2.573151
    106          1           0        3.605579   -3.446567    2.932174
    107          1           0        4.532987   -1.975646    2.883144
    108          1           0        5.812589   -1.374942    0.975654
    109          1           0        4.502580   -0.796116    0.033296
    110          1           0        5.461660   -1.481644   -1.746677
    111          1           0        5.447615   -3.155591   -1.282831
    112          1           0        7.487590   -3.099590   -1.383729
    113          1           0        7.589496   -2.407975    0.221956
    114          1           0        7.227815   -0.111243   -1.100276
    115          1           0        7.803842   -1.706735   -3.271527
    116          1           0        9.408026   -1.220876   -2.912713
    117          1           0        8.199475    0.015377   -3.109285
    118          1           0        9.852258   -1.285493   -0.352437
    119          1           0        8.778686   -0.490174    0.721926
    120          1           0        9.805883    1.488509    0.234345
    121          1           0        9.026089    1.341936   -1.286005
    122          1           0       10.726273    1.055794   -2.447667
    123          1           0       11.302150   -0.358865   -1.599851
    124          1           0       11.854748    2.251422   -0.060608
    125          1           0       13.059416    1.740783   -2.863933
    126          1           0       14.194569    2.135759   -1.557352
    127          1           0       12.794466    3.179765   -2.012593
    128          1           0       13.872638    0.109789   -0.546847
    129          1           0       12.473243   -0.271079    0.439400
    130          1           0       13.325455    0.900541    2.129152
    131          1           0       13.631185    2.349736    1.273143
    132          1           0       15.603144    0.172560    0.643512
    133          1           0       15.571106    0.516420    2.328993
    134          1           0       15.855551    2.649710    0.256623
    135          1           0       17.711805    0.553703    1.013004
    136          1           0       18.479460    2.194313    1.074380
    137          1           0       17.802661    1.541625   -0.415891
    138          1           0       17.320713    2.792093    3.054264
    139          1           0       15.501827    2.755767    3.092223
    140          1           0       16.369937    4.015079    2.215527
 ---------------------------------------------------------------------

 SCF Done:  E(RCAM-B3LYP) =  -3007.16116320     A.U. after   19 cycles

 Excitation energies and oscillator strengths:

 Excited State   1:      Singlet-A      1.6754 eV  740.04 nm  f=0.3905  <S**2>=0.000
     245 -> 248        0.17875
     246 -> 247        0.68586
     245 <- 248        0.10782
 This state for optimization and/or second-order correction.
 Total Energy, E(TD-HF/TD-DFT) =  -3007.09959417
 Copying the excited state density for this state as the 1-particle RhoCI density.

 Excited State   2:      Singlet-A      2.2123 eV  560.43 nm  f=0.0893  <S**2>=0.000
     245 -> 247        0.62900
     246 -> 248       -0.30735

 Excited State   3:      Singlet-A      3.3512 eV  369.96 nm  f=0.0132  <S**2>=0.000
     242 -> 247       -0.19193
     244 -> 247        0.63268
     246 -> 248        0.15035

 Excited State   4:      Singlet-A      3.4188 eV  362.65 nm  f=0.3095  <S**2>=0.000
     240 -> 247        0.13051
     241 -> 247        0.10356
     242 -> 247        0.41912
     245 -> 247        0.20316
     246 -> 248        0.48894

 Excited State   5:      Singlet-A      3.4537 eV  358.98 nm  f=0.0357  <S**2>=0.000
     241 -> 247        0.54011
     241 -> 249       -0.30449
     241 -> 250       -0.22332
     244 -> 247       -0.10515
     246 -> 248       -0.16552

 The electronic state is 1-A.
 Alpha  occ. eigenvalues --  -46.88820 -19.25787 -19.22910 -19.20698 -19.19837
 Alpha  occ. eigenvalues --  -19.19705 -19.18401 -14.42598 -14.41861 -14.39689
 Alpha  occ. eigenvalues --  -14.38850 -10.40050 -10.39285 -10.36497 -10.34569
 Alpha  occ. eigenvalues --  -10.32914 -10.31645 -10.31467 -10.30841 -10.30745
 Alpha  occ. eigenvalues --  -10.30699 -10.30057 -10.29278 -10.29226 -10.29023
 Alpha  occ. eigenvalues --  -10.28647 -10.28621 -10.28544 -10.28537 -10.28507
 Alpha  occ. eigenvalues --  -10.28406 -10.28257 -10.28194 -10.28180 -10.27774
 Alpha  occ. eigenvalues --  -10.27481 -10.27162 -10.27024 -10.26996 -10.26746
 Alpha  occ. eigenvalues --  -10.26662 -10.26522 -10.26100 -10.26074 -10.26008
 Alpha  occ. eigenvalues --  -10.25977 -10.25808 -10.25805 -10.25740 -10.25511
 Alpha  occ. eigenvalues --  -10.25478 -10.25318 -10.25195 -10.25141 -10.25050
 Alpha  occ. eigenvalues --  -10.24918 -10.24906 -10.24743 -10.24736 -10.24723
 Alpha  occ. eigenvalues --  -10.24716 -10.24689 -10.24507 -10.24506 -10.24499
 Alpha  occ. eigenvalues --  -10.24409  -3.17307  -1.92214  -1.91746  -1.91619
 Alpha  occ. eigenvalues --   -1.17259  -1.14220  -1.08831  -1.08280  -1.07911
 Alpha  occ. eigenvalues --   -1.07174  -1.04837  -1.03839  -1.02553  -1.01619
 Alpha  occ. eigenvalues --   -0.91979  -0.91776  -0.90043  -0.89453  -0.89126
 Alpha  occ. eigenvalues --   -0.88853  -0.88476  -0.87541  -0.87129  -0.87007
 Alpha  occ. eigenvalues --   -0.85965  -0.85805  -0.84694  -0.83771  -0.83566
 Alpha  occ. eigenvalues --   -0.82891  -0.82517  -0.81433  -0.80861  -0.80229
 Alpha  occ. eigenvalues --   -0.79643  -0.78216  -0.78113  -0.77474  -0.76486
 Alpha  occ. eigenvalues --   -0.75878  -0.75754  -0.75179  -0.74980  -0.73914
 Alpha  occ. eigenvalues --   -0.73426  -0.72370  -0.71540  -0.70907  -0.69077
 Alpha  occ. eigenvalues --   -0.69019  -0.68480  -0.66973  -0.66858  -0.65520
 Alpha  occ. eigenvalues --   -0.65192  -0.65014  -0.64858  -0.64124  -0.64056
 Alpha  occ. eigenvalues --   -0.63850  -0.63468  -0.63057  -0.61263  -0.60424
 Alpha  occ. eigenvalues --   -0.60070  -0.59299  -0.58811  -0.58183  -0.57770
 Alpha  occ. eigenvalues --   -0.57525  -0.57041  -0.56365  -0.56263  -0.55246
 Alpha  occ. eigenvalues --   -0.54965  -0.54642  -0.54511  -0.54194  -0.53669
 Alpha  occ. eigenvalues --   -0.53564  -0.53480  -0.53250  -0.52980  -0.52770
 Alpha  occ. eigenvalues --   -0.52485  -0.52314  -0.52192  -0.52133  -0.51737
 Alpha  occ. eigenvalues --   -0.51617  -0.51362  -0.51064  -0.50985  -0.50708
 Alpha  occ. eigenvalues --   -0.50677  -0.50369  -0.50318  -0.50144  -0.49873
 Alpha  occ. eigenvalues --   -0.49781  -0.49372  -0.49290  -0.48979  -0.48860
 Alpha  occ. eigenvalues --   -0.48677  -0.48295  -0.48231  -0.47913  -0.47794
 Alpha  occ. eigenvalues --   -0.47452  -0.47350  -0.47101  -0.46814  -0.46625
 Alpha  occ. eigenvalues --   -0.46526  -0.46312  -0.45979  -0.45885  -0.45834
 Alpha  occ. eigenvalues --   -0.45681  -0.45595  -0.45186  -0.44920  -0.44636
 Alpha  occ. eigenvalues --   -0.44574  -0.44551  -0.44194  -0.44095  -0.43914
 Alpha  occ. eigenvalues --   -0.43728  -0.43624  -0.43449  -0.43271  -0.43219
 Alpha  occ. eigenvalues --   -0.43161  -0.42861  -0.42605  -0.42326  -0.41936
 Alpha  occ. eigenvalues --   -0.41919  -0.41701  -0.41589  -0.41455  -0.41404
 Alpha  occ. eigenvalues --   -0.41053  -0.40757  -0.40068  -0.39904  -0.39689
 Alpha  occ. eigenvalues --   -0.39398  -0.39370  -0.39124  -0.39074  -0.38949
 Alpha  occ. eigenvalues --   -0.38384  -0.38292  -0.38231  -0.37786  -0.37733
 Alpha  occ. eigenvalues --   -0.37596  -0.37271  -0.37184  -0.36805  -0.36208
 Alpha  occ. eigenvalues --   -0.35929  -0.35138  -0.34946  -0.34584  -0.34434
 Alpha  occ. eigenvalues --   -0.34221  -0.33840  -0.33353  -0.31767  -0.31094
 Alpha  occ. eigenvalues --   -0.30491  -0.30129  -0.29691  -0.29264  -0.24195
 Alpha  occ. eigenvalues --   -0.21015
 Alpha virt. eigenvalues --   -0.08761  -0.01991  -0.00194   0.01771   0.02367
 Alpha virt. eigenvalues --    0.03781   0.04566   0.04830   0.05376   0.07008
 Alpha virt. eigenvalues --    0.07863   0.08384   0.08852   0.08900   0.09070

 Mulliken charges:
               1
     1  Mg   0.812807
     2  C   -0.068422
     3  C   -0.066274
     4  C   -0.059173
     5  C   -0.089067
     6  N   -0.305622
     7  C   -0.014293
     8  C   -0.052414
     9  C   -0.034615
    10  C   -0.018695
    11  C    0.086181
    12  C    0.065038
    13  C    0.087137
    14  C    0.140288
    15  O   -0.213574
    16  O   -0.360800
    17  N   -0.347900
    18  C    0.193080
    19  C   -0.129458
    20  C   -0.083723
    21  C    0.118248
    22  C    0.100332
    23  C    0.049174
    24  O   -0.229840
    25  C    0.050024
    26  N   -0.312079
    27  C    0.042612
    28  C   -0.018001
    29  C   -0.041163
    30  C    0.079961
    31  C    0.063689
    32  C    0.028938
    33  C    0.010557
    34  N   -0.350003
    35  C    0.115082
    36  C   -0.163667
    37  C    0.029899
    38  C    0.125570
    39  C    0.119675
    40  C    0.010213
    41  O   -0.196924
    42  C    0.013615
    43  C    0.236738
    44  O   -0.203645
    45  O   -0.363752
    46  C    0.191831
    47  C    0.291784
    48  C   -0.144560
    49  C   -0.161366
    50  C    0.075267
    51  C    0.097412
    52  C   -0.011648
    53  C    0.077530
    54  C   -0.102367
    55  C    0.056967
    56  C    0.008072
    57  C    0.023214
    58  C    0.046827
    59  C   -0.122717
    60  C    0.051286
    61  C    0.027887
    62  C   -0.001594
    63  C   -0.005984
    64  C   -0.142294
    65  C    0.053638
    66  C    0.061326
    67  H   -0.040363
    68  H    0.006327
    69  H   -0.026182
    70  H    0.034888
    71  H    0.008891
    72  H    0.018022
    73  H    0.024906
    74  H    0.014275
    75  H    0.008677
    76  H    0.014446
    77  H    0.019090
    78  H    0.034561
    79  H    0.028263
    80  H    0.007073
    81  H    0.034116
    82  H    0.032659
    83  H    0.070039
    84  H    0.029083
    85  H    0.010378
    86  H    0.010722
    87  H    0.028686
    88  H    0.004515
    89  H    0.008783
    90  H   -0.000501
    91  H    0.004964
    92  H    0.024976
    93  H    0.015289
    94  H   -0.001638
    95  H    0.022056
    96  H    0.029680
    97  H    0.046039
    98  H    0.044191
    99  H    0.016596
   100  H    0.040802
   101  H    0.021313
   102  H    0.043682
   103  H    0.051811
   104  H    0.013714
   105  H    0.029899
   106  H   -0.002274
   107  H    0.025975
   108  H   -0.016830
   109  H    0.007181
   110  H   -0.008808
   111  H   -0.000536
   112  H   -0.014129
   113  H   -0.013135
   114  H   -0.015652
   115  H    0.001402
   116  H    0.010398
   117  H    0.002890
   118  H   -0.011375
   119  H   -0.017716
   120  H   -0.001743
   121  H   -0.017743
   122  H   -0.005555
   123  H    0.010417
   124  H    0.004694
   125  H    0.007078
   126  H    0.009563
   127  H    0.001297
   128  H   -0.008192
   129  H   -0.004417
   130  H   -0.008885
   131  H   -0.000128
   132  H   -0.007557
   133  H   -0.004550
   134  H    0.002324
   135  H    0.011216
   136  H   -0.000176
   137  H    0.007141
   138  H    0.018287
   139  H    0.019896
   140  H    0.008650
 Sum of Mulliken charges =  -0.00000

 Dipole moment (field-independent basis, Debye):
    X=              5.9571    Y=              4.3834    Z=             -2.6476  Tot=              7.8556
 Quadrupole moment (field-independent basis, Debye-Ang):
   XX=           -404.8227   YY=           -439.2712   ZZ=           -402.8385
   XY=            -32.9865   XZ=             14.6385   YZ=              8.9743

 Normal termination of Gaussian 16 at Thu Apr 28 11:52:45 2022.
