 Gaussian 16, Revision A.03,
 Gaussian 16:  ES64L-G16RevA.03 25-Dec-2016

 ---------------------------------
 #p PBE1PBE/Def2SVP td=(nstates=5)
 ---------------------------------

 ------------------------------------------------------
 step_1551_chromophore_21 TDDFT with PBE1PBE functional
 ------------------------------------------------------
 Symbolic Z-matrix:
 Charge =  0 Multiplicity = 1

                         Standard orientation:
 ---------------------------------------------------------------------
 Center     Atomic      Atomic             Coordinates (Angstroms)
 Number     Number       Type             X           Y           Z
 ---------------------------------------------------------------------
      1         12           0       -5.277141    1.179449   -0.229812
      2          6           0       -4.975461   -2.367191   -0.234318
      3          6           0       -1.892841    1.443361   -0.016700
      4          6           0       -5.559679    4.496765    0.041569
      5          6           0       -8.706720    0.713985    0.276173
      6          7           0       -3.629170   -0.262658   -0.093446
      7          6           0       -3.722395   -1.663231   -0.276972
      8          6           0       -2.342438   -2.288404   -0.449564
      9          6           0       -1.317590   -1.124518   -0.180923
     10          6           0       -2.318040    0.127230   -0.093321
     11          6           0       -0.392612   -1.381558    1.004917
     12          6           0       -2.155518   -2.948680   -1.853945
     13          6           0       -0.931431   -3.991055   -1.962903
     14          6           0       -0.077822   -4.412520   -0.784064
     15          8           0       -0.311717   -5.345291   -0.054990
     16          8           0        0.961383   -3.538635   -0.568250
     17          7           0       -3.894646    2.775470   -0.276091
     18          6           0       -2.533317    2.656738   -0.138810
     19          6           0       -1.921294    3.921047   -0.323886
     20          6           0       -2.984112    4.883950   -0.236089
     21          6           0       -4.236836    4.034821   -0.111444
     22          6           0       -0.392553    4.085587   -0.430102
     23          6           0       -2.982301    6.476867   -0.251695
     24          8           0       -4.058110    7.137236   -0.162402
     25          6           0       -1.652910    7.099376   -0.312415
     26          7           0       -6.898326    2.417844    0.248650
     27          6           0       -6.742734    3.749229    0.179146
     28          6           0       -8.126115    4.391928    0.463108
     29          6           0       -9.143779    3.232309    0.352372
     30          6           0       -8.197299    2.034475    0.155640
     31          6           0       -8.210226    5.349449    1.659268
     32          6           0      -10.250788    3.456208   -0.705890
     33          6           0      -11.694380    3.724356   -0.293301
     34          7           0       -6.626241   -0.431923    0.085980
     35          6           0       -8.020195   -0.477611    0.198228
     36          6           0       -8.491882   -1.863194    0.301756
     37          6           0       -7.299249   -2.640659    0.084110
     38          6           0       -6.241817   -1.747348    0.011980
     39          6           0       -9.919313   -2.329737    0.348511
     40          6           0       -6.835708   -3.972538   -0.068724
     41          8           0       -7.442566   -5.061674   -0.023394
     42          6           0       -5.255119   -3.898199   -0.225462
     43          6           0       -4.581035   -4.673120    0.869302
     44          8           0       -4.621114   -4.464124    2.074733
     45          8           0       -3.904234   -5.785510    0.275681
     46          6           0       -3.141489   -6.670692    1.042537
     47          6           0        1.880574   -3.925045    0.542125
     48          6           0        3.134580   -3.210424    0.113695
     49          6           0        4.125076   -2.718492    0.891794
     50          6           0        4.397536   -2.935307    2.384594
     51          6           0        5.045698   -1.708870    0.276255
     52          6           0        5.756218   -2.164463   -0.949851
     53          6           0        7.270362   -2.205002   -0.800143
     54          6           0        7.930155   -0.932746   -1.239289
     55          6           0        8.368681   -0.976795   -2.691466
     56          6           0        9.089751   -0.507522   -0.322603
     57          6           0        9.746534    0.839706   -0.639716
     58          6           0       11.051801    0.694051   -1.471788
     59          6           0       12.219589    1.517027   -0.778933
     60          6           0       13.148478    2.160808   -1.861576
     61          6           0       13.092973    0.548704    0.076278
     62          6           0       13.847229    1.281410    1.250905
     63          6           0       15.429719    0.981679    1.353946
     64          6           0       16.335462    2.204265    1.126932
     65          6           0       17.671980    1.585846    0.665048
     66          6           0       16.395904    2.963855    2.504391
     67          1           0       -0.801830    1.406040   -0.031847
     68          1           0       -5.717119    5.528799    0.359147
     69          1           0       -9.787704    0.585443    0.362221
     70          1           0       -2.322112   -3.040048    0.339637
     71          1           0       -0.713829   -0.966883   -1.074550
     72          1           0       -0.657817   -0.670585    1.787586
     73          1           0        0.666755   -1.371851    0.752672
     74          1           0       -0.569202   -2.393710    1.369147
     75          1           0       -2.002326   -2.153196   -2.582717
     76          1           0       -3.087584   -3.452632   -2.111103
     77          1           0       -0.295907   -3.502090   -2.701147
     78          1           0       -1.379108   -4.886679   -2.393272
     79          1           0        0.097656    3.258673    0.083473
     80          1           0       -0.075003    5.024385    0.024830
     81          1           0       -0.007395    4.152344   -1.447750
     82          1           0       -1.249391    6.565957   -1.173139
     83          1           0       -1.078918    6.976006    0.606072
     84          1           0       -1.711317    8.146693   -0.608791
     85          1           0       -8.244536    5.056538   -0.392905
     86          1           0       -9.685711    3.054285    1.281405
     87          1           0       -7.444150    5.372457    2.434678
     88          1           0       -9.186326    5.319453    2.141818
     89          1           0       -8.193701    6.361188    1.253241
     90          1           0      -10.201209    2.528268   -1.275538
     91          1           0      -10.004432    4.268231   -1.390572
     92          1           0      -12.366294    3.016899   -0.779969
     93          1           0      -12.025164    4.751072   -0.444825
     94          1           0      -11.773076    3.631145    0.789834
     95          1           0      -10.446562   -1.807641    1.146396
     96          1           0       -9.826444   -3.353591    0.709105
     97          1           0      -10.368206   -2.373050   -0.644119
     98          1           0       -5.059741   -4.318091   -1.212052
     99          1           0       -3.922037   -7.305667    1.461951
    100          1           0       -2.403531   -6.263517    1.734547
    101          1           0       -2.642904   -7.328233    0.329969
    102          1           0        2.189490   -4.962515    0.414564
    103          1           0        1.462218   -3.681170    1.518704
    104          1           0        3.110130   -2.877604   -0.923384
    105          1           0        5.259218   -3.574472    2.573151
    106          1           0        3.605579   -3.446567    2.932174
    107          1           0        4.532987   -1.975646    2.883144
    108          1           0        5.812589   -1.374942    0.975654
    109          1           0        4.502580   -0.796116    0.033296
    110          1           0        5.461660   -1.481644   -1.746677
    111          1           0        5.447615   -3.155591   -1.282831
    112          1           0        7.487590   -3.099590   -1.383729
    113          1           0        7.589496   -2.407975    0.221956
    114          1           0        7.227815   -0.111243   -1.100276
    115          1           0        7.803842   -1.706735   -3.271527
    116          1           0        9.408026   -1.220876   -2.912713
    117          1           0        8.199475    0.015377   -3.109285
    118          1           0        9.852258   -1.285493   -0.352437
    119          1           0        8.778686   -0.490174    0.721926
    120          1           0        9.805883    1.488509    0.234345
    121          1           0        9.026089    1.341936   -1.286005
    122          1           0       10.726273    1.055794   -2.447667
    123          1           0       11.302150   -0.358865   -1.599851
    124          1           0       11.854748    2.251422   -0.060608
    125          1           0       13.059416    1.740783   -2.863933
    126          1           0       14.194569    2.135759   -1.557352
    127          1           0       12.794466    3.179765   -2.012593
    128          1           0       13.872638    0.109789   -0.546847
    129          1           0       12.473243   -0.271079    0.439400
    130          1           0       13.325455    0.900541    2.129152
    131          1           0       13.631185    2.349736    1.273143
    132          1           0       15.603144    0.172560    0.643512
    133          1           0       15.571106    0.516420    2.328993
    134          1           0       15.855551    2.649710    0.256623
    135          1           0       17.711805    0.553703    1.013004
    136          1           0       18.479460    2.194313    1.074380
    137          1           0       17.802661    1.541625   -0.415891
    138          1           0       17.320713    2.792093    3.054264
    139          1           0       15.501827    2.755767    3.092223
    140          1           0       16.369937    4.015079    2.215527
 ---------------------------------------------------------------------

 SCF Done:  E(RPBE1PBE) =  -3005.34975298     A.U. after   15 cycles

 Excitation energies and oscillator strengths:

 Excited State   1:      Singlet-A      1.8222 eV  680.42 nm  f=0.3773  <S**2>=0.000
     245 -> 248        0.16920
     246 -> 247        0.69369
     246 <- 247       -0.11054
 This state for optimization and/or second-order correction.
 Total Energy, E(TD-HF/TD-DFT) =  -3005.28278954
 Copying the excited state density for this state as the 1-particle RhoCI density.

 Excited State   2:      Singlet-A      2.2064 eV  561.94 nm  f=0.0913  <S**2>=0.000
     245 -> 247        0.64437
     246 -> 248       -0.26917

 Excited State   3:      Singlet-A      2.9302 eV  423.12 nm  f=0.0001  <S**2>=0.000
     242 -> 247        0.49898
     242 -> 249       -0.16001
     243 -> 247        0.43980

 Excited State   4:      Singlet-A      3.0280 eV  409.46 nm  f=0.0002  <S**2>=0.000
     241 -> 247       -0.14494
     242 -> 247       -0.45068
     243 -> 247        0.50317

 Excited State   5:      Singlet-A      3.1406 eV  394.78 nm  f=0.0002  <S**2>=0.000
     239 -> 247       -0.14464
     240 -> 247        0.64346
     240 -> 248        0.10145
     240 -> 249        0.16174
     240 -> 250        0.11701

 The electronic state is 1-A.
 Alpha  occ. eigenvalues --  -46.92228 -19.26466 -19.23635 -19.20931 -19.20050
 Alpha  occ. eigenvalues --  -19.19777 -19.18786 -14.42113 -14.41411 -14.39244
 Alpha  occ. eigenvalues --  -14.38636 -10.37067 -10.36314 -10.33489 -10.31821
 Alpha  occ. eigenvalues --  -10.30321 -10.29517 -10.29076 -10.28652 -10.28484
 Alpha  occ. eigenvalues --  -10.28208 -10.27527 -10.26940 -10.26691 -10.26521
 Alpha  occ. eigenvalues --  -10.26482 -10.26421 -10.26289 -10.26283 -10.26194
 Alpha  occ. eigenvalues --  -10.26081 -10.26079 -10.25982 -10.25726 -10.25132
 Alpha  occ. eigenvalues --  -10.25067 -10.25054 -10.24840 -10.24285 -10.24209
 Alpha  occ. eigenvalues --  -10.24140 -10.24033 -10.23820 -10.23720 -10.23647
 Alpha  occ. eigenvalues --  -10.23564 -10.23487 -10.23290 -10.23216 -10.23174
 Alpha  occ. eigenvalues --  -10.22952 -10.22801 -10.22784 -10.22725 -10.22634
 Alpha  occ. eigenvalues --  -10.22529 -10.22483 -10.22307 -10.22301 -10.22292
 Alpha  occ. eigenvalues --  -10.22269 -10.22067 -10.22064 -10.22061 -10.21880
 Alpha  occ. eigenvalues --  -10.21796  -3.14296  -1.87144  -1.86655  -1.86531
 Alpha  occ. eigenvalues --   -1.12043  -1.09004  -1.03687  -1.02825  -1.02756
 Alpha  occ. eigenvalues --   -1.02035  -0.99416  -0.98496  -0.97231  -0.96300
 Alpha  occ. eigenvalues --   -0.86409  -0.85900  -0.84170  -0.83666  -0.83376
 Alpha  occ. eigenvalues --   -0.82937  -0.82775  -0.81649  -0.81464  -0.81175
 Alpha  occ. eigenvalues --   -0.80280  -0.80094  -0.78866  -0.77947  -0.77888
 Alpha  occ. eigenvalues --   -0.77065  -0.76754  -0.75689  -0.75141  -0.74603
 Alpha  occ. eigenvalues --   -0.73764  -0.72438  -0.72385  -0.71811  -0.70635
 Alpha  occ. eigenvalues --   -0.70119  -0.69954  -0.69373  -0.69291  -0.68064
 Alpha  occ. eigenvalues --   -0.67727  -0.66859  -0.65978  -0.65229  -0.63434
 Alpha  occ. eigenvalues --   -0.63254  -0.62971  -0.61280  -0.61161  -0.59925
 Alpha  occ. eigenvalues --   -0.59628  -0.59447  -0.59225  -0.58555  -0.58441
 Alpha  occ. eigenvalues --   -0.58211  -0.57618  -0.57230  -0.55838  -0.54884
 Alpha  occ. eigenvalues --   -0.54506  -0.53805  -0.53423  -0.52792  -0.52418
 Alpha  occ. eigenvalues --   -0.51970  -0.51527  -0.50878  -0.50797  -0.49745
 Alpha  occ. eigenvalues --   -0.49535  -0.49147  -0.48937  -0.48663  -0.48202
 Alpha  occ. eigenvalues --   -0.47946  -0.47886  -0.47786  -0.47479  -0.47353
 Alpha  occ. eigenvalues --   -0.47042  -0.46818  -0.46765  -0.46721  -0.46266
 Alpha  occ. eigenvalues --   -0.46153  -0.45805  -0.45681  -0.45502  -0.45209
 Alpha  occ. eigenvalues --   -0.45194  -0.45030  -0.44802  -0.44674  -0.44474
 Alpha  occ. eigenvalues --   -0.44389  -0.43988  -0.43889  -0.43563  -0.43408
 Alpha  occ. eigenvalues --   -0.43217  -0.42950  -0.42862  -0.42510  -0.42440
 Alpha  occ. eigenvalues --   -0.42108  -0.41947  -0.41803  -0.41498  -0.41325
 Alpha  occ. eigenvalues --   -0.41183  -0.40962  -0.40707  -0.40491  -0.40446
 Alpha  occ. eigenvalues --   -0.40425  -0.40386  -0.40001  -0.39648  -0.39394
 Alpha  occ. eigenvalues --   -0.39322  -0.39183  -0.39050  -0.38805  -0.38748
 Alpha  occ. eigenvalues --   -0.38483  -0.38398  -0.38265  -0.37996  -0.37951
 Alpha  occ. eigenvalues --   -0.37846  -0.37762  -0.37450  -0.36993  -0.36830
 Alpha  occ. eigenvalues --   -0.36731  -0.36619  -0.36332  -0.36247  -0.36198
 Alpha  occ. eigenvalues --   -0.35935  -0.35526  -0.34993  -0.34699  -0.34575
 Alpha  occ. eigenvalues --   -0.34370  -0.34124  -0.34030  -0.33891  -0.33730
 Alpha  occ. eigenvalues --   -0.33249  -0.33195  -0.33133  -0.32749  -0.32624
 Alpha  occ. eigenvalues --   -0.32413  -0.32279  -0.32078  -0.31627  -0.31291
 Alpha  occ. eigenvalues --   -0.30798  -0.30001  -0.29749  -0.29594  -0.29445
 Alpha  occ. eigenvalues --   -0.29401  -0.29178  -0.28405  -0.26893  -0.26202
 Alpha  occ. eigenvalues --   -0.25651  -0.25482  -0.25034  -0.24949  -0.21106
 Alpha  occ. eigenvalues --   -0.18694
 Alpha virt. eigenvalues --   -0.11249  -0.05514  -0.04359  -0.02603  -0.00829
 Alpha virt. eigenvalues --   -0.00308   0.00198   0.00216   0.00990   0.03017
 Alpha virt. eigenvalues --    0.04200   0.04411   0.05136   0.05576   0.05780

 Mulliken charges:
               1
     1  Mg   0.960407
     2  C   -0.071009
     3  C   -0.069229
     4  C   -0.044080
     5  C   -0.080351
     6  N   -0.406627
     7  C    0.051416
     8  C   -0.129029
     9  C   -0.104304
    10  C    0.027562
    11  C    0.024102
    12  C    0.012090
    13  C    0.017575
    14  C    0.201971
    15  O   -0.247358
    16  O   -0.388141
    17  N   -0.458355
    18  C    0.199909
    19  C   -0.147472
    20  C   -0.125689
    21  C    0.143946
    22  C    0.041269
    23  C    0.093580
    24  O   -0.267713
    25  C   -0.022899
    26  N   -0.416704
    27  C    0.075360
    28  C   -0.092140
    29  C   -0.123231
    30  C    0.118209
    31  C    0.005329
    32  C   -0.027771
    33  C   -0.060773
    34  N   -0.468262
    35  C    0.128781
    36  C   -0.165831
    37  C   -0.022094
    38  C    0.175230
    39  C    0.061509
    40  C    0.100874
    41  O   -0.241216
    42  C   -0.091306
    43  C    0.322522
    44  O   -0.240117
    45  O   -0.396392
    46  C    0.139818
    47  C    0.249088
    48  C   -0.163150
    49  C   -0.202375
    50  C    0.012970
    51  C    0.038550
    52  C   -0.075661
    53  C    0.019815
    54  C   -0.195261
    55  C    0.002917
    56  C   -0.045036
    57  C   -0.037707
    58  C   -0.005002
    59  C   -0.212402
    60  C   -0.010284
    61  C   -0.024081
    62  C   -0.058342
    63  C   -0.064089
    64  C   -0.240839
    65  C   -0.006082
    66  C   -0.000594
    67  H   -0.007142
    68  H    0.037789
    69  H    0.005570
    70  H    0.077557
    71  H    0.045397
    72  H    0.046739
    73  H    0.054375
    74  H    0.041225
    75  H    0.040799
    76  H    0.049536
    77  H    0.050963
    78  H    0.065925
    79  H    0.054279
    80  H    0.035620
    81  H    0.060825
    82  H    0.060914
    83  H    0.094534
    84  H    0.056140
    85  H    0.049391
    86  H    0.048634
    87  H    0.055634
    88  H    0.032880
    89  H    0.035841
    90  H    0.033294
    91  H    0.037361
    92  H    0.051988
    93  H    0.042978
    94  H    0.025811
    95  H    0.049693
    96  H    0.059126
    97  H    0.073830
    98  H    0.080740
    99  H    0.040214
   100  H    0.061761
   101  H    0.043830
   102  H    0.072366
   103  H    0.075764
   104  H    0.043125
   105  H    0.057633
   106  H    0.025513
   107  H    0.052658
   108  H    0.015568
   109  H    0.040371
   110  H    0.024288
   111  H    0.031704
   112  H    0.019123
   113  H    0.019763
   114  H    0.023714
   115  H    0.029366
   116  H    0.037726
   117  H    0.029903
   118  H    0.022358
   119  H    0.015520
   120  H    0.029209
   121  H    0.017023
   122  H    0.026662
   123  H    0.040055
   124  H    0.040686
   125  H    0.034191
   126  H    0.039496
   127  H    0.029906
   128  H    0.024307
   129  H    0.029067
   130  H    0.024859
   131  H    0.030710
   132  H    0.025285
   133  H    0.028734
   134  H    0.042636
   135  H    0.038516
   136  H    0.028008
   137  H    0.035096
   138  H    0.044800
   139  H    0.047327
   140  H    0.037110
 Sum of Mulliken charges =  -0.00000

 Dipole moment (field-independent basis, Debye):
    X=              5.6215    Y=              4.1092    Z=             -2.6357  Tot=              7.4454
 Quadrupole moment (field-independent basis, Debye-Ang):
   XX=           -396.2147   YY=           -437.0690   ZZ=           -400.3199
   XY=            -32.9056   XZ=             14.4378   YZ=              9.1659

 Normal termination of Gaussian 16 at Thu Apr 28 12:09:12 2022.
