 Gaussian 16, Revision A.03,
 Gaussian 16:  ES64L-G16RevA.03 25-Dec-2016

 --------------------------------
 #p wB97XD/Def2SVP td=(nstates=5)
 --------------------------------

 -----------------------------------------------------
 step_1551_chromophore_21 TDDFT with wB97XD functional
 -----------------------------------------------------
 Symbolic Z-matrix:
 Charge =  0 Multiplicity = 1

                         Standard orientation:
 ---------------------------------------------------------------------
 Center     Atomic      Atomic             Coordinates (Angstroms)
 Number     Number       Type             X           Y           Z
 ---------------------------------------------------------------------
      1         12           0       -5.277141    1.179449   -0.229812
      2          6           0       -4.975461   -2.367191   -0.234318
      3          6           0       -1.892841    1.443361   -0.016700
      4          6           0       -5.559679    4.496765    0.041569
      5          6           0       -8.706720    0.713985    0.276173
      6          7           0       -3.629170   -0.262658   -0.093446
      7          6           0       -3.722395   -1.663231   -0.276972
      8          6           0       -2.342438   -2.288404   -0.449564
      9          6           0       -1.317590   -1.124518   -0.180923
     10          6           0       -2.318040    0.127230   -0.093321
     11          6           0       -0.392612   -1.381558    1.004917
     12          6           0       -2.155518   -2.948680   -1.853945
     13          6           0       -0.931431   -3.991055   -1.962903
     14          6           0       -0.077822   -4.412520   -0.784064
     15          8           0       -0.311717   -5.345291   -0.054990
     16          8           0        0.961383   -3.538635   -0.568250
     17          7           0       -3.894646    2.775470   -0.276091
     18          6           0       -2.533317    2.656738   -0.138810
     19          6           0       -1.921294    3.921047   -0.323886
     20          6           0       -2.984112    4.883950   -0.236089
     21          6           0       -4.236836    4.034821   -0.111444
     22          6           0       -0.392553    4.085587   -0.430102
     23          6           0       -2.982301    6.476867   -0.251695
     24          8           0       -4.058110    7.137236   -0.162402
     25          6           0       -1.652910    7.099376   -0.312415
     26          7           0       -6.898326    2.417844    0.248650
     27          6           0       -6.742734    3.749229    0.179146
     28          6           0       -8.126115    4.391928    0.463108
     29          6           0       -9.143779    3.232309    0.352372
     30          6           0       -8.197299    2.034475    0.155640
     31          6           0       -8.210226    5.349449    1.659268
     32          6           0      -10.250788    3.456208   -0.705890
     33          6           0      -11.694380    3.724356   -0.293301
     34          7           0       -6.626241   -0.431923    0.085980
     35          6           0       -8.020195   -0.477611    0.198228
     36          6           0       -8.491882   -1.863194    0.301756
     37          6           0       -7.299249   -2.640659    0.084110
     38          6           0       -6.241817   -1.747348    0.011980
     39          6           0       -9.919313   -2.329737    0.348511
     40          6           0       -6.835708   -3.972538   -0.068724
     41          8           0       -7.442566   -5.061674   -0.023394
     42          6           0       -5.255119   -3.898199   -0.225462
     43          6           0       -4.581035   -4.673120    0.869302
     44          8           0       -4.621114   -4.464124    2.074733
     45          8           0       -3.904234   -5.785510    0.275681
     46          6           0       -3.141489   -6.670692    1.042537
     47          6           0        1.880574   -3.925045    0.542125
     48          6           0        3.134580   -3.210424    0.113695
     49          6           0        4.125076   -2.718492    0.891794
     50          6           0        4.397536   -2.935307    2.384594
     51          6           0        5.045698   -1.708870    0.276255
     52          6           0        5.756218   -2.164463   -0.949851
     53          6           0        7.270362   -2.205002   -0.800143
     54          6           0        7.930155   -0.932746   -1.239289
     55          6           0        8.368681   -0.976795   -2.691466
     56          6           0        9.089751   -0.507522   -0.322603
     57          6           0        9.746534    0.839706   -0.639716
     58          6           0       11.051801    0.694051   -1.471788
     59          6           0       12.219589    1.517027   -0.778933
     60          6           0       13.148478    2.160808   -1.861576
     61          6           0       13.092973    0.548704    0.076278
     62          6           0       13.847229    1.281410    1.250905
     63          6           0       15.429719    0.981679    1.353946
     64          6           0       16.335462    2.204265    1.126932
     65          6           0       17.671980    1.585846    0.665048
     66          6           0       16.395904    2.963855    2.504391
     67          1           0       -0.801830    1.406040   -0.031847
     68          1           0       -5.717119    5.528799    0.359147
     69          1           0       -9.787704    0.585443    0.362221
     70          1           0       -2.322112   -3.040048    0.339637
     71          1           0       -0.713829   -0.966883   -1.074550
     72          1           0       -0.657817   -0.670585    1.787586
     73          1           0        0.666755   -1.371851    0.752672
     74          1           0       -0.569202   -2.393710    1.369147
     75          1           0       -2.002326   -2.153196   -2.582717
     76          1           0       -3.087584   -3.452632   -2.111103
     77          1           0       -0.295907   -3.502090   -2.701147
     78          1           0       -1.379108   -4.886679   -2.393272
     79          1           0        0.097656    3.258673    0.083473
     80          1           0       -0.075003    5.024385    0.024830
     81          1           0       -0.007395    4.152344   -1.447750
     82          1           0       -1.249391    6.565957   -1.173139
     83          1           0       -1.078918    6.976006    0.606072
     84          1           0       -1.711317    8.146693   -0.608791
     85          1           0       -8.244536    5.056538   -0.392905
     86          1           0       -9.685711    3.054285    1.281405
     87          1           0       -7.444150    5.372457    2.434678
     88          1           0       -9.186326    5.319453    2.141818
     89          1           0       -8.193701    6.361188    1.253241
     90          1           0      -10.201209    2.528268   -1.275538
     91          1           0      -10.004432    4.268231   -1.390572
     92          1           0      -12.366294    3.016899   -0.779969
     93          1           0      -12.025164    4.751072   -0.444825
     94          1           0      -11.773076    3.631145    0.789834
     95          1           0      -10.446562   -1.807641    1.146396
     96          1           0       -9.826444   -3.353591    0.709105
     97          1           0      -10.368206   -2.373050   -0.644119
     98          1           0       -5.059741   -4.318091   -1.212052
     99          1           0       -3.922037   -7.305667    1.461951
    100          1           0       -2.403531   -6.263517    1.734547
    101          1           0       -2.642904   -7.328233    0.329969
    102          1           0        2.189490   -4.962515    0.414564
    103          1           0        1.462218   -3.681170    1.518704
    104          1           0        3.110130   -2.877604   -0.923384
    105          1           0        5.259218   -3.574472    2.573151
    106          1           0        3.605579   -3.446567    2.932174
    107          1           0        4.532987   -1.975646    2.883144
    108          1           0        5.812589   -1.374942    0.975654
    109          1           0        4.502580   -0.796116    0.033296
    110          1           0        5.461660   -1.481644   -1.746677
    111          1           0        5.447615   -3.155591   -1.282831
    112          1           0        7.487590   -3.099590   -1.383729
    113          1           0        7.589496   -2.407975    0.221956
    114          1           0        7.227815   -0.111243   -1.100276
    115          1           0        7.803842   -1.706735   -3.271527
    116          1           0        9.408026   -1.220876   -2.912713
    117          1           0        8.199475    0.015377   -3.109285
    118          1           0        9.852258   -1.285493   -0.352437
    119          1           0        8.778686   -0.490174    0.721926
    120          1           0        9.805883    1.488509    0.234345
    121          1           0        9.026089    1.341936   -1.286005
    122          1           0       10.726273    1.055794   -2.447667
    123          1           0       11.302150   -0.358865   -1.599851
    124          1           0       11.854748    2.251422   -0.060608
    125          1           0       13.059416    1.740783   -2.863933
    126          1           0       14.194569    2.135759   -1.557352
    127          1           0       12.794466    3.179765   -2.012593
    128          1           0       13.872638    0.109789   -0.546847
    129          1           0       12.473243   -0.271079    0.439400
    130          1           0       13.325455    0.900541    2.129152
    131          1           0       13.631185    2.349736    1.273143
    132          1           0       15.603144    0.172560    0.643512
    133          1           0       15.571106    0.516420    2.328993
    134          1           0       15.855551    2.649710    0.256623
    135          1           0       17.711805    0.553703    1.013004
    136          1           0       18.479460    2.194313    1.074380
    137          1           0       17.802661    1.541625   -0.415891
    138          1           0       17.320713    2.792093    3.054264
    139          1           0       15.501827    2.755767    3.092223
    140          1           0       16.369937    4.015079    2.215527
 ---------------------------------------------------------------------

 SCF Done:  E(RwB97XD) =  -3007.86079651     A.U. after   20 cycles

 Excitation energies and oscillator strengths:

 Excited State   1:      Singlet-A      1.6202 eV  765.25 nm  f=0.3889  <S**2>=0.000
     245 -> 248        0.18447
     246 -> 247        0.68350
     245 <- 248        0.11715
 This state for optimization and/or second-order correction.
 Total Energy, E(TD-HF/TD-DFT) =  -3007.80125629
 Copying the excited state density for this state as the 1-particle RhoCI density.

 Excited State   2:      Singlet-A      2.1550 eV  575.33 nm  f=0.0864  <S**2>=0.000
     245 -> 247        0.62694
     246 -> 248       -0.30983

 Excited State   3:      Singlet-A      3.3774 eV  367.09 nm  f=0.0244  <S**2>=0.000
     242 -> 247       -0.20632
     244 -> 247        0.61832
     246 -> 248        0.17862

 Excited State   4:      Singlet-A      3.4243 eV  362.07 nm  f=0.3202  <S**2>=0.000
     240 -> 247        0.12622
     242 -> 247        0.43104
     245 -> 247        0.20223
     246 -> 248        0.49247

 Excited State   5:      Singlet-A      3.4912 eV  355.13 nm  f=0.0226  <S**2>=0.000
     241 -> 247        0.52713
     241 -> 249       -0.32930
     241 -> 250        0.24621
     246 -> 248       -0.12269

 The electronic state is 1-A.
 Alpha  occ. eigenvalues --  -46.95172 -19.31002 -19.28143 -19.25581 -19.24805
 Alpha  occ. eigenvalues --  -19.24763 -19.23453 -14.47226 -14.46426 -14.44299
 Alpha  occ. eigenvalues --  -14.43451 -10.43839 -10.43150 -10.40530 -10.38582
 Alpha  occ. eigenvalues --  -10.36827 -10.35685 -10.35539 -10.34881 -10.34773
 Alpha  occ. eigenvalues --  -10.34713 -10.34133 -10.33432 -10.32993 -10.32983
 Alpha  occ. eigenvalues --  -10.32701 -10.32611 -10.32607 -10.32597 -10.32596
 Alpha  occ. eigenvalues --  -10.32559 -10.32308 -10.32286 -10.32104 -10.31759
 Alpha  occ. eigenvalues --  -10.31495 -10.31184 -10.31055 -10.30887 -10.30799
 Alpha  occ. eigenvalues --  -10.30520 -10.30498 -10.30147 -10.30117 -10.29961
 Alpha  occ. eigenvalues --  -10.29932 -10.29716 -10.29694 -10.29591 -10.29488
 Alpha  occ. eigenvalues --  -10.29328 -10.29122 -10.29116 -10.29020 -10.28967
 Alpha  occ. eigenvalues --  -10.28924 -10.28853 -10.28675 -10.28674 -10.28662
 Alpha  occ. eigenvalues --  -10.28651 -10.28541 -10.28443 -10.28439 -10.28335
 Alpha  occ. eigenvalues --  -10.28229  -3.21096  -1.94692  -1.94202  -1.94081
 Alpha  occ. eigenvalues --   -1.19398  -1.16375  -1.11005  -1.10542  -1.10129
 Alpha  occ. eigenvalues --   -1.09371  -1.06900  -1.05848  -1.04552  -1.03637
 Alpha  occ. eigenvalues --   -0.93946  -0.93573  -0.91848  -0.91321  -0.91049
 Alpha  occ. eigenvalues --   -0.90621  -0.90338  -0.89329  -0.89062  -0.88963
 Alpha  occ. eigenvalues --   -0.87857  -0.87702  -0.86549  -0.85696  -0.85478
 Alpha  occ. eigenvalues --   -0.84806  -0.84398  -0.83320  -0.82760  -0.82195
 Alpha  occ. eigenvalues --   -0.81458  -0.80200  -0.80026  -0.79384  -0.78324
 Alpha  occ. eigenvalues --   -0.77711  -0.77669  -0.77007  -0.76917  -0.75751
 Alpha  occ. eigenvalues --   -0.75339  -0.74349  -0.73509  -0.72839  -0.70967
 Alpha  occ. eigenvalues --   -0.70901  -0.70473  -0.68904  -0.68812  -0.67500
 Alpha  occ. eigenvalues --   -0.67099  -0.66887  -0.66855  -0.66023  -0.65920
 Alpha  occ. eigenvalues --   -0.65847  -0.65295  -0.64891  -0.63246  -0.62459
 Alpha  occ. eigenvalues --   -0.61994  -0.61239  -0.60802  -0.60137  -0.59748
 Alpha  occ. eigenvalues --   -0.59450  -0.58990  -0.58309  -0.58262  -0.57167
 Alpha  occ. eigenvalues --   -0.56902  -0.56572  -0.56400  -0.56087  -0.55564
 Alpha  occ. eigenvalues --   -0.55455  -0.55403  -0.55169  -0.54916  -0.54687
 Alpha  occ. eigenvalues --   -0.54392  -0.54238  -0.54103  -0.54032  -0.53625
 Alpha  occ. eigenvalues --   -0.53575  -0.53236  -0.52996  -0.52916  -0.52624
 Alpha  occ. eigenvalues --   -0.52589  -0.52316  -0.52261  -0.52029  -0.51775
 Alpha  occ. eigenvalues --   -0.51684  -0.51280  -0.51188  -0.50935  -0.50756
 Alpha  occ. eigenvalues --   -0.50601  -0.50232  -0.50149  -0.49869  -0.49696
 Alpha  occ. eigenvalues --   -0.49378  -0.49225  -0.49041  -0.48721  -0.48528
 Alpha  occ. eigenvalues --   -0.48416  -0.48204  -0.47914  -0.47736  -0.47668
 Alpha  occ. eigenvalues --   -0.47610  -0.47525  -0.47086  -0.46844  -0.46550
 Alpha  occ. eigenvalues --   -0.46500  -0.46407  -0.46118  -0.45971  -0.45835
 Alpha  occ. eigenvalues --   -0.45610  -0.45574  -0.45394  -0.45154  -0.45140
 Alpha  occ. eigenvalues --   -0.45024  -0.44807  -0.44517  -0.44175  -0.43945
 Alpha  occ. eigenvalues --   -0.43878  -0.43631  -0.43494  -0.43439  -0.43267
 Alpha  occ. eigenvalues --   -0.42907  -0.42625  -0.41973  -0.41839  -0.41584
 Alpha  occ. eigenvalues --   -0.41299  -0.41234  -0.41009  -0.40957  -0.40799
 Alpha  occ. eigenvalues --   -0.40282  -0.40211  -0.40124  -0.39669  -0.39657
 Alpha  occ. eigenvalues --   -0.39455  -0.39312  -0.39109  -0.38660  -0.38161
 Alpha  occ. eigenvalues --   -0.37777  -0.36993  -0.36829  -0.36579  -0.36280
 Alpha  occ. eigenvalues --   -0.36226  -0.35933  -0.35419  -0.33793  -0.33265
 Alpha  occ. eigenvalues --   -0.32455  -0.32355  -0.31718  -0.31414  -0.26123
 Alpha  occ. eigenvalues --   -0.22817
 Alpha virt. eigenvalues --   -0.07120  -0.00078   0.01839   0.03878   0.05450
 Alpha virt. eigenvalues --    0.06075   0.06872   0.07000   0.07755   0.09641
 Alpha virt. eigenvalues --    0.10514   0.11270   0.11827   0.12278   0.12505

 Mulliken charges:
               1
     1  Mg   0.950615
     2  C   -0.078481
     3  C   -0.081445
     4  C   -0.064727
     5  C   -0.095698
     6  N   -0.375527
     7  C    0.025179
     8  C   -0.095797
     9  C   -0.082585
    10  C    0.011368
    11  C    0.041478
    12  C    0.026597
    13  C    0.029719
    14  C    0.189196
    15  O   -0.243427
    16  O   -0.385220
    17  N   -0.428035
    18  C    0.201601
    19  C   -0.142899
    20  C   -0.121309
    21  C    0.139842
    22  C    0.054442
    23  C    0.093031
    24  O   -0.259761
    25  C   -0.012647
    26  N   -0.384635
    27  C    0.063665
    28  C   -0.065508
    29  C   -0.093275
    30  C    0.103089
    31  C    0.013478
    32  C   -0.015053
    33  C   -0.044298
    34  N   -0.433770
    35  C    0.122097
    36  C   -0.168804
    37  C   -0.018072
    38  C    0.158945
    39  C    0.073469
    40  C    0.083797
    41  O   -0.232144
    42  C   -0.053583
    43  C    0.299149
    44  O   -0.233227
    45  O   -0.393782
    46  C    0.149324
    47  C    0.257429
    48  C   -0.166412
    49  C   -0.188961
    50  C    0.027072
    51  C    0.054858
    52  C   -0.058752
    53  C    0.036317
    54  C   -0.161314
    55  C    0.010411
    56  C   -0.027069
    57  C   -0.021213
    58  C    0.007935
    59  C   -0.179166
    60  C    0.003888
    61  C   -0.006078
    62  C   -0.047881
    63  C   -0.043731
    64  C   -0.208291
    65  C    0.005759
    66  C    0.010153
    67  H   -0.015673
    68  H    0.032306
    69  H   -0.000009
    70  H    0.059023
    71  H    0.035215
    72  H    0.041585
    73  H    0.044797
    74  H    0.031658
    75  H    0.033303
    76  H    0.037823
    77  H    0.045381
    78  H    0.061877
    79  H    0.050512
    80  H    0.029435
    81  H    0.058208
    82  H    0.053016
    83  H    0.091522
    84  H    0.055997
    85  H    0.036537
    86  H    0.035441
    87  H    0.050663
    88  H    0.027250
    89  H    0.030195
    90  H    0.023503
    91  H    0.029272
    92  H    0.046941
    93  H    0.037144
    94  H    0.018144
    95  H    0.044222
    96  H    0.053813
    97  H    0.068995
    98  H    0.074695
    99  H    0.036424
   100  H    0.059594
   101  H    0.040969
   102  H    0.067458
   103  H    0.071243
   104  H    0.038750
   105  H    0.052187
   106  H    0.020112
   107  H    0.047296
   108  H    0.003997
   109  H    0.033158
   110  H    0.015220
   111  H    0.022828
   112  H    0.011924
   113  H    0.009515
   114  H    0.008808
   115  H    0.023873
   116  H    0.031095
   117  H    0.023658
   118  H    0.009407
   119  H    0.007051
   120  H    0.022492
   121  H    0.005390
   122  H    0.018349
   123  H    0.028838
   124  H    0.027428
   125  H    0.028880
   126  H    0.029004
   127  H    0.024210
   128  H    0.012287
   129  H    0.019679
   130  H    0.017575
   131  H    0.020436
   132  H    0.013719
   133  H    0.019470
   134  H    0.028324
   135  H    0.031101
   136  H    0.022080
   137  H    0.030154
   138  H    0.040068
   139  H    0.040534
   140  H    0.031298
 Sum of Mulliken charges =  -0.00000

 Dipole moment (field-independent basis, Debye):
    X=              6.1006    Y=              4.5221    Z=             -2.7005  Tot=              8.0597
 Quadrupole moment (field-independent basis, Debye-Ang):
   XX=           -400.2357   YY=           -435.0276   ZZ=           -399.9660
   XY=            -33.2584   XZ=             14.8163   YZ=              9.0737

 Normal termination of Gaussian 16 at Thu Apr 28 12:37:05 2022.
