 Gaussian 16, Revision A.03,
 Gaussian 16:  ES64L-G16RevA.03 25-Dec-2016

 --------------------
 #p ZINDO=(nstates=5)
 --------------------

 ------------------------------
 step_1551_chromophore_21 ZINDO
 ------------------------------
 Symbolic Z-matrix:
 Charge =  0 Multiplicity = 1

                         Standard orientation:
 ---------------------------------------------------------------------
 Center     Atomic      Atomic             Coordinates (Angstroms)
 Number     Number       Type             X           Y           Z
 ---------------------------------------------------------------------
      1         12           0       -5.277141    1.179449   -0.229812
      2          6           0       -4.975461   -2.367191   -0.234318
      3          6           0       -1.892841    1.443361   -0.016700
      4          6           0       -5.559679    4.496765    0.041569
      5          6           0       -8.706720    0.713985    0.276173
      6          7           0       -3.629170   -0.262658   -0.093446
      7          6           0       -3.722395   -1.663231   -0.276972
      8          6           0       -2.342438   -2.288404   -0.449564
      9          6           0       -1.317590   -1.124518   -0.180923
     10          6           0       -2.318040    0.127230   -0.093321
     11          6           0       -0.392612   -1.381558    1.004917
     12          6           0       -2.155518   -2.948680   -1.853945
     13          6           0       -0.931431   -3.991055   -1.962903
     14          6           0       -0.077822   -4.412520   -0.784064
     15          8           0       -0.311717   -5.345291   -0.054990
     16          8           0        0.961383   -3.538635   -0.568250
     17          7           0       -3.894646    2.775470   -0.276091
     18          6           0       -2.533317    2.656738   -0.138810
     19          6           0       -1.921294    3.921047   -0.323886
     20          6           0       -2.984112    4.883950   -0.236089
     21          6           0       -4.236836    4.034821   -0.111444
     22          6           0       -0.392553    4.085587   -0.430102
     23          6           0       -2.982301    6.476867   -0.251695
     24          8           0       -4.058110    7.137236   -0.162402
     25          6           0       -1.652910    7.099376   -0.312415
     26          7           0       -6.898326    2.417844    0.248650
     27          6           0       -6.742734    3.749229    0.179146
     28          6           0       -8.126115    4.391928    0.463108
     29          6           0       -9.143779    3.232309    0.352372
     30          6           0       -8.197299    2.034475    0.155640
     31          6           0       -8.210226    5.349449    1.659268
     32          6           0      -10.250788    3.456208   -0.705890
     33          6           0      -11.694380    3.724356   -0.293301
     34          7           0       -6.626241   -0.431923    0.085980
     35          6           0       -8.020195   -0.477611    0.198228
     36          6           0       -8.491882   -1.863194    0.301756
     37          6           0       -7.299249   -2.640659    0.084110
     38          6           0       -6.241817   -1.747348    0.011980
     39          6           0       -9.919313   -2.329737    0.348511
     40          6           0       -6.835708   -3.972538   -0.068724
     41          8           0       -7.442566   -5.061674   -0.023394
     42          6           0       -5.255119   -3.898199   -0.225462
     43          6           0       -4.581035   -4.673120    0.869302
     44          8           0       -4.621114   -4.464124    2.074733
     45          8           0       -3.904234   -5.785510    0.275681
     46          6           0       -3.141489   -6.670692    1.042537
     47          6           0        1.880574   -3.925045    0.542125
     48          6           0        3.134580   -3.210424    0.113695
     49          6           0        4.125076   -2.718492    0.891794
     50          6           0        4.397536   -2.935307    2.384594
     51          6           0        5.045698   -1.708870    0.276255
     52          6           0        5.756218   -2.164463   -0.949851
     53          6           0        7.270362   -2.205002   -0.800143
     54          6           0        7.930155   -0.932746   -1.239289
     55          6           0        8.368681   -0.976795   -2.691466
     56          6           0        9.089751   -0.507522   -0.322603
     57          6           0        9.746534    0.839706   -0.639716
     58          6           0       11.051801    0.694051   -1.471788
     59          6           0       12.219589    1.517027   -0.778933
     60          6           0       13.148478    2.160808   -1.861576
     61          6           0       13.092973    0.548704    0.076278
     62          6           0       13.847229    1.281410    1.250905
     63          6           0       15.429719    0.981679    1.353946
     64          6           0       16.335462    2.204265    1.126932
     65          6           0       17.671980    1.585846    0.665048
     66          6           0       16.395904    2.963855    2.504391
     67          1           0       -0.801830    1.406040   -0.031847
     68          1           0       -5.717119    5.528799    0.359147
     69          1           0       -9.787704    0.585443    0.362221
     70          1           0       -2.322112   -3.040048    0.339637
     71          1           0       -0.713829   -0.966883   -1.074550
     72          1           0       -0.657817   -0.670585    1.787586
     73          1           0        0.666755   -1.371851    0.752672
     74          1           0       -0.569202   -2.393710    1.369147
     75          1           0       -2.002326   -2.153196   -2.582717
     76          1           0       -3.087584   -3.452632   -2.111103
     77          1           0       -0.295907   -3.502090   -2.701147
     78          1           0       -1.379108   -4.886679   -2.393272
     79          1           0        0.097656    3.258673    0.083473
     80          1           0       -0.075003    5.024385    0.024830
     81          1           0       -0.007395    4.152344   -1.447750
     82          1           0       -1.249391    6.565957   -1.173139
     83          1           0       -1.078918    6.976006    0.606072
     84          1           0       -1.711317    8.146693   -0.608791
     85          1           0       -8.244536    5.056538   -0.392905
     86          1           0       -9.685711    3.054285    1.281405
     87          1           0       -7.444150    5.372457    2.434678
     88          1           0       -9.186326    5.319453    2.141818
     89          1           0       -8.193701    6.361188    1.253241
     90          1           0      -10.201209    2.528268   -1.275538
     91          1           0      -10.004432    4.268231   -1.390572
     92          1           0      -12.366294    3.016899   -0.779969
     93          1           0      -12.025164    4.751072   -0.444825
     94          1           0      -11.773076    3.631145    0.789834
     95          1           0      -10.446562   -1.807641    1.146396
     96          1           0       -9.826444   -3.353591    0.709105
     97          1           0      -10.368206   -2.373050   -0.644119
     98          1           0       -5.059741   -4.318091   -1.212052
     99          1           0       -3.922037   -7.305667    1.461951
    100          1           0       -2.403531   -6.263517    1.734547
    101          1           0       -2.642904   -7.328233    0.329969
    102          1           0        2.189490   -4.962515    0.414564
    103          1           0        1.462218   -3.681170    1.518704
    104          1           0        3.110130   -2.877604   -0.923384
    105          1           0        5.259218   -3.574472    2.573151
    106          1           0        3.605579   -3.446567    2.932174
    107          1           0        4.532987   -1.975646    2.883144
    108          1           0        5.812589   -1.374942    0.975654
    109          1           0        4.502580   -0.796116    0.033296
    110          1           0        5.461660   -1.481644   -1.746677
    111          1           0        5.447615   -3.155591   -1.282831
    112          1           0        7.487590   -3.099590   -1.383729
    113          1           0        7.589496   -2.407975    0.221956
    114          1           0        7.227815   -0.111243   -1.100276
    115          1           0        7.803842   -1.706735   -3.271527
    116          1           0        9.408026   -1.220876   -2.912713
    117          1           0        8.199475    0.015377   -3.109285
    118          1           0        9.852258   -1.285493   -0.352437
    119          1           0        8.778686   -0.490174    0.721926
    120          1           0        9.805883    1.488509    0.234345
    121          1           0        9.026089    1.341936   -1.286005
    122          1           0       10.726273    1.055794   -2.447667
    123          1           0       11.302150   -0.358865   -1.599851
    124          1           0       11.854748    2.251422   -0.060608
    125          1           0       13.059416    1.740783   -2.863933
    126          1           0       14.194569    2.135759   -1.557352
    127          1           0       12.794466    3.179765   -2.012593
    128          1           0       13.872638    0.109789   -0.546847
    129          1           0       12.473243   -0.271079    0.439400
    130          1           0       13.325455    0.900541    2.129152
    131          1           0       13.631185    2.349736    1.273143
    132          1           0       15.603144    0.172560    0.643512
    133          1           0       15.571106    0.516420    2.328993
    134          1           0       15.855551    2.649710    0.256623
    135          1           0       17.711805    0.553703    1.013004
    136          1           0       18.479460    2.194313    1.074380
    137          1           0       17.802661    1.541625   -0.415891
    138          1           0       17.320713    2.792093    3.054264
    139          1           0       15.501827    2.755767    3.092223
    140          1           0       16.369937    4.015079    2.215527
 ---------------------------------------------------------------------

 SCF Done:  E(RZINDO/S) =  -474.168175794     A.U. after   19 cycles

 Excitation energies and oscillator strengths:

 Excited State   1:      Singlet-A      1.2281 eV 1009.56 nm  f=0.6074  <S**2>=0.000
     175 ->178        -0.19206
     176 ->177         0.66313
 This state for optimization and/or second-order correction.
 Total Energy, E(CIS/TDA) =  -474.123043737
 Copying the excited state density for this state as the 1-particle RhoCI density.

 Excited State   2:      Singlet-A      1.8978 eV  653.32 nm  f=0.0233  <S**2>=0.000
     175 ->177         0.52833
     176 ->178         0.44549

 Excited State   3:      Singlet-A      2.9307 eV  423.05 nm  f=0.0579  <S**2>=0.000
     170 ->177         0.15977
     170 ->179         0.17502
     170 ->180        -0.17690
     176 ->178        -0.11878
     176 ->179         0.54752
     176 ->180        -0.14182

 Excited State   4:      Singlet-A      2.9537 eV  419.76 nm  f=0.8873  <S**2>=0.000
     171 ->177        -0.16928
     175 ->177        -0.36650
     176 ->178         0.46154
     176 ->179         0.26058

 Excited State   5:      Singlet-A      2.9816 eV  415.83 nm  f=0.1316  <S**2>=0.000
     170 ->177         0.26673
     170 ->179         0.30030
     170 ->180        -0.27992
     170 ->186         0.16252
     170 ->187        -0.14255
     170 ->201        -0.11350
     175 ->177        -0.14174
     176 ->178         0.17116
     176 ->179        -0.26912

 The electronic state is 1-A.
 Alpha  occ. eigenvalues --   -1.82750  -1.81340  -1.79234  -1.74227  -1.69502
 Alpha  occ. eigenvalues --   -1.69156  -1.67777  -1.61694  -1.57017  -1.56616
 Alpha  occ. eigenvalues --   -1.55964  -1.51613  -1.48338  -1.47686  -1.46612
 Alpha  occ. eigenvalues --   -1.44456  -1.43497  -1.40449  -1.39336  -1.38557
 Alpha  occ. eigenvalues --   -1.35337  -1.32971  -1.32396  -1.30519  -1.28999
 Alpha  occ. eigenvalues --   -1.25816  -1.25658  -1.24140  -1.21844  -1.18365
 Alpha  occ. eigenvalues --   -1.16909  -1.16370  -1.15917  -1.14642  -1.13729
 Alpha  occ. eigenvalues --   -1.13311  -1.10620  -1.10396  -1.05261  -1.02896
 Alpha  occ. eigenvalues --   -1.02502  -1.00453  -0.99773  -0.98035  -0.96770
 Alpha  occ. eigenvalues --   -0.95329  -0.94319  -0.94168  -0.93223  -0.92439
 Alpha  occ. eigenvalues --   -0.90735  -0.90509  -0.88836  -0.88496  -0.87807
 Alpha  occ. eigenvalues --   -0.86043  -0.85506  -0.83046  -0.81745  -0.80428
 Alpha  occ. eigenvalues --   -0.79553  -0.78352  -0.77760  -0.76332  -0.75528
 Alpha  occ. eigenvalues --   -0.75401  -0.74985  -0.74844  -0.74056  -0.73400
 Alpha  occ. eigenvalues --   -0.73011  -0.72367  -0.72027  -0.71122  -0.70847
 Alpha  occ. eigenvalues --   -0.69993  -0.69759  -0.68939  -0.68306  -0.68023
 Alpha  occ. eigenvalues --   -0.67286  -0.66934  -0.66651  -0.66440  -0.65721
 Alpha  occ. eigenvalues --   -0.65192  -0.64449  -0.64015  -0.63940  -0.63460
 Alpha  occ. eigenvalues --   -0.63056  -0.62911  -0.62736  -0.62437  -0.62126
 Alpha  occ. eigenvalues --   -0.61601  -0.61431  -0.61218  -0.60864  -0.60078
 Alpha  occ. eigenvalues --   -0.59620  -0.59608  -0.59351  -0.59061  -0.58834
 Alpha  occ. eigenvalues --   -0.57672  -0.57387  -0.57136  -0.56915  -0.56591
 Alpha  occ. eigenvalues --   -0.55660  -0.55582  -0.55180  -0.54890  -0.54848
 Alpha  occ. eigenvalues --   -0.54641  -0.54239  -0.53527  -0.53075  -0.52789
 Alpha  occ. eigenvalues --   -0.52604  -0.52304  -0.51902  -0.51714  -0.51673
 Alpha  occ. eigenvalues --   -0.51421  -0.51185  -0.50710  -0.50375  -0.50044
 Alpha  occ. eigenvalues --   -0.49829  -0.49678  -0.49189  -0.48861  -0.48592
 Alpha  occ. eigenvalues --   -0.48252  -0.47977  -0.47849  -0.47676  -0.47368
 Alpha  occ. eigenvalues --   -0.47186  -0.47049  -0.47032  -0.46685  -0.46554
 Alpha  occ. eigenvalues --   -0.46232  -0.46073  -0.45822  -0.45407  -0.45098
 Alpha  occ. eigenvalues --   -0.44906  -0.44781  -0.44544  -0.44518  -0.43971
 Alpha  occ. eigenvalues --   -0.43714  -0.43255  -0.43083  -0.42824  -0.42629
 Alpha  occ. eigenvalues --   -0.42080  -0.42013  -0.40435  -0.39387  -0.39103
 Alpha  occ. eigenvalues --   -0.38251  -0.37309  -0.36331  -0.35203  -0.34427
 Alpha  occ. eigenvalues --   -0.33300  -0.32399  -0.31948  -0.31861  -0.26762
 Alpha  occ. eigenvalues --   -0.21634
 Alpha virt. eigenvalues --   -0.08569  -0.02292  -0.00921   0.00821   0.01533
 Alpha virt. eigenvalues --    0.02166   0.02590   0.02983   0.03939   0.04326
 Alpha virt. eigenvalues --    0.05760   0.06010   0.07134   0.07768   0.08203

 Mulliken charges:
               1
     1  Mg   0.427486
     2  C   -0.056847
     3  C   -0.079148
     4  C   -0.075535
     5  C   -0.046630
     6  N   -0.290143
     7  C    0.106634
     8  C    0.006491
     9  C    0.004941
    10  C    0.141688
    11  C   -0.048898
    12  C   -0.017156
    13  C   -0.003956
    14  C    0.473780
    15  O   -0.505988
    16  O   -0.280019
    17  N   -0.317570
    18  C    0.135883
    19  C    0.010568
    20  C   -0.059044
    21  C    0.159203
    22  C   -0.044726
    23  C    0.334353
    24  O   -0.527917
    25  C   -0.023671
    26  N   -0.247522
    27  C    0.147257
    28  C    0.008619
    29  C    0.004631
    30  C    0.094167
    31  C   -0.049793
    32  C   -0.030566
    33  C   -0.055592
    34  N   -0.343809
    35  C    0.082511
    36  C    0.021998
    37  C   -0.047316
    38  C    0.122263
    39  C   -0.039587
    40  C    0.331057
    41  O   -0.536232
    42  C    0.059112
    43  C    0.488884
    44  O   -0.500364
    45  O   -0.287195
    46  C    0.079887
    47  C    0.104216
    48  C   -0.088784
    49  C   -0.010718
    50  C   -0.041707
    51  C   -0.015657
    52  C   -0.027388
    53  C   -0.029937
    54  C    0.003779
    55  C   -0.052575
    56  C   -0.034199
    57  C   -0.043327
    58  C   -0.036796
    59  C   -0.014543
    60  C   -0.060305
    61  C   -0.038792
    62  C   -0.056559
    63  C   -0.039449
    64  C   -0.015715
    65  C   -0.057722
    66  C   -0.050222
    67  H    0.012764
    68  H    0.048108
    69  H    0.022564
    70  H    0.045168
    71  H    0.026625
    72  H    0.025030
    73  H    0.026480
    74  H    0.026605
    75  H    0.025801
    76  H    0.027810
    77  H    0.029617
    78  H    0.039703
    79  H    0.029750
    80  H    0.021050
    81  H    0.034635
    82  H    0.036066
    83  H    0.053589
    84  H    0.036876
    85  H    0.024867
    86  H    0.031674
    87  H    0.031825
    88  H    0.016571
    89  H    0.013444
    90  H    0.016021
    91  H    0.019328
    92  H    0.024548
    93  H    0.020880
    94  H    0.014221
    95  H    0.031943
    96  H    0.029057
    97  H    0.044016
    98  H    0.052599
    99  H    0.038519
   100  H    0.056050
   101  H    0.025575
   102  H    0.056878
   103  H    0.064256
   104  H    0.034874
   105  H    0.032057
   106  H    0.014140
   107  H    0.026542
   108  H    0.011888
   109  H    0.019304
   110  H    0.013408
   111  H    0.015431
   112  H    0.015088
   113  H    0.016755
   114  H    0.017165
   115  H    0.012673
   116  H    0.022451
   117  H    0.012377
   118  H    0.012267
   119  H    0.006926
   120  H    0.023583
   121  H    0.007933
   122  H    0.017972
   123  H    0.027599
   124  H    0.032363
   125  H    0.020745
   126  H    0.023350
   127  H    0.009956
   128  H    0.017377
   129  H    0.017336
   130  H    0.009059
   131  H    0.021077
   132  H    0.013300
   133  H    0.015903
   134  H    0.035607
   135  H    0.022614
   136  H    0.013823
   137  H    0.017590
   138  H    0.030819
   139  H    0.026981
   140  H    0.011363
 Sum of Mulliken charges =  -0.00000

 Dipole moment (field-independent basis, Debye):
    X=              8.4607    Y=              5.9891    Z=             -4.3966  Tot=             11.2598
 N-N= 4.275237113655D+03 E-N= 0.000000000000D+00  KE=-9.224633697702D+03
 Leave Link  601 at Thu Apr 28 12:48:21 2022, MaxMem=  6710886400 cpu:               0.8 elap:               0.0
 (Enter /sw/apps/gaussian-16.0/g16/l9999.exe)
 1\1\GINC-BP1-COMPUTE162\SP\RZINDO CIS\STO-3G\C55H74Mg1N4O6\OF15641\28-
 Apr-2022\0\\#p ZINDO=(nstates=5)\\step_1551_chromophore_21 ZINDO\\0,1\
 Mg,0,15.957,52.901,25.33\C,0,17.707,51.557,28.123\C,0,13.385,53.758,27
 .384\C,0,14.194,53.925,22.684\C,0,18.331,51.323,23.303\N,0,15.555,52.6
 56,27.473\C,0,16.478,52.225,28.456\C,0,15.956,52.505,29.861\C,0,14.483
 ,53.024,29.666\C,0,14.439,53.176,28.069\C,0,13.428,52.142,30.327\C,0,1
 6.856,53.515,30.644\C,0,16.641,53.528,32.241\C,0,15.729,52.566,32.975\

 Normal termination of Gaussian 16 at Thu Apr 28 12:48:21 2022.
