 Gaussian 16, Revision A.03,
 Gaussian 16:  ES64L-G16RevA.03 25-Dec-2016

 ------------------------------
 #p blyp/Def2SVP td=(nstates=5)
 ------------------------------

 ---------------------------------------------------
 step_1701_chromophore_14 TDDFT with blyp functional
 ---------------------------------------------------
 Symbolic Z-matrix:
 Charge =  0 Multiplicity = 1

                         Standard orientation:
 ---------------------------------------------------------------------
 Center     Atomic      Atomic             Coordinates (Angstroms)
 Number     Number       Type             X           Y           Z
 ---------------------------------------------------------------------
      1         12           0        5.260755    0.516133   -0.192241
      2          6           0        4.460171   -2.610509    0.593229
      3          6           0        3.787162    0.139525   -3.317419
      4          6           0        5.469172    3.911162   -0.581182
      5          6           0        6.194683    1.098364    3.241527
      6          7           0        4.265342   -0.970142   -1.238068
      7          6           0        3.970272   -2.173823   -0.664882
      8          6           0        3.028879   -2.962763   -1.528186
      9          6           0        3.297471   -2.296881   -2.939836
     10          6           0        3.640019   -0.906346   -2.433945
     11          6           0        4.436274   -2.970161   -3.796784
     12          6           0        1.530362   -3.038243   -1.002475
     13          6           0        0.771071   -4.283051   -1.538536
     14          6           0       -0.709842   -4.079817   -2.040566
     15          8           0       -1.136826   -4.444817   -3.096212
     16          8           0       -1.452641   -3.513221   -1.010761
     17          7           0        4.763570    1.866743   -1.797654
     18          6           0        4.218799    1.486991   -3.047436
     19          6           0        4.330823    2.570067   -3.972245
     20          6           0        4.730038    3.637021   -3.122445
     21          6           0        5.071164    3.165508   -1.765582
     22          6           0        3.848983    2.549665   -5.367798
     23          6           0        4.685078    5.132853   -3.547408
     24          8           0        4.490914    5.444312   -4.689118
     25          6           0        4.947362    6.284482   -2.579374
     26          7           0        5.578292    2.331440    1.304967
     27          6           0        5.632473    3.570117    0.745366
     28          6           0        6.164963    4.629676    1.751175
     29          6           0        6.376602    3.725535    2.982290
     30          6           0        6.038690    2.324927    2.498716
     31          6           0        7.486409    5.291495    1.190052
     32          6           0        5.791823    4.246761    4.334872
     33          6           0        6.750874    4.792858    5.350083
     34          7           0        5.500400   -0.522893    1.578215
     35          6           0        5.877636   -0.246966    2.859536
     36          6           0        5.762708   -1.428761    3.712880
     37          6           0        5.242318   -2.414534    2.824609
     38          6           0        5.124776   -1.813507    1.590568
     39          6           0        5.903031   -1.505719    5.187185
     40          6           0        4.753210   -3.757502    2.688187
     41          8           0        4.580752   -4.641084    3.547420
     42          6           0        4.317986   -3.979640    1.284028
     43          6           0        5.097862   -5.058522    0.553014
     44          8           0        4.606770   -6.168119    0.286101
     45          8           0        6.311331   -4.556497    0.045305
     46          6           0        7.180743   -5.606320   -0.546192
     47          6           0       -2.687222   -2.955781   -1.478567
     48          6           0       -3.117887   -1.856594   -0.543779
     49          6           0       -3.830297   -0.787965   -0.854250
     50          6           0       -4.651037   -0.586823   -2.107110
     51          6           0       -4.043214    0.363800    0.165997
     52          6           0       -5.399326    0.364255    0.982949
     53          6           0       -6.057868    1.780954    0.926416
     54          6           0       -7.517690    1.685155    0.320082
     55          6           0       -7.852297    2.975526   -0.459439
     56          6           0       -8.583700    1.486449    1.413644
     57          6           0      -10.005521    1.270961    0.796749
     58          6           0      -10.537656   -0.181731    0.560596
     59          6           0      -11.853430   -0.511199    1.293079
     60          6           0      -11.633400   -1.364282    2.611095
     61          6           0      -12.932013   -1.152572    0.316021
     62          6           0      -13.665335   -0.138070   -0.498646
     63          6           0      -15.150730   -0.006261   -0.255406
     64          6           0      -15.634158    1.442546    0.168706
     65          6           0      -15.263718    1.672497    1.682332
     66          6           0      -17.107106    1.768964   -0.180222
     67          1           0        3.310455   -0.003041   -4.288828
     68          1           0        5.965249    4.857521   -0.804891
     69          1           0        6.546557    1.199377    4.269714
     70          1           0        3.445777   -3.970737   -1.517625
     71          1           0        2.379513   -2.194351   -3.518354
     72          1           0        5.385173   -2.435271   -3.771205
     73          1           0        4.143673   -2.958319   -4.845988
     74          1           0        4.633798   -3.966666   -3.401655
     75          1           0        1.049423   -2.077148   -1.186190
     76          1           0        1.608356   -3.105768    0.083114
     77          1           0        0.688845   -4.980474   -0.704988
     78          1           0        1.372959   -4.793045   -2.290109
     79          1           0        4.170780    3.410949   -5.953022
     80          1           0        2.763941    2.450576   -5.406341
     81          1           0        4.233896    1.647166   -5.841767
     82          1           0        6.005570    6.434878   -2.368087
     83          1           0        4.455403    6.176520   -1.612715
     84          1           0        4.576966    7.194932   -3.050874
     85          1           0        5.506353    5.493617    1.849936
     86          1           0        7.450825    3.693666    3.168257
     87          1           0        8.290436    5.217067    1.922139
     88          1           0        7.255668    6.312420    0.884852
     89          1           0        7.822413    4.752562    0.304101
     90          1           0        5.170070    3.425244    4.689424
     91          1           0        5.156004    5.102647    4.109274
     92          1           0        7.582097    5.306396    4.867777
     93          1           0        7.121563    4.041224    6.047655
     94          1           0        6.295451    5.564326    5.971609
     95          1           0        5.764163   -2.535832    5.515589
     96          1           0        5.254323   -0.810143    5.719928
     97          1           0        6.924782   -1.316223    5.516222
     98          1           0        3.284113   -4.320151    1.348281
     99          1           0        8.184533   -5.200853   -0.670366
    100          1           0        6.669319   -5.812189   -1.486803
    101          1           0        7.129635   -6.535724    0.021021
    102          1           0       -3.542938   -3.604604   -1.287745
    103          1           0       -2.717340   -2.642296   -2.521657
    104          1           0       -2.636235   -1.853987    0.434770
    105          1           0       -4.293904    0.263589   -2.688450
    106          1           0       -5.720887   -0.437627   -1.958156
    107          1           0       -4.513836   -1.503552   -2.679479
    108          1           0       -3.840110    1.321608   -0.312742
    109          1           0       -3.265306    0.183948    0.907323
    110          1           0       -5.159723    0.178282    2.030306
    111          1           0       -6.009121   -0.368059    0.453745
    112          1           0       -5.340589    2.459894    0.463834
    113          1           0       -6.179907    2.047329    1.976358
    114          1           0       -7.595338    0.779114   -0.279995
    115          1           0       -7.995359    2.802248   -1.526112
    116          1           0       -7.041368    3.675381   -0.257039
    117          1           0       -8.744085    3.404636   -0.002383
    118          1           0       -8.681955    2.383205    2.025816
    119          1           0       -8.224161    0.717184    2.097151
    120          1           0      -10.169089    1.746098   -0.170621
    121          1           0      -10.519939    1.818880    1.585223
    122          1           0       -9.806609   -0.916302    0.899402
    123          1           0      -10.722448   -0.357641   -0.499627
    124          1           0      -12.220541    0.434698    1.690004
    125          1           0      -12.272891   -1.140529    3.464616
    126          1           0      -10.596268   -1.448478    2.933722
    127          1           0      -11.687555   -2.403305    2.285499
    128          1           0      -13.648022   -1.664569    0.958805
    129          1           0      -12.560768   -1.818574   -0.462760
    130          1           0      -13.556563   -0.205278   -1.581541
    131          1           0      -13.183690    0.799704   -0.220167
    132          1           0      -15.506199   -0.741323    0.466549
    133          1           0      -15.657191   -0.299846   -1.174890
    134          1           0      -14.990113    2.162641   -0.334472
    135          1           0      -14.643658    2.554383    1.841147
    136          1           0      -14.829364    0.843836    2.241626
    137          1           0      -16.186787    1.884584    2.221794
    138          1           0      -17.608574    0.968118   -0.723336
    139          1           0      -17.317616    2.720891   -0.668722
    140          1           0      -17.615343    1.733709    0.784277
 ---------------------------------------------------------------------

 SCF Done:  E(RB-LYP) =  -3007.36003200     A.U. after   22 cycles

 Excitation energies and oscillator strengths:

 Excited State   1:      Singlet-A      1.6532 eV  749.97 nm  f=0.0028  <S**2>=0.000
     244 -> 247        0.70205
 This state for optimization and/or second-order correction.
 Total Energy, E(TD-HF/TD-DFT) =  -3007.29927832
 Copying the excited state density for this state as the 1-particle RhoCI density.

 Excited State   2:      Singlet-A      1.7837 eV  695.11 nm  f=0.2613  <S**2>=0.000
     245 -> 248        0.19138
     246 -> 247        0.68247
     246 <- 247       -0.14998

 Excited State   3:      Singlet-A      1.8768 eV  660.63 nm  f=0.0384  <S**2>=0.000
     243 -> 247        0.57360
     245 -> 247        0.38852

 Excited State   4:      Singlet-A      1.9941 eV  621.75 nm  f=0.0770  <S**2>=0.000
     243 -> 247       -0.40442
     245 -> 247        0.53013
     246 -> 248       -0.20721

 Excited State   5:      Singlet-A      2.1864 eV  567.07 nm  f=0.0001  <S**2>=0.000
     241 -> 247        0.70705

 The electronic state is 1-A.
 Alpha  occ. eigenvalues --  -46.28578 -18.82809 -18.82686 -18.77920 -18.77775
 Alpha  occ. eigenvalues --  -18.75602 -18.75142 -14.03702 -14.03086 -14.01444
 Alpha  occ. eigenvalues --  -14.01094 -10.05006 -10.04757  -9.99612  -9.99322
 Alpha  occ. eigenvalues --   -9.98404  -9.97767  -9.97062  -9.96956  -9.96611
 Alpha  occ. eigenvalues --   -9.96358  -9.96075  -9.95998  -9.95472  -9.94993
 Alpha  occ. eigenvalues --   -9.94529  -9.94491  -9.94480  -9.94439  -9.94323
 Alpha  occ. eigenvalues --   -9.94313  -9.94124  -9.94006  -9.93985  -9.93439
 Alpha  occ. eigenvalues --   -9.93139  -9.93119  -9.93118  -9.93108  -9.93046
 Alpha  occ. eigenvalues --   -9.92916  -9.92671  -9.92370  -9.92366  -9.92246
 Alpha  occ. eigenvalues --   -9.92193  -9.92083  -9.91970  -9.91712  -9.91687
 Alpha  occ. eigenvalues --   -9.91603  -9.91506  -9.91441  -9.91380  -9.91354
 Alpha  occ. eigenvalues --   -9.91280  -9.91218  -9.91036  -9.91018  -9.90763
 Alpha  occ. eigenvalues --   -9.90726  -9.90714  -9.90647  -9.90636  -9.90503
 Alpha  occ. eigenvalues --   -9.90175  -2.93082  -1.73499  -1.73016  -1.72752
 Alpha  occ. eigenvalues --   -0.98847  -0.96873  -0.92420  -0.91793  -0.90603
 Alpha  occ. eigenvalues --   -0.89658  -0.88305  -0.87491  -0.86822  -0.84914
 Alpha  occ. eigenvalues --   -0.76425  -0.73341  -0.72954  -0.72785  -0.72404
 Alpha  occ. eigenvalues --   -0.72281  -0.71892  -0.71287  -0.70515  -0.70100
 Alpha  occ. eigenvalues --   -0.69617  -0.68854  -0.67984  -0.67812  -0.67227
 Alpha  occ. eigenvalues --   -0.66485  -0.65973  -0.65062  -0.64654  -0.64466
 Alpha  occ. eigenvalues --   -0.63572  -0.62679  -0.62490  -0.61797  -0.61366
 Alpha  occ. eigenvalues --   -0.60591  -0.60258  -0.59830  -0.59574  -0.58981
 Alpha  occ. eigenvalues --   -0.58400  -0.57821  -0.57184  -0.56005  -0.55009
 Alpha  occ. eigenvalues --   -0.54591  -0.53620  -0.52499  -0.52279  -0.51827
 Alpha  occ. eigenvalues --   -0.51330  -0.51131  -0.50643  -0.50449  -0.50361
 Alpha  occ. eigenvalues --   -0.49805  -0.49543  -0.49224  -0.48459  -0.46824
 Alpha  occ. eigenvalues --   -0.46578  -0.46070  -0.45789  -0.45336  -0.44929
 Alpha  occ. eigenvalues --   -0.44209  -0.43638  -0.43467  -0.43024  -0.42726
 Alpha  occ. eigenvalues --   -0.42476  -0.41765  -0.41612  -0.41286  -0.40946
 Alpha  occ. eigenvalues --   -0.40921  -0.40729  -0.40589  -0.40169  -0.40127
 Alpha  occ. eigenvalues --   -0.39979  -0.39575  -0.39499  -0.39436  -0.39226
 Alpha  occ. eigenvalues --   -0.38973  -0.38875  -0.38701  -0.38415  -0.38284
 Alpha  occ. eigenvalues --   -0.38224  -0.38050  -0.37795  -0.37605  -0.37478
 Alpha  occ. eigenvalues --   -0.37215  -0.37001  -0.36797  -0.36619  -0.36518
 Alpha  occ. eigenvalues --   -0.36365  -0.36139  -0.35993  -0.35823  -0.35661
 Alpha  occ. eigenvalues --   -0.35479  -0.35373  -0.34863  -0.34721  -0.34651
 Alpha  occ. eigenvalues --   -0.34566  -0.34389  -0.34374  -0.34274  -0.34242
 Alpha  occ. eigenvalues --   -0.33773  -0.33664  -0.33609  -0.33428  -0.33401
 Alpha  occ. eigenvalues --   -0.33326  -0.33260  -0.33197  -0.32853  -0.32466
 Alpha  occ. eigenvalues --   -0.32309  -0.32151  -0.31959  -0.31743  -0.31505
 Alpha  occ. eigenvalues --   -0.31399  -0.31166  -0.31137  -0.30982  -0.30891
 Alpha  occ. eigenvalues --   -0.30773  -0.30596  -0.30399  -0.30312  -0.30134
 Alpha  occ. eigenvalues --   -0.30019  -0.29825  -0.29522  -0.29116  -0.29092
 Alpha  occ. eigenvalues --   -0.28835  -0.28628  -0.28592  -0.28304  -0.28129
 Alpha  occ. eigenvalues --   -0.27620  -0.27382  -0.27063  -0.26845  -0.26518
 Alpha  occ. eigenvalues --   -0.26277  -0.26049  -0.25720  -0.25395  -0.25283
 Alpha  occ. eigenvalues --   -0.25153  -0.24965  -0.24533  -0.24062  -0.23652
 Alpha  occ. eigenvalues --   -0.23625  -0.22754  -0.22589  -0.21968  -0.21268
 Alpha  occ. eigenvalues --   -0.20105  -0.20048  -0.18948  -0.18082  -0.17475
 Alpha  occ. eigenvalues --   -0.16264
 Alpha virt. eigenvalues --   -0.12071  -0.07024  -0.06550  -0.04651  -0.04018
 Alpha virt. eigenvalues --   -0.03684  -0.03009  -0.01685  -0.01053  -0.00450
 Alpha virt. eigenvalues --    0.00612   0.01302   0.01880   0.02463   0.02741

 Mulliken charges:
               1
     1  Mg   0.698687
     2  C   -0.010714
     3  C   -0.063965
     4  C   -0.030538
     5  C   -0.080138
     6  N   -0.254376
     7  C   -0.039584
     8  C   -0.025046
     9  C    0.004711
    10  C    0.047292
    11  C    0.143543
    12  C    0.149677
    13  C    0.137760
    14  C    0.066355
    15  O   -0.143716
    16  O   -0.272576
    17  N   -0.279798
    18  C    0.084451
    19  C   -0.125390
    20  C    0.012198
    21  C    0.094710
    22  C    0.182320
    23  C   -0.080868
    24  O   -0.143763
    25  C    0.116829
    26  N   -0.102759
    27  C   -0.007520
    28  C   -0.047002
    29  C    0.095033
    30  C   -0.047058
    31  C    0.101056
    32  C    0.115548
    33  C    0.065921
    34  N   -0.252028
    35  C    0.085125
    36  C   -0.175229
    37  C    0.122388
    38  C    0.062408
    39  C    0.174514
    40  C   -0.087997
    41  O   -0.152463
    42  C    0.128726
    43  C    0.133740
    44  O   -0.190387
    45  O   -0.301016
    46  C    0.230260
    47  C    0.315956
    48  C   -0.105077
    49  C   -0.166872
    50  C    0.139655
    51  C    0.116389
    52  C    0.067301
    53  C    0.112194
    54  C   -0.107881
    55  C    0.132432
    56  C    0.073656
    57  C    0.050541
    58  C    0.142509
    59  C   -0.101909
    60  C    0.091575
    61  C    0.131944
    62  C    0.062539
    63  C    0.093006
    64  C   -0.093515
    65  C    0.082531
    66  C    0.121650
    67  H   -0.053548
    68  H   -0.051413
    69  H   -0.069529
    70  H   -0.029514
    71  H   -0.036850
    72  H   -0.004463
    73  H    0.001550
    74  H    0.000319
    75  H   -0.017246
    76  H   -0.022998
    77  H    0.011527
    78  H   -0.002863
    79  H    0.011153
    80  H    0.003919
    81  H   -0.017139
    82  H    0.018295
    83  H   -0.005558
    84  H   -0.013150
    85  H   -0.011185
    86  H   -0.033917
    87  H   -0.006611
    88  H   -0.001544
    89  H   -0.001036
    90  H   -0.022779
    91  H   -0.027503
    92  H   -0.012280
    93  H   -0.004676
    94  H   -0.014138
    95  H    0.003337
    96  H    0.010155
    97  H   -0.012890
    98  H   -0.007159
    99  H    0.026630
   100  H    0.007310
   101  H    0.023954
   102  H   -0.001387
   103  H    0.014247
   104  H   -0.036919
   105  H   -0.005251
   106  H    0.003273
   107  H   -0.026578
   108  H   -0.024726
   109  H   -0.047492
   110  H   -0.020162
   111  H   -0.010574
   112  H   -0.022032
   113  H   -0.041805
   114  H   -0.033412
   115  H   -0.009695
   116  H   -0.025760
   117  H   -0.017976
   118  H   -0.040133
   119  H   -0.032683
   120  H   -0.014832
   121  H   -0.023262
   122  H   -0.037755
   123  H   -0.040298
   124  H   -0.026303
   125  H    0.000691
   126  H   -0.032018
   127  H   -0.027976
   128  H   -0.039012
   129  H   -0.028966
   130  H   -0.034189
   131  H   -0.031145
   132  H   -0.036415
   133  H   -0.045905
   134  H   -0.031990
   135  H   -0.014272
   136  H   -0.005225
   137  H   -0.032415
   138  H   -0.023215
   139  H   -0.002743
   140  H   -0.029793
 Sum of Mulliken charges =  -0.00000

 Dipole moment (field-independent basis, Debye):
    X=              2.5521    Y=              3.9503    Z=              1.6275  Tot=              4.9766
 Quadrupole moment (field-independent basis, Debye-Ang):
   XX=           -359.7355   YY=           -437.2332   ZZ=           -419.2909
   XY=              5.7105   XZ=              7.2920   YZ=             39.6547

 Normal termination of Gaussian 16 at Thu Apr 28 19:30:20 2022.
