 Gaussian 16, Revision A.03,
 Gaussian 16:  ES64L-G16RevA.03 25-Dec-2016

 -----------------------------------
 #p cam-b3lyp/Def2SVP td=(nstates=5)
 -----------------------------------

 --------------------------------------------------------
 step_1701_chromophore_14 TDDFT with cam-b3lyp functional
 --------------------------------------------------------
 Symbolic Z-matrix:
 Charge =  0 Multiplicity = 1

                         Standard orientation:
 ---------------------------------------------------------------------
 Center     Atomic      Atomic             Coordinates (Angstroms)
 Number     Number       Type             X           Y           Z
 ---------------------------------------------------------------------
      1         12           0        5.260755    0.516133   -0.192241
      2          6           0        4.460171   -2.610509    0.593229
      3          6           0        3.787162    0.139525   -3.317419
      4          6           0        5.469172    3.911162   -0.581182
      5          6           0        6.194683    1.098364    3.241527
      6          7           0        4.265342   -0.970142   -1.238068
      7          6           0        3.970272   -2.173823   -0.664882
      8          6           0        3.028879   -2.962763   -1.528186
      9          6           0        3.297471   -2.296881   -2.939836
     10          6           0        3.640019   -0.906346   -2.433945
     11          6           0        4.436274   -2.970161   -3.796784
     12          6           0        1.530362   -3.038243   -1.002475
     13          6           0        0.771071   -4.283051   -1.538536
     14          6           0       -0.709842   -4.079817   -2.040566
     15          8           0       -1.136826   -4.444817   -3.096212
     16          8           0       -1.452641   -3.513221   -1.010761
     17          7           0        4.763570    1.866743   -1.797654
     18          6           0        4.218799    1.486991   -3.047436
     19          6           0        4.330823    2.570067   -3.972245
     20          6           0        4.730038    3.637021   -3.122445
     21          6           0        5.071164    3.165508   -1.765582
     22          6           0        3.848983    2.549665   -5.367798
     23          6           0        4.685078    5.132853   -3.547408
     24          8           0        4.490914    5.444312   -4.689118
     25          6           0        4.947362    6.284482   -2.579374
     26          7           0        5.578292    2.331440    1.304967
     27          6           0        5.632473    3.570117    0.745366
     28          6           0        6.164963    4.629676    1.751175
     29          6           0        6.376602    3.725535    2.982290
     30          6           0        6.038690    2.324927    2.498716
     31          6           0        7.486409    5.291495    1.190052
     32          6           0        5.791823    4.246761    4.334872
     33          6           0        6.750874    4.792858    5.350083
     34          7           0        5.500400   -0.522893    1.578215
     35          6           0        5.877636   -0.246966    2.859536
     36          6           0        5.762708   -1.428761    3.712880
     37          6           0        5.242318   -2.414534    2.824609
     38          6           0        5.124776   -1.813507    1.590568
     39          6           0        5.903031   -1.505719    5.187185
     40          6           0        4.753210   -3.757502    2.688187
     41          8           0        4.580752   -4.641084    3.547420
     42          6           0        4.317986   -3.979640    1.284028
     43          6           0        5.097862   -5.058522    0.553014
     44          8           0        4.606770   -6.168119    0.286101
     45          8           0        6.311331   -4.556497    0.045305
     46          6           0        7.180743   -5.606320   -0.546192
     47          6           0       -2.687222   -2.955781   -1.478567
     48          6           0       -3.117887   -1.856594   -0.543779
     49          6           0       -3.830297   -0.787965   -0.854250
     50          6           0       -4.651037   -0.586823   -2.107110
     51          6           0       -4.043214    0.363800    0.165997
     52          6           0       -5.399326    0.364255    0.982949
     53          6           0       -6.057868    1.780954    0.926416
     54          6           0       -7.517690    1.685155    0.320082
     55          6           0       -7.852297    2.975526   -0.459439
     56          6           0       -8.583700    1.486449    1.413644
     57          6           0      -10.005521    1.270961    0.796749
     58          6           0      -10.537656   -0.181731    0.560596
     59          6           0      -11.853430   -0.511199    1.293079
     60          6           0      -11.633400   -1.364282    2.611095
     61          6           0      -12.932013   -1.152572    0.316021
     62          6           0      -13.665335   -0.138070   -0.498646
     63          6           0      -15.150730   -0.006261   -0.255406
     64          6           0      -15.634158    1.442546    0.168706
     65          6           0      -15.263718    1.672497    1.682332
     66          6           0      -17.107106    1.768964   -0.180222
     67          1           0        3.310455   -0.003041   -4.288828
     68          1           0        5.965249    4.857521   -0.804891
     69          1           0        6.546557    1.199377    4.269714
     70          1           0        3.445777   -3.970737   -1.517625
     71          1           0        2.379513   -2.194351   -3.518354
     72          1           0        5.385173   -2.435271   -3.771205
     73          1           0        4.143673   -2.958319   -4.845988
     74          1           0        4.633798   -3.966666   -3.401655
     75          1           0        1.049423   -2.077148   -1.186190
     76          1           0        1.608356   -3.105768    0.083114
     77          1           0        0.688845   -4.980474   -0.704988
     78          1           0        1.372959   -4.793045   -2.290109
     79          1           0        4.170780    3.410949   -5.953022
     80          1           0        2.763941    2.450576   -5.406341
     81          1           0        4.233896    1.647166   -5.841767
     82          1           0        6.005570    6.434878   -2.368087
     83          1           0        4.455403    6.176520   -1.612715
     84          1           0        4.576966    7.194932   -3.050874
     85          1           0        5.506353    5.493617    1.849936
     86          1           0        7.450825    3.693666    3.168257
     87          1           0        8.290436    5.217067    1.922139
     88          1           0        7.255668    6.312420    0.884852
     89          1           0        7.822413    4.752562    0.304101
     90          1           0        5.170070    3.425244    4.689424
     91          1           0        5.156004    5.102647    4.109274
     92          1           0        7.582097    5.306396    4.867777
     93          1           0        7.121563    4.041224    6.047655
     94          1           0        6.295451    5.564326    5.971609
     95          1           0        5.764163   -2.535832    5.515589
     96          1           0        5.254323   -0.810143    5.719928
     97          1           0        6.924782   -1.316223    5.516222
     98          1           0        3.284113   -4.320151    1.348281
     99          1           0        8.184533   -5.200853   -0.670366
    100          1           0        6.669319   -5.812189   -1.486803
    101          1           0        7.129635   -6.535724    0.021021
    102          1           0       -3.542938   -3.604604   -1.287745
    103          1           0       -2.717340   -2.642296   -2.521657
    104          1           0       -2.636235   -1.853987    0.434770
    105          1           0       -4.293904    0.263589   -2.688450
    106          1           0       -5.720887   -0.437627   -1.958156
    107          1           0       -4.513836   -1.503552   -2.679479
    108          1           0       -3.840110    1.321608   -0.312742
    109          1           0       -3.265306    0.183948    0.907323
    110          1           0       -5.159723    0.178282    2.030306
    111          1           0       -6.009121   -0.368059    0.453745
    112          1           0       -5.340589    2.459894    0.463834
    113          1           0       -6.179907    2.047329    1.976358
    114          1           0       -7.595338    0.779114   -0.279995
    115          1           0       -7.995359    2.802248   -1.526112
    116          1           0       -7.041368    3.675381   -0.257039
    117          1           0       -8.744085    3.404636   -0.002383
    118          1           0       -8.681955    2.383205    2.025816
    119          1           0       -8.224161    0.717184    2.097151
    120          1           0      -10.169089    1.746098   -0.170621
    121          1           0      -10.519939    1.818880    1.585223
    122          1           0       -9.806609   -0.916302    0.899402
    123          1           0      -10.722448   -0.357641   -0.499627
    124          1           0      -12.220541    0.434698    1.690004
    125          1           0      -12.272891   -1.140529    3.464616
    126          1           0      -10.596268   -1.448478    2.933722
    127          1           0      -11.687555   -2.403305    2.285499
    128          1           0      -13.648022   -1.664569    0.958805
    129          1           0      -12.560768   -1.818574   -0.462760
    130          1           0      -13.556563   -0.205278   -1.581541
    131          1           0      -13.183690    0.799704   -0.220167
    132          1           0      -15.506199   -0.741323    0.466549
    133          1           0      -15.657191   -0.299846   -1.174890
    134          1           0      -14.990113    2.162641   -0.334472
    135          1           0      -14.643658    2.554383    1.841147
    136          1           0      -14.829364    0.843836    2.241626
    137          1           0      -16.186787    1.884584    2.221794
    138          1           0      -17.608574    0.968118   -0.723336
    139          1           0      -17.317616    2.720891   -0.668722
    140          1           0      -17.615343    1.733709    0.784277
 ---------------------------------------------------------------------

 SCF Done:  E(RCAM-B3LYP) =  -3007.15195490     A.U. after   19 cycles

 Excitation energies and oscillator strengths:

 Excited State   1:      Singlet-A      1.6917 eV  732.91 nm  f=0.3663  <S**2>=0.000
     245 -> 248        0.17837
     246 -> 247        0.68505
     245 <- 248        0.10830
 This state for optimization and/or second-order correction.
 Total Energy, E(TD-HF/TD-DFT) =  -3007.08978752
 Copying the excited state density for this state as the 1-particle RhoCI density.

 Excited State   2:      Singlet-A      2.1736 eV  570.40 nm  f=0.1386  <S**2>=0.000
     245 -> 247        0.65001
     246 -> 248       -0.26537

 Excited State   3:      Singlet-A      3.1960 eV  387.94 nm  f=0.0090  <S**2>=0.000
     242 -> 247       -0.10415
     244 -> 247        0.67673

 Excited State   4:      Singlet-A      3.3909 eV  365.64 nm  f=0.0087  <S**2>=0.000
     239 -> 247        0.42363
     239 -> 249       -0.28842
     240 -> 247        0.33549
     240 -> 249       -0.19609
     241 -> 247        0.15698
     246 -> 248        0.13400

 Excited State   5:      Singlet-A      3.4754 eV  356.75 nm  f=0.0937  <S**2>=0.000
     239 -> 247       -0.16884
     241 -> 247        0.50155
     242 -> 247        0.20032
     246 -> 248        0.34022

 The electronic state is 1-A.
 Alpha  occ. eigenvalues --  -46.90236 -19.25800 -19.25518 -19.21030 -19.20941
 Alpha  occ. eigenvalues --  -19.19113 -19.18129 -14.42577 -14.41977 -14.39973
 Alpha  occ. eigenvalues --  -14.39467 -10.40686 -10.40045 -10.35152 -10.34251
 Alpha  occ. eigenvalues --  -10.32449 -10.31773 -10.31685 -10.31559 -10.30984
 Alpha  occ. eigenvalues --  -10.30963 -10.30257 -10.30173 -10.29607 -10.29480
 Alpha  occ. eigenvalues --  -10.29443 -10.28968 -10.28700 -10.28426 -10.28414
 Alpha  occ. eigenvalues --  -10.28409 -10.28091 -10.28010 -10.28003 -10.27780
 Alpha  occ. eigenvalues --  -10.27305 -10.27276 -10.26943 -10.26906 -10.26790
 Alpha  occ. eigenvalues --  -10.26741 -10.26637 -10.26448 -10.26242 -10.26057
 Alpha  occ. eigenvalues --  -10.26051 -10.25982 -10.25739 -10.25698 -10.25444
 Alpha  occ. eigenvalues --  -10.25437 -10.25274 -10.25236 -10.25134 -10.25113
 Alpha  occ. eigenvalues --  -10.24961 -10.24903 -10.24720 -10.24691 -10.24364
 Alpha  occ. eigenvalues --  -10.24350 -10.24323 -10.24282 -10.24252 -10.24074
 Alpha  occ. eigenvalues --  -10.23746  -3.18635  -1.93530  -1.93132  -1.92891
 Alpha  occ. eigenvalues --   -1.17323  -1.15438  -1.10673  -1.09690  -1.09253
 Alpha  occ. eigenvalues --   -1.07674  -1.06190  -1.05309  -1.04581  -1.02253
 Alpha  occ. eigenvalues --   -0.93795  -0.90191  -0.89683  -0.89569  -0.89147
 Alpha  occ. eigenvalues --   -0.88986  -0.88585  -0.87972  -0.87168  -0.86618
 Alpha  occ. eigenvalues --   -0.85998  -0.85147  -0.84305  -0.84033  -0.83400
 Alpha  occ. eigenvalues --   -0.82530  -0.82096  -0.80882  -0.80519  -0.80349
 Alpha  occ. eigenvalues --   -0.79325  -0.78370  -0.78064  -0.77358  -0.76861
 Alpha  occ. eigenvalues --   -0.75885  -0.75584  -0.75157  -0.74864  -0.74219
 Alpha  occ. eigenvalues --   -0.73531  -0.72812  -0.72104  -0.70823  -0.69668
 Alpha  occ. eigenvalues --   -0.69343  -0.68156  -0.66828  -0.66445  -0.66139
 Alpha  occ. eigenvalues --   -0.65450  -0.65275  -0.64700  -0.64454  -0.64387
 Alpha  occ. eigenvalues --   -0.63670  -0.63545  -0.63181  -0.62318  -0.60595
 Alpha  occ. eigenvalues --   -0.60310  -0.59639  -0.59318  -0.58673  -0.58444
 Alpha  occ. eigenvalues --   -0.57701  -0.56846  -0.56715  -0.56208  -0.55989
 Alpha  occ. eigenvalues --   -0.55776  -0.54901  -0.54776  -0.54292  -0.54219
 Alpha  occ. eigenvalues --   -0.53601  -0.53556  -0.53189  -0.53146  -0.52796
 Alpha  occ. eigenvalues --   -0.52650  -0.52321  -0.52049  -0.51970  -0.51788
 Alpha  occ. eigenvalues --   -0.51530  -0.51340  -0.51329  -0.50918  -0.50596
 Alpha  occ. eigenvalues --   -0.50524  -0.50383  -0.50210  -0.49889  -0.49686
 Alpha  occ. eigenvalues --   -0.49533  -0.49237  -0.49103  -0.48952  -0.48834
 Alpha  occ. eigenvalues --   -0.48555  -0.48477  -0.48387  -0.48094  -0.47915
 Alpha  occ. eigenvalues --   -0.47609  -0.47480  -0.46707  -0.46637  -0.46537
 Alpha  occ. eigenvalues --   -0.46475  -0.46327  -0.46151  -0.46134  -0.46009
 Alpha  occ. eigenvalues --   -0.45654  -0.45569  -0.45522  -0.45284  -0.45176
 Alpha  occ. eigenvalues --   -0.44950  -0.44915  -0.44761  -0.44694  -0.44448
 Alpha  occ. eigenvalues --   -0.44232  -0.43799  -0.43456  -0.43258  -0.43120
 Alpha  occ. eigenvalues --   -0.42884  -0.42759  -0.42624  -0.42563  -0.42325
 Alpha  occ. eigenvalues --   -0.42218  -0.42049  -0.41896  -0.41741  -0.41482
 Alpha  occ. eigenvalues --   -0.41402  -0.41026  -0.40756  -0.40187  -0.40132
 Alpha  occ. eigenvalues --   -0.39843  -0.39724  -0.39613  -0.39235  -0.39078
 Alpha  occ. eigenvalues --   -0.38469  -0.38298  -0.38254  -0.37937  -0.37283
 Alpha  occ. eigenvalues --   -0.37274  -0.36952  -0.36856  -0.36599  -0.36190
 Alpha  occ. eigenvalues --   -0.35765  -0.35541  -0.35103  -0.35061  -0.34706
 Alpha  occ. eigenvalues --   -0.34408  -0.33987  -0.33298  -0.31708  -0.31327
 Alpha  occ. eigenvalues --   -0.30791  -0.30005  -0.29735  -0.29104  -0.24265
 Alpha  occ. eigenvalues --   -0.21615
 Alpha virt. eigenvalues --   -0.09345  -0.01922  -0.00112   0.01326   0.02565
 Alpha virt. eigenvalues --    0.03658   0.04736   0.05589   0.06025   0.06483
 Alpha virt. eigenvalues --    0.07470   0.07913   0.08335   0.08532   0.08988

 Mulliken charges:
               1
     1  Mg   0.829758
     2  C   -0.046878
     3  C   -0.069329
     4  C   -0.053615
     5  C   -0.083859
     6  N   -0.325090
     7  C    0.009067
     8  C   -0.081326
     9  C   -0.054516
    10  C    0.061152
    11  C    0.090639
    12  C    0.101620
    13  C    0.070646
    14  C    0.145048
    15  O   -0.184749
    16  O   -0.336007
    17  N   -0.364033
    18  C    0.087794
    19  C   -0.128641
    20  C   -0.061957
    21  C    0.126353
    22  C    0.121159
    23  C   -0.004288
    24  O   -0.186045
    25  C    0.034181
    26  N   -0.173183
    27  C    0.015899
    28  C   -0.093825
    29  C    0.032509
    30  C   -0.020582
    31  C    0.041631
    32  C    0.055289
    33  C    0.005454
    34  N   -0.344105
    35  C    0.093448
    36  C   -0.160009
    37  C    0.034840
    38  C    0.109061
    39  C    0.116137
    40  C    0.012377
    41  O   -0.188921
    42  C    0.052120
    43  C    0.223182
    44  O   -0.228702
    45  O   -0.363089
    46  C    0.188176
    47  C    0.278376
    48  C   -0.123356
    49  C   -0.190447
    50  C    0.082188
    51  C    0.061238
    52  C    0.015161
    53  C    0.056110
    54  C   -0.156622
    55  C    0.069409
    56  C    0.025263
    57  C   -0.007363
    58  C    0.090315
    59  C   -0.153117
    60  C    0.033616
    61  C    0.070533
    62  C    0.010765
    63  C    0.039933
    64  C   -0.152771
    65  C    0.024335
    66  C    0.060779
    67  H   -0.019456
    68  H   -0.019426
    69  H   -0.033465
    70  H    0.003004
    71  H   -0.001156
    72  H    0.021078
    73  H    0.025292
    74  H    0.020918
    75  H    0.014699
    76  H    0.007123
    77  H    0.042643
    78  H    0.029483
    79  H    0.042396
    80  H    0.029456
    81  H    0.007479
    82  H    0.043080
    83  H    0.023112
    84  H    0.022143
    85  H    0.022349
    86  H    0.002321
    87  H    0.017519
    88  H    0.021530
    89  H    0.024579
    90  H    0.007276
    91  H    0.002215
    92  H    0.009528
    93  H    0.017642
    94  H    0.011905
    95  H    0.033366
    96  H    0.037108
    97  H    0.015129
    98  H    0.035963
    99  H    0.050638
   100  H    0.030319
   101  H    0.047680
   102  H    0.025878
   103  H    0.042113
   104  H   -0.000809
   105  H    0.020121
   106  H    0.025217
   107  H   -0.003674
   108  H    0.003103
   109  H   -0.016435
   110  H    0.008991
   111  H    0.013914
   112  H    0.005705
   113  H   -0.011853
   114  H   -0.006566
   115  H    0.014726
   116  H   -0.000005
   117  H    0.005972
   118  H   -0.010941
   119  H   -0.005619
   120  H    0.013266
   121  H    0.004771
   122  H   -0.009811
   123  H   -0.010465
   124  H    0.002421
   125  H    0.023659
   126  H   -0.006828
   127  H   -0.003625
   128  H   -0.008967
   129  H    0.000747
   130  H   -0.004085
   131  H   -0.005485
   132  H   -0.008699
   133  H   -0.015569
   134  H    0.000017
   135  H    0.009413
   136  H    0.015285
   137  H   -0.007491
   138  H    0.001953
   139  H    0.021446
   140  H   -0.006397
 Sum of Mulliken charges =  -0.00000

 Dipole moment (field-independent basis, Debye):
    X=              2.8760    Y=              4.0594    Z=              2.1655  Tot=              5.4258
 Quadrupole moment (field-independent basis, Debye-Ang):
   XX=           -356.7582   YY=           -435.2891   ZZ=           -417.8643
   XY=              5.6254   XZ=              9.9750   YZ=             40.5526

 Normal termination of Gaussian 16 at Thu Apr 28 18:23:40 2022.
