 Gaussian 16, Revision A.03,
 Gaussian 16:  ES64L-G16RevA.03 25-Dec-2016

 ---------------------------------
 #p PBE1PBE/Def2SVP td=(nstates=5)
 ---------------------------------

 ------------------------------------------------------
 step_1701_chromophore_14 TDDFT with PBE1PBE functional
 ------------------------------------------------------
 Symbolic Z-matrix:
 Charge =  0 Multiplicity = 1

                         Standard orientation:
 ---------------------------------------------------------------------
 Center     Atomic      Atomic             Coordinates (Angstroms)
 Number     Number       Type             X           Y           Z
 ---------------------------------------------------------------------
      1         12           0        5.260755    0.516133   -0.192241
      2          6           0        4.460171   -2.610509    0.593229
      3          6           0        3.787162    0.139525   -3.317419
      4          6           0        5.469172    3.911162   -0.581182
      5          6           0        6.194683    1.098364    3.241527
      6          7           0        4.265342   -0.970142   -1.238068
      7          6           0        3.970272   -2.173823   -0.664882
      8          6           0        3.028879   -2.962763   -1.528186
      9          6           0        3.297471   -2.296881   -2.939836
     10          6           0        3.640019   -0.906346   -2.433945
     11          6           0        4.436274   -2.970161   -3.796784
     12          6           0        1.530362   -3.038243   -1.002475
     13          6           0        0.771071   -4.283051   -1.538536
     14          6           0       -0.709842   -4.079817   -2.040566
     15          8           0       -1.136826   -4.444817   -3.096212
     16          8           0       -1.452641   -3.513221   -1.010761
     17          7           0        4.763570    1.866743   -1.797654
     18          6           0        4.218799    1.486991   -3.047436
     19          6           0        4.330823    2.570067   -3.972245
     20          6           0        4.730038    3.637021   -3.122445
     21          6           0        5.071164    3.165508   -1.765582
     22          6           0        3.848983    2.549665   -5.367798
     23          6           0        4.685078    5.132853   -3.547408
     24          8           0        4.490914    5.444312   -4.689118
     25          6           0        4.947362    6.284482   -2.579374
     26          7           0        5.578292    2.331440    1.304967
     27          6           0        5.632473    3.570117    0.745366
     28          6           0        6.164963    4.629676    1.751175
     29          6           0        6.376602    3.725535    2.982290
     30          6           0        6.038690    2.324927    2.498716
     31          6           0        7.486409    5.291495    1.190052
     32          6           0        5.791823    4.246761    4.334872
     33          6           0        6.750874    4.792858    5.350083
     34          7           0        5.500400   -0.522893    1.578215
     35          6           0        5.877636   -0.246966    2.859536
     36          6           0        5.762708   -1.428761    3.712880
     37          6           0        5.242318   -2.414534    2.824609
     38          6           0        5.124776   -1.813507    1.590568
     39          6           0        5.903031   -1.505719    5.187185
     40          6           0        4.753210   -3.757502    2.688187
     41          8           0        4.580752   -4.641084    3.547420
     42          6           0        4.317986   -3.979640    1.284028
     43          6           0        5.097862   -5.058522    0.553014
     44          8           0        4.606770   -6.168119    0.286101
     45          8           0        6.311331   -4.556497    0.045305
     46          6           0        7.180743   -5.606320   -0.546192
     47          6           0       -2.687222   -2.955781   -1.478567
     48          6           0       -3.117887   -1.856594   -0.543779
     49          6           0       -3.830297   -0.787965   -0.854250
     50          6           0       -4.651037   -0.586823   -2.107110
     51          6           0       -4.043214    0.363800    0.165997
     52          6           0       -5.399326    0.364255    0.982949
     53          6           0       -6.057868    1.780954    0.926416
     54          6           0       -7.517690    1.685155    0.320082
     55          6           0       -7.852297    2.975526   -0.459439
     56          6           0       -8.583700    1.486449    1.413644
     57          6           0      -10.005521    1.270961    0.796749
     58          6           0      -10.537656   -0.181731    0.560596
     59          6           0      -11.853430   -0.511199    1.293079
     60          6           0      -11.633400   -1.364282    2.611095
     61          6           0      -12.932013   -1.152572    0.316021
     62          6           0      -13.665335   -0.138070   -0.498646
     63          6           0      -15.150730   -0.006261   -0.255406
     64          6           0      -15.634158    1.442546    0.168706
     65          6           0      -15.263718    1.672497    1.682332
     66          6           0      -17.107106    1.768964   -0.180222
     67          1           0        3.310455   -0.003041   -4.288828
     68          1           0        5.965249    4.857521   -0.804891
     69          1           0        6.546557    1.199377    4.269714
     70          1           0        3.445777   -3.970737   -1.517625
     71          1           0        2.379513   -2.194351   -3.518354
     72          1           0        5.385173   -2.435271   -3.771205
     73          1           0        4.143673   -2.958319   -4.845988
     74          1           0        4.633798   -3.966666   -3.401655
     75          1           0        1.049423   -2.077148   -1.186190
     76          1           0        1.608356   -3.105768    0.083114
     77          1           0        0.688845   -4.980474   -0.704988
     78          1           0        1.372959   -4.793045   -2.290109
     79          1           0        4.170780    3.410949   -5.953022
     80          1           0        2.763941    2.450576   -5.406341
     81          1           0        4.233896    1.647166   -5.841767
     82          1           0        6.005570    6.434878   -2.368087
     83          1           0        4.455403    6.176520   -1.612715
     84          1           0        4.576966    7.194932   -3.050874
     85          1           0        5.506353    5.493617    1.849936
     86          1           0        7.450825    3.693666    3.168257
     87          1           0        8.290436    5.217067    1.922139
     88          1           0        7.255668    6.312420    0.884852
     89          1           0        7.822413    4.752562    0.304101
     90          1           0        5.170070    3.425244    4.689424
     91          1           0        5.156004    5.102647    4.109274
     92          1           0        7.582097    5.306396    4.867777
     93          1           0        7.121563    4.041224    6.047655
     94          1           0        6.295451    5.564326    5.971609
     95          1           0        5.764163   -2.535832    5.515589
     96          1           0        5.254323   -0.810143    5.719928
     97          1           0        6.924782   -1.316223    5.516222
     98          1           0        3.284113   -4.320151    1.348281
     99          1           0        8.184533   -5.200853   -0.670366
    100          1           0        6.669319   -5.812189   -1.486803
    101          1           0        7.129635   -6.535724    0.021021
    102          1           0       -3.542938   -3.604604   -1.287745
    103          1           0       -2.717340   -2.642296   -2.521657
    104          1           0       -2.636235   -1.853987    0.434770
    105          1           0       -4.293904    0.263589   -2.688450
    106          1           0       -5.720887   -0.437627   -1.958156
    107          1           0       -4.513836   -1.503552   -2.679479
    108          1           0       -3.840110    1.321608   -0.312742
    109          1           0       -3.265306    0.183948    0.907323
    110          1           0       -5.159723    0.178282    2.030306
    111          1           0       -6.009121   -0.368059    0.453745
    112          1           0       -5.340589    2.459894    0.463834
    113          1           0       -6.179907    2.047329    1.976358
    114          1           0       -7.595338    0.779114   -0.279995
    115          1           0       -7.995359    2.802248   -1.526112
    116          1           0       -7.041368    3.675381   -0.257039
    117          1           0       -8.744085    3.404636   -0.002383
    118          1           0       -8.681955    2.383205    2.025816
    119          1           0       -8.224161    0.717184    2.097151
    120          1           0      -10.169089    1.746098   -0.170621
    121          1           0      -10.519939    1.818880    1.585223
    122          1           0       -9.806609   -0.916302    0.899402
    123          1           0      -10.722448   -0.357641   -0.499627
    124          1           0      -12.220541    0.434698    1.690004
    125          1           0      -12.272891   -1.140529    3.464616
    126          1           0      -10.596268   -1.448478    2.933722
    127          1           0      -11.687555   -2.403305    2.285499
    128          1           0      -13.648022   -1.664569    0.958805
    129          1           0      -12.560768   -1.818574   -0.462760
    130          1           0      -13.556563   -0.205278   -1.581541
    131          1           0      -13.183690    0.799704   -0.220167
    132          1           0      -15.506199   -0.741323    0.466549
    133          1           0      -15.657191   -0.299846   -1.174890
    134          1           0      -14.990113    2.162641   -0.334472
    135          1           0      -14.643658    2.554383    1.841147
    136          1           0      -14.829364    0.843836    2.241626
    137          1           0      -16.186787    1.884584    2.221794
    138          1           0      -17.608574    0.968118   -0.723336
    139          1           0      -17.317616    2.720891   -0.668722
    140          1           0      -17.615343    1.733709    0.784277
 ---------------------------------------------------------------------

 SCF Done:  E(RPBE1PBE) =  -3005.34185959     A.U. after   15 cycles

 Excitation energies and oscillator strengths:

 Excited State   1:      Singlet-A      1.8415 eV  673.29 nm  f=0.3472  <S**2>=0.000
     245 -> 248        0.17398
     246 -> 247        0.69290
     246 <- 247       -0.11118
 This state for optimization and/or second-order correction.
 Total Energy, E(TD-HF/TD-DFT) =  -3005.27418653
 Copying the excited state density for this state as the 1-particle RhoCI density.

 Excited State   2:      Singlet-A      2.1803 eV  568.67 nm  f=0.1329  <S**2>=0.000
     245 -> 247        0.66075
     246 -> 248       -0.23986

 Excited State   3:      Singlet-A      2.7768 eV  446.50 nm  f=0.0041  <S**2>=0.000
     244 -> 247        0.69427

 Excited State   4:      Singlet-A      2.8545 eV  434.34 nm  f=0.0049  <S**2>=0.000
     242 -> 247        0.68980

 Excited State   5:      Singlet-A      2.9475 eV  420.64 nm  f=0.0006  <S**2>=0.000
     241 -> 247        0.65406
     241 -> 249       -0.19953

 The electronic state is 1-A.
 Alpha  occ. eigenvalues --  -46.93613 -19.26409 -19.26232 -19.21238 -19.21214
 Alpha  occ. eigenvalues --  -19.19189 -19.18444 -14.42103 -14.41362 -14.39539
 Alpha  occ. eigenvalues --  -14.39191 -10.37698 -10.37115 -10.32135 -10.31526
 Alpha  occ. eigenvalues --  -10.29620 -10.29389 -10.29109 -10.29097 -10.28760
 Alpha  occ. eigenvalues --  -10.28484 -10.28107 -10.28025 -10.27422 -10.27101
 Alpha  occ. eigenvalues --  -10.26879 -10.26535 -10.26501 -10.26278 -10.26249
 Alpha  occ. eigenvalues --  -10.26225 -10.25778 -10.25685 -10.25504 -10.25314
 Alpha  occ. eigenvalues --  -10.25165 -10.24953 -10.24643 -10.24459 -10.24384
 Alpha  occ. eigenvalues --  -10.24337 -10.24265 -10.23914 -10.23906 -10.23669
 Alpha  occ. eigenvalues --  -10.23553 -10.23467 -10.23426 -10.23149 -10.23079
 Alpha  occ. eigenvalues --  -10.22825 -10.22816 -10.22800 -10.22712 -10.22703
 Alpha  occ. eigenvalues --  -10.22538 -10.22471 -10.22320 -10.22245 -10.21923
 Alpha  occ. eigenvalues --  -10.21836 -10.21738 -10.21737 -10.21650 -10.21473
 Alpha  occ. eigenvalues --  -10.21249  -3.15595  -1.88430  -1.88012  -1.87773
 Alpha  occ. eigenvalues --   -1.12163  -1.10125  -1.05543  -1.04601  -1.03821
 Alpha  occ. eigenvalues --   -1.02456  -1.00773  -0.99903  -0.99189  -0.97070
 Alpha  occ. eigenvalues --   -0.88065  -0.84332  -0.83938  -0.83668  -0.83383
 Alpha  occ. eigenvalues --   -0.83274  -0.82699  -0.82252  -0.81439  -0.80718
 Alpha  occ. eigenvalues --   -0.80388  -0.79402  -0.78529  -0.78237  -0.77668
 Alpha  occ. eigenvalues --   -0.76725  -0.76328  -0.75110  -0.74756  -0.74639
 Alpha  occ. eigenvalues --   -0.73474  -0.72619  -0.72327  -0.71624  -0.71219
 Alpha  occ. eigenvalues --   -0.70275  -0.69755  -0.69240  -0.68984  -0.68391
 Alpha  occ. eigenvalues --   -0.67923  -0.67163  -0.66540  -0.65132  -0.63997
 Alpha  occ. eigenvalues --   -0.63766  -0.62414  -0.61269  -0.60804  -0.60379
 Alpha  occ. eigenvalues --   -0.60000  -0.59525  -0.59264  -0.59017  -0.58790
 Alpha  occ. eigenvalues --   -0.58163  -0.57682  -0.57368  -0.56479  -0.55030
 Alpha  occ. eigenvalues --   -0.54782  -0.54154  -0.53914  -0.53254  -0.53013
 Alpha  occ. eigenvalues --   -0.52163  -0.51426  -0.51218  -0.50667  -0.50434
 Alpha  occ. eigenvalues --   -0.50349  -0.49466  -0.49206  -0.48868  -0.48630
 Alpha  occ. eigenvalues --   -0.48121  -0.47964  -0.47868  -0.47639  -0.47324
 Alpha  occ. eigenvalues --   -0.47145  -0.46812  -0.46524  -0.46421  -0.46332
 Alpha  occ. eigenvalues --   -0.46113  -0.45850  -0.45826  -0.45512  -0.45192
 Alpha  occ. eigenvalues --   -0.45028  -0.44939  -0.44731  -0.44461  -0.44281
 Alpha  occ. eigenvalues --   -0.44139  -0.43896  -0.43762  -0.43558  -0.43429
 Alpha  occ. eigenvalues --   -0.43141  -0.43119  -0.43005  -0.42749  -0.42511
 Alpha  occ. eigenvalues --   -0.42191  -0.42104  -0.41431  -0.41290  -0.41258
 Alpha  occ. eigenvalues --   -0.41240  -0.41053  -0.40865  -0.40777  -0.40738
 Alpha  occ. eigenvalues --   -0.40368  -0.40328  -0.40210  -0.39978  -0.39888
 Alpha  occ. eigenvalues --   -0.39709  -0.39580  -0.39437  -0.39397  -0.39129
 Alpha  occ. eigenvalues --   -0.39013  -0.38614  -0.38182  -0.38072  -0.38011
 Alpha  occ. eigenvalues --   -0.37758  -0.37566  -0.37453  -0.37216  -0.37091
 Alpha  occ. eigenvalues --   -0.36934  -0.36890  -0.36777  -0.36585  -0.36328
 Alpha  occ. eigenvalues --   -0.36091  -0.35751  -0.35648  -0.35000  -0.34978
 Alpha  occ. eigenvalues --   -0.34651  -0.34623  -0.34365  -0.34224  -0.33851
 Alpha  occ. eigenvalues --   -0.33303  -0.33273  -0.33075  -0.32824  -0.32242
 Alpha  occ. eigenvalues --   -0.32012  -0.31903  -0.31706  -0.31647  -0.31126
 Alpha  occ. eigenvalues --   -0.30606  -0.30445  -0.29970  -0.29930  -0.29791
 Alpha  occ. eigenvalues --   -0.29385  -0.28964  -0.28872  -0.27135  -0.26314
 Alpha  occ. eigenvalues --   -0.26168  -0.25079  -0.25018  -0.24691  -0.21198
 Alpha  occ. eigenvalues --   -0.19236
 Alpha virt. eigenvalues --   -0.11740  -0.05411  -0.04285  -0.02028  -0.01378
 Alpha virt. eigenvalues --   -0.00926   0.00215   0.01167   0.02018   0.02454
 Alpha virt. eigenvalues --    0.03463   0.04114   0.04667   0.05280   0.05742

 Mulliken charges:
               1
     1  Mg   0.970476
     2  C   -0.060094
     3  C   -0.064729
     4  C   -0.064515
     5  C   -0.072259
     6  N   -0.428118
     7  C    0.078751
     8  C   -0.159168
     9  C   -0.135095
    10  C    0.100218
    11  C    0.036992
    12  C    0.054777
    13  C   -0.005965
    14  C    0.208584
    15  O   -0.219442
    16  O   -0.364855
    17  N   -0.475946
    18  C    0.110416
    19  C   -0.145388
    20  C   -0.129095
    21  C    0.178731
    22  C    0.058846
    23  C    0.055199
    24  O   -0.220687
    25  C   -0.045135
    26  N   -0.278407
    27  C    0.060001
    28  C   -0.168557
    29  C   -0.039919
    30  C    0.025049
    31  C   -0.018348
    32  C   -0.007587
    33  C   -0.068730
    34  N   -0.470589
    35  C    0.111879
    36  C   -0.172453
    37  C   -0.019593
    38  C    0.165867
    39  C    0.061404
    40  C    0.108047
    41  O   -0.235901
    42  C   -0.058923
    43  C    0.307780
    44  O   -0.263399
    45  O   -0.390121
    46  C    0.132236
    47  C    0.236676
    48  C   -0.137243
    49  C   -0.232676
    50  C    0.019832
    51  C    0.001445
    52  C   -0.047675
    53  C    0.000997
    54  C   -0.243228
    55  C    0.008079
    56  C   -0.031199
    57  C   -0.068835
    58  C    0.041022
    59  C   -0.240381
    60  C   -0.026992
    61  C    0.011257
    62  C   -0.048902
    63  C   -0.014981
    64  C   -0.246864
    65  C   -0.033745
    66  C    0.000086
    67  H    0.010844
    68  H    0.014954
    69  H   -0.000784
    70  H    0.047214
    71  H    0.035759
    72  H    0.048505
    73  H    0.052097
    74  H    0.048916
    75  H    0.046326
    76  H    0.042045
    77  H    0.074731
    78  H    0.060401
    79  H    0.070390
    80  H    0.058222
    81  H    0.036252
    82  H    0.069410
    83  H    0.051407
    84  H    0.050892
    85  H    0.057506
    86  H    0.042281
    87  H    0.045556
    88  H    0.048924
    89  H    0.052551
    90  H    0.040428
    91  H    0.035032
    92  H    0.037350
    93  H    0.045447
    94  H    0.039875
    95  H    0.060506
    96  H    0.062895
    97  H    0.042543
    98  H    0.073013
    99  H    0.072002
   100  H    0.052671
   101  H    0.069051
   102  H    0.054755
   103  H    0.067221
   104  H    0.029024
   105  H    0.047909
   106  H    0.053024
   107  H    0.024825
   108  H    0.034779
   109  H    0.017398
   110  H    0.041299
   111  H    0.046442
   112  H    0.035725
   113  H    0.022010
   114  H    0.033544
   115  H    0.042111
   116  H    0.028638
   117  H    0.033913
   118  H    0.022151
   119  H    0.027412
   120  H    0.044356
   121  H    0.035687
   122  H    0.022934
   123  H    0.022533
   124  H    0.041874
   125  H    0.050228
   126  H    0.020826
   127  H    0.024705
   128  H    0.024282
   129  H    0.032647
   130  H    0.028035
   131  H    0.029603
   132  H    0.023288
   133  H    0.017628
   134  H    0.038511
   135  H    0.036184
   136  H    0.042346
   137  H    0.019924
   138  H    0.029205
   139  H    0.048055
   140  H    0.020848
 Sum of Mulliken charges =  -0.00000

 Dipole moment (field-independent basis, Debye):
    X=              2.8068    Y=              4.2879    Z=              1.8818  Tot=              5.4595
 Quadrupole moment (field-independent basis, Debye-Ang):
   XX=           -354.0790   YY=           -431.9822   ZZ=           -413.5118
   XY=              7.3416   XZ=              9.0669   YZ=             41.3466

 Normal termination of Gaussian 16 at Thu Apr 28 18:41:50 2022.
