 Gaussian 16, Revision A.03,
 Gaussian 16:  ES64L-G16RevA.03 25-Dec-2016

 --------------------------------
 #p wB97XD/Def2SVP td=(nstates=5)
 --------------------------------

 -----------------------------------------------------
 step_1701_chromophore_14 TDDFT with wB97XD functional
 -----------------------------------------------------
 Symbolic Z-matrix:
 Charge =  0 Multiplicity = 1

                         Standard orientation:
 ---------------------------------------------------------------------
 Center     Atomic      Atomic             Coordinates (Angstroms)
 Number     Number       Type             X           Y           Z
 ---------------------------------------------------------------------
      1         12           0        5.260755    0.516133   -0.192241
      2          6           0        4.460171   -2.610509    0.593229
      3          6           0        3.787162    0.139525   -3.317419
      4          6           0        5.469172    3.911162   -0.581182
      5          6           0        6.194683    1.098364    3.241527
      6          7           0        4.265342   -0.970142   -1.238068
      7          6           0        3.970272   -2.173823   -0.664882
      8          6           0        3.028879   -2.962763   -1.528186
      9          6           0        3.297471   -2.296881   -2.939836
     10          6           0        3.640019   -0.906346   -2.433945
     11          6           0        4.436274   -2.970161   -3.796784
     12          6           0        1.530362   -3.038243   -1.002475
     13          6           0        0.771071   -4.283051   -1.538536
     14          6           0       -0.709842   -4.079817   -2.040566
     15          8           0       -1.136826   -4.444817   -3.096212
     16          8           0       -1.452641   -3.513221   -1.010761
     17          7           0        4.763570    1.866743   -1.797654
     18          6           0        4.218799    1.486991   -3.047436
     19          6           0        4.330823    2.570067   -3.972245
     20          6           0        4.730038    3.637021   -3.122445
     21          6           0        5.071164    3.165508   -1.765582
     22          6           0        3.848983    2.549665   -5.367798
     23          6           0        4.685078    5.132853   -3.547408
     24          8           0        4.490914    5.444312   -4.689118
     25          6           0        4.947362    6.284482   -2.579374
     26          7           0        5.578292    2.331440    1.304967
     27          6           0        5.632473    3.570117    0.745366
     28          6           0        6.164963    4.629676    1.751175
     29          6           0        6.376602    3.725535    2.982290
     30          6           0        6.038690    2.324927    2.498716
     31          6           0        7.486409    5.291495    1.190052
     32          6           0        5.791823    4.246761    4.334872
     33          6           0        6.750874    4.792858    5.350083
     34          7           0        5.500400   -0.522893    1.578215
     35          6           0        5.877636   -0.246966    2.859536
     36          6           0        5.762708   -1.428761    3.712880
     37          6           0        5.242318   -2.414534    2.824609
     38          6           0        5.124776   -1.813507    1.590568
     39          6           0        5.903031   -1.505719    5.187185
     40          6           0        4.753210   -3.757502    2.688187
     41          8           0        4.580752   -4.641084    3.547420
     42          6           0        4.317986   -3.979640    1.284028
     43          6           0        5.097862   -5.058522    0.553014
     44          8           0        4.606770   -6.168119    0.286101
     45          8           0        6.311331   -4.556497    0.045305
     46          6           0        7.180743   -5.606320   -0.546192
     47          6           0       -2.687222   -2.955781   -1.478567
     48          6           0       -3.117887   -1.856594   -0.543779
     49          6           0       -3.830297   -0.787965   -0.854250
     50          6           0       -4.651037   -0.586823   -2.107110
     51          6           0       -4.043214    0.363800    0.165997
     52          6           0       -5.399326    0.364255    0.982949
     53          6           0       -6.057868    1.780954    0.926416
     54          6           0       -7.517690    1.685155    0.320082
     55          6           0       -7.852297    2.975526   -0.459439
     56          6           0       -8.583700    1.486449    1.413644
     57          6           0      -10.005521    1.270961    0.796749
     58          6           0      -10.537656   -0.181731    0.560596
     59          6           0      -11.853430   -0.511199    1.293079
     60          6           0      -11.633400   -1.364282    2.611095
     61          6           0      -12.932013   -1.152572    0.316021
     62          6           0      -13.665335   -0.138070   -0.498646
     63          6           0      -15.150730   -0.006261   -0.255406
     64          6           0      -15.634158    1.442546    0.168706
     65          6           0      -15.263718    1.672497    1.682332
     66          6           0      -17.107106    1.768964   -0.180222
     67          1           0        3.310455   -0.003041   -4.288828
     68          1           0        5.965249    4.857521   -0.804891
     69          1           0        6.546557    1.199377    4.269714
     70          1           0        3.445777   -3.970737   -1.517625
     71          1           0        2.379513   -2.194351   -3.518354
     72          1           0        5.385173   -2.435271   -3.771205
     73          1           0        4.143673   -2.958319   -4.845988
     74          1           0        4.633798   -3.966666   -3.401655
     75          1           0        1.049423   -2.077148   -1.186190
     76          1           0        1.608356   -3.105768    0.083114
     77          1           0        0.688845   -4.980474   -0.704988
     78          1           0        1.372959   -4.793045   -2.290109
     79          1           0        4.170780    3.410949   -5.953022
     80          1           0        2.763941    2.450576   -5.406341
     81          1           0        4.233896    1.647166   -5.841767
     82          1           0        6.005570    6.434878   -2.368087
     83          1           0        4.455403    6.176520   -1.612715
     84          1           0        4.576966    7.194932   -3.050874
     85          1           0        5.506353    5.493617    1.849936
     86          1           0        7.450825    3.693666    3.168257
     87          1           0        8.290436    5.217067    1.922139
     88          1           0        7.255668    6.312420    0.884852
     89          1           0        7.822413    4.752562    0.304101
     90          1           0        5.170070    3.425244    4.689424
     91          1           0        5.156004    5.102647    4.109274
     92          1           0        7.582097    5.306396    4.867777
     93          1           0        7.121563    4.041224    6.047655
     94          1           0        6.295451    5.564326    5.971609
     95          1           0        5.764163   -2.535832    5.515589
     96          1           0        5.254323   -0.810143    5.719928
     97          1           0        6.924782   -1.316223    5.516222
     98          1           0        3.284113   -4.320151    1.348281
     99          1           0        8.184533   -5.200853   -0.670366
    100          1           0        6.669319   -5.812189   -1.486803
    101          1           0        7.129635   -6.535724    0.021021
    102          1           0       -3.542938   -3.604604   -1.287745
    103          1           0       -2.717340   -2.642296   -2.521657
    104          1           0       -2.636235   -1.853987    0.434770
    105          1           0       -4.293904    0.263589   -2.688450
    106          1           0       -5.720887   -0.437627   -1.958156
    107          1           0       -4.513836   -1.503552   -2.679479
    108          1           0       -3.840110    1.321608   -0.312742
    109          1           0       -3.265306    0.183948    0.907323
    110          1           0       -5.159723    0.178282    2.030306
    111          1           0       -6.009121   -0.368059    0.453745
    112          1           0       -5.340589    2.459894    0.463834
    113          1           0       -6.179907    2.047329    1.976358
    114          1           0       -7.595338    0.779114   -0.279995
    115          1           0       -7.995359    2.802248   -1.526112
    116          1           0       -7.041368    3.675381   -0.257039
    117          1           0       -8.744085    3.404636   -0.002383
    118          1           0       -8.681955    2.383205    2.025816
    119          1           0       -8.224161    0.717184    2.097151
    120          1           0      -10.169089    1.746098   -0.170621
    121          1           0      -10.519939    1.818880    1.585223
    122          1           0       -9.806609   -0.916302    0.899402
    123          1           0      -10.722448   -0.357641   -0.499627
    124          1           0      -12.220541    0.434698    1.690004
    125          1           0      -12.272891   -1.140529    3.464616
    126          1           0      -10.596268   -1.448478    2.933722
    127          1           0      -11.687555   -2.403305    2.285499
    128          1           0      -13.648022   -1.664569    0.958805
    129          1           0      -12.560768   -1.818574   -0.462760
    130          1           0      -13.556563   -0.205278   -1.581541
    131          1           0      -13.183690    0.799704   -0.220167
    132          1           0      -15.506199   -0.741323    0.466549
    133          1           0      -15.657191   -0.299846   -1.174890
    134          1           0      -14.990113    2.162641   -0.334472
    135          1           0      -14.643658    2.554383    1.841147
    136          1           0      -14.829364    0.843836    2.241626
    137          1           0      -16.186787    1.884584    2.221794
    138          1           0      -17.608574    0.968118   -0.723336
    139          1           0      -17.317616    2.720891   -0.668722
    140          1           0      -17.615343    1.733709    0.784277
 ---------------------------------------------------------------------

 SCF Done:  E(RwB97XD) =  -3007.84941923     A.U. after   19 cycles

 Excitation energies and oscillator strengths:

 Excited State   1:      Singlet-A      1.6362 eV  757.73 nm  f=0.3659  <S**2>=0.000
     245 -> 248        0.18371
     246 -> 247        0.68286
     245 <- 248        0.11748
 This state for optimization and/or second-order correction.
 Total Energy, E(TD-HF/TD-DFT) =  -3007.78928817
 Copying the excited state density for this state as the 1-particle RhoCI density.

 Excited State   2:      Singlet-A      2.1184 eV  585.28 nm  f=0.1344  <S**2>=0.000
     245 -> 247        0.64766
     246 -> 248       -0.26947

 Excited State   3:      Singlet-A      3.2479 eV  381.74 nm  f=0.0086  <S**2>=0.000
     241 -> 247       -0.13146
     242 -> 247       -0.16936
     244 -> 247        0.64937
     244 -> 249        0.10779

 Excited State   4:      Singlet-A      3.4038 eV  364.25 nm  f=0.0116  <S**2>=0.000
     239 -> 247        0.30783
     239 -> 249       -0.23491
     240 -> 247        0.41038
     240 -> 249       -0.27549
     241 -> 247        0.19292
     246 -> 248        0.15267

 Excited State   5:      Singlet-A      3.4808 eV  356.20 nm  f=0.1181  <S**2>=0.000
     239 -> 247       -0.15378
     240 -> 247       -0.15726
     240 -> 249        0.11357
     241 -> 247        0.49412
     244 -> 247        0.10602
     245 -> 247        0.10688
     246 -> 248        0.37401

 The electronic state is 1-A.
 Alpha  occ. eigenvalues --  -46.96559 -19.31060 -19.30776 -19.26028 -19.25881
 Alpha  occ. eigenvalues --  -19.24239 -19.23068 -14.47171 -14.46538 -14.44582
 Alpha  occ. eigenvalues --  -14.44015 -10.44611 -10.43875 -10.39214 -10.38155
 Alpha  occ. eigenvalues --  -10.36198 -10.35842 -10.35572 -10.35566 -10.35063
 Alpha  occ. eigenvalues --  -10.34980 -10.34229 -10.34131 -10.33668 -10.33661
 Alpha  occ. eigenvalues --  -10.33458 -10.33059 -10.32876 -10.32498 -10.32464
 Alpha  occ. eigenvalues --  -10.32454 -10.32075 -10.32050 -10.31933 -10.31861
 Alpha  occ. eigenvalues --  -10.31345 -10.31335 -10.30944 -10.30833 -10.30675
 Alpha  occ. eigenvalues --  -10.30591 -10.30565 -10.30481 -10.30225 -10.30155
 Alpha  occ. eigenvalues --  -10.29936 -10.29871 -10.29738 -10.29514 -10.29419
 Alpha  occ. eigenvalues --  -10.29272 -10.29184 -10.29095 -10.29064 -10.29052
 Alpha  occ. eigenvalues --  -10.28902 -10.28831 -10.28662 -10.28615 -10.28291
 Alpha  occ. eigenvalues --  -10.28193 -10.28157 -10.28154 -10.28066 -10.27898
 Alpha  occ. eigenvalues --  -10.27624  -3.22429  -1.96008  -1.95588  -1.95348
 Alpha  occ. eigenvalues --   -1.19515  -1.17631  -1.12822  -1.11915  -1.11537
 Alpha  occ. eigenvalues --   -1.09919  -1.08200  -1.07344  -1.06642  -1.04237
 Alpha  occ. eigenvalues --   -0.95841  -0.91993  -0.91534  -0.91334  -0.91000
 Alpha  occ. eigenvalues --   -0.90879  -0.90358  -0.89922  -0.89123  -0.88383
 Alpha  occ. eigenvalues --   -0.87898  -0.87023  -0.86238  -0.85864  -0.85297
 Alpha  occ. eigenvalues --   -0.84370  -0.84008  -0.82749  -0.82443  -0.82289
 Alpha  occ. eigenvalues --   -0.81146  -0.80301  -0.79985  -0.79290  -0.78776
 Alpha  occ. eigenvalues --   -0.77814  -0.77419  -0.76933  -0.76668  -0.76049
 Alpha  occ. eigenvalues --   -0.75522  -0.74753  -0.74078  -0.72737  -0.71606
 Alpha  occ. eigenvalues --   -0.71356  -0.70034  -0.68775  -0.68348  -0.68003
 Alpha  occ. eigenvalues --   -0.67460  -0.67140  -0.66708  -0.66438  -0.66326
 Alpha  occ. eigenvalues --   -0.65688  -0.65348  -0.65001  -0.64134  -0.62556
 Alpha  occ. eigenvalues --   -0.62307  -0.61610  -0.61288  -0.60640  -0.60415
 Alpha  occ. eigenvalues --   -0.59665  -0.58789  -0.58652  -0.58106  -0.57948
 Alpha  occ. eigenvalues --   -0.57732  -0.56856  -0.56694  -0.56286  -0.56085
 Alpha  occ. eigenvalues --   -0.55511  -0.55435  -0.55129  -0.55071  -0.54710
 Alpha  occ. eigenvalues --   -0.54532  -0.54214  -0.54001  -0.53811  -0.53714
 Alpha  occ. eigenvalues --   -0.53494  -0.53256  -0.53197  -0.52828  -0.52497
 Alpha  occ. eigenvalues --   -0.52383  -0.52300  -0.52137  -0.51794  -0.51582
 Alpha  occ. eigenvalues --   -0.51444  -0.51151  -0.51061  -0.50881  -0.50722
 Alpha  occ. eigenvalues --   -0.50431  -0.50374  -0.50287  -0.50003  -0.49795
 Alpha  occ. eigenvalues --   -0.49608  -0.49361  -0.48585  -0.48503  -0.48453
 Alpha  occ. eigenvalues --   -0.48380  -0.48228  -0.48063  -0.47996  -0.47932
 Alpha  occ. eigenvalues --   -0.47582  -0.47502  -0.47459  -0.47149  -0.47095
 Alpha  occ. eigenvalues --   -0.46924  -0.46780  -0.46642  -0.46580  -0.46399
 Alpha  occ. eigenvalues --   -0.46141  -0.45773  -0.45329  -0.45197  -0.45053
 Alpha  occ. eigenvalues --   -0.44817  -0.44664  -0.44505  -0.44410  -0.44370
 Alpha  occ. eigenvalues --   -0.44078  -0.44001  -0.43809  -0.43642  -0.43382
 Alpha  occ. eigenvalues --   -0.43244  -0.42876  -0.42650  -0.42056  -0.42038
 Alpha  occ. eigenvalues --   -0.41688  -0.41623  -0.41455  -0.41141  -0.40918
 Alpha  occ. eigenvalues --   -0.40311  -0.40226  -0.40116  -0.39862  -0.39318
 Alpha  occ. eigenvalues --   -0.39090  -0.38924  -0.38734  -0.38684  -0.38082
 Alpha  occ. eigenvalues --   -0.37594  -0.37388  -0.37094  -0.36896  -0.36676
 Alpha  occ. eigenvalues --   -0.36359  -0.35830  -0.35552  -0.33813  -0.33447
 Alpha  occ. eigenvalues --   -0.33020  -0.31894  -0.31740  -0.31208  -0.26177
 Alpha  occ. eigenvalues --   -0.23413
 Alpha virt. eigenvalues --   -0.07705  -0.00007   0.01932   0.04391   0.04834
 Alpha virt. eigenvalues --    0.05782   0.07043   0.07931   0.08727   0.08907
 Alpha virt. eigenvalues --    0.09925   0.10838   0.11414   0.12030   0.12477

 Mulliken charges:
               1
     1  Mg   0.963521
     2  C   -0.061482
     3  C   -0.075969
     4  C   -0.063383
     5  C   -0.090315
     6  N   -0.396655
     7  C    0.048776
     8  C   -0.122881
     9  C   -0.108419
    10  C    0.081104
    11  C    0.043891
    12  C    0.061265
    13  C    0.011118
    14  C    0.201583
    15  O   -0.217950
    16  O   -0.364922
    17  N   -0.444005
    18  C    0.100109
    19  C   -0.140419
    20  C   -0.114831
    21  C    0.158640
    22  C    0.071621
    23  C    0.045661
    24  O   -0.217844
    25  C   -0.029223
    26  N   -0.241093
    27  C    0.042848
    28  C   -0.144507
    29  C   -0.015041
    30  C    0.009071
    31  C   -0.005211
    32  C    0.006660
    33  C   -0.051539
    34  N   -0.435057
    35  C    0.106664
    36  C   -0.167594
    37  C   -0.014128
    38  C    0.146047
    39  C    0.069594
    40  C    0.088501
    41  O   -0.224048
    42  C   -0.018205
    43  C    0.286780
    44  O   -0.258201
    45  O   -0.391214
    46  C    0.147074
    47  C    0.249811
    48  C   -0.143667
    49  C   -0.219704
    50  C    0.033893
    51  C    0.020285
    52  C   -0.030717
    53  C    0.016169
    54  C   -0.210168
    55  C    0.020042
    56  C   -0.012102
    57  C   -0.053996
    58  C    0.051020
    59  C   -0.204040
    60  C   -0.013668
    61  C    0.025648
    62  C   -0.029829
    63  C   -0.000359
    64  C   -0.216216
    65  C   -0.022479
    66  C    0.013236
    67  H    0.005497
    68  H   -0.002585
    69  H   -0.005634
    70  H    0.026882
    71  H    0.026834
    72  H    0.042371
    73  H    0.047521
    74  H    0.042627
    75  H    0.040616
    76  H    0.031849
    77  H    0.069132
    78  H    0.054991
    79  H    0.066637
    80  H    0.052550
    81  H    0.029316
    82  H    0.064471
    83  H    0.044065
    84  H    0.048843
    85  H    0.048782
    86  H    0.027004
    87  H    0.039355
    88  H    0.043588
    89  H    0.045183
    90  H    0.032361
    91  H    0.027349
    92  H    0.029869
    93  H    0.039353
    94  H    0.034910
    95  H    0.058281
    96  H    0.059852
    97  H    0.038401
    98  H    0.066846
    99  H    0.069807
   100  H    0.048538
   101  H    0.064827
   102  H    0.048899
   103  H    0.061444
   104  H    0.026334
   105  H    0.043013
   106  H    0.046575
   107  H    0.017521
   108  H    0.025960
   109  H    0.008806
   110  H    0.035386
   111  H    0.032419
   112  H    0.026106
   113  H    0.013039
   114  H    0.015846
   115  H    0.037799
   116  H    0.022624
   117  H    0.025540
   118  H    0.012109
   119  H    0.017815
   120  H    0.036258
   121  H    0.027641
   122  H    0.012897
   123  H    0.014217
   124  H    0.022805
   125  H    0.046187
   126  H    0.014119
   127  H    0.016976
   128  H    0.013395
   129  H    0.025890
   130  H    0.022221
   131  H    0.012070
   132  H    0.013410
   133  H    0.009459
   134  H    0.027050
   135  H    0.031207
   136  H    0.034355
   137  H    0.013022
   138  H    0.023289
   139  H    0.043826
   140  H    0.012627
 Sum of Mulliken charges =  -0.00000

 Dipole moment (field-independent basis, Debye):
    X=              2.9571    Y=              4.0610    Z=              2.2865  Tot=              5.5194
 Quadrupole moment (field-independent basis, Debye-Ang):
   XX=           -352.3366   YY=           -431.6319   ZZ=           -413.4531
   XY=              5.5982   XZ=             10.8929   YZ=             41.0029

 Normal termination of Gaussian 16 at Thu Apr 28 19:14:58 2022.
