 Gaussian 16, Revision A.03,
 Gaussian 16:  ES64L-G16RevA.03 25-Dec-2016

 --------------------
 #p ZINDO=(nstates=5)
 --------------------

 ------------------------------
 step_1701_chromophore_14 ZINDO
 ------------------------------
 Symbolic Z-matrix:
 Charge =  0 Multiplicity = 1

                         Standard orientation:
 ---------------------------------------------------------------------
 Center     Atomic      Atomic             Coordinates (Angstroms)
 Number     Number       Type             X           Y           Z
 ---------------------------------------------------------------------
      1         12           0        5.260755    0.516133   -0.192241
      2          6           0        4.460171   -2.610509    0.593229
      3          6           0        3.787162    0.139525   -3.317419
      4          6           0        5.469172    3.911162   -0.581182
      5          6           0        6.194683    1.098364    3.241527
      6          7           0        4.265342   -0.970142   -1.238068
      7          6           0        3.970272   -2.173823   -0.664882
      8          6           0        3.028879   -2.962763   -1.528186
      9          6           0        3.297471   -2.296881   -2.939836
     10          6           0        3.640019   -0.906346   -2.433945
     11          6           0        4.436274   -2.970161   -3.796784
     12          6           0        1.530362   -3.038243   -1.002475
     13          6           0        0.771071   -4.283051   -1.538536
     14          6           0       -0.709842   -4.079817   -2.040566
     15          8           0       -1.136826   -4.444817   -3.096212
     16          8           0       -1.452641   -3.513221   -1.010761
     17          7           0        4.763570    1.866743   -1.797654
     18          6           0        4.218799    1.486991   -3.047436
     19          6           0        4.330823    2.570067   -3.972245
     20          6           0        4.730038    3.637021   -3.122445
     21          6           0        5.071164    3.165508   -1.765582
     22          6           0        3.848983    2.549665   -5.367798
     23          6           0        4.685078    5.132853   -3.547408
     24          8           0        4.490914    5.444312   -4.689118
     25          6           0        4.947362    6.284482   -2.579374
     26          7           0        5.578292    2.331440    1.304967
     27          6           0        5.632473    3.570117    0.745366
     28          6           0        6.164963    4.629676    1.751175
     29          6           0        6.376602    3.725535    2.982290
     30          6           0        6.038690    2.324927    2.498716
     31          6           0        7.486409    5.291495    1.190052
     32          6           0        5.791823    4.246761    4.334872
     33          6           0        6.750874    4.792858    5.350083
     34          7           0        5.500400   -0.522893    1.578215
     35          6           0        5.877636   -0.246966    2.859536
     36          6           0        5.762708   -1.428761    3.712880
     37          6           0        5.242318   -2.414534    2.824609
     38          6           0        5.124776   -1.813507    1.590568
     39          6           0        5.903031   -1.505719    5.187185
     40          6           0        4.753210   -3.757502    2.688187
     41          8           0        4.580752   -4.641084    3.547420
     42          6           0        4.317986   -3.979640    1.284028
     43          6           0        5.097862   -5.058522    0.553014
     44          8           0        4.606770   -6.168119    0.286101
     45          8           0        6.311331   -4.556497    0.045305
     46          6           0        7.180743   -5.606320   -0.546192
     47          6           0       -2.687222   -2.955781   -1.478567
     48          6           0       -3.117887   -1.856594   -0.543779
     49          6           0       -3.830297   -0.787965   -0.854250
     50          6           0       -4.651037   -0.586823   -2.107110
     51          6           0       -4.043214    0.363800    0.165997
     52          6           0       -5.399326    0.364255    0.982949
     53          6           0       -6.057868    1.780954    0.926416
     54          6           0       -7.517690    1.685155    0.320082
     55          6           0       -7.852297    2.975526   -0.459439
     56          6           0       -8.583700    1.486449    1.413644
     57          6           0      -10.005521    1.270961    0.796749
     58          6           0      -10.537656   -0.181731    0.560596
     59          6           0      -11.853430   -0.511199    1.293079
     60          6           0      -11.633400   -1.364282    2.611095
     61          6           0      -12.932013   -1.152572    0.316021
     62          6           0      -13.665335   -0.138070   -0.498646
     63          6           0      -15.150730   -0.006261   -0.255406
     64          6           0      -15.634158    1.442546    0.168706
     65          6           0      -15.263718    1.672497    1.682332
     66          6           0      -17.107106    1.768964   -0.180222
     67          1           0        3.310455   -0.003041   -4.288828
     68          1           0        5.965249    4.857521   -0.804891
     69          1           0        6.546557    1.199377    4.269714
     70          1           0        3.445777   -3.970737   -1.517625
     71          1           0        2.379513   -2.194351   -3.518354
     72          1           0        5.385173   -2.435271   -3.771205
     73          1           0        4.143673   -2.958319   -4.845988
     74          1           0        4.633798   -3.966666   -3.401655
     75          1           0        1.049423   -2.077148   -1.186190
     76          1           0        1.608356   -3.105768    0.083114
     77          1           0        0.688845   -4.980474   -0.704988
     78          1           0        1.372959   -4.793045   -2.290109
     79          1           0        4.170780    3.410949   -5.953022
     80          1           0        2.763941    2.450576   -5.406341
     81          1           0        4.233896    1.647166   -5.841767
     82          1           0        6.005570    6.434878   -2.368087
     83          1           0        4.455403    6.176520   -1.612715
     84          1           0        4.576966    7.194932   -3.050874
     85          1           0        5.506353    5.493617    1.849936
     86          1           0        7.450825    3.693666    3.168257
     87          1           0        8.290436    5.217067    1.922139
     88          1           0        7.255668    6.312420    0.884852
     89          1           0        7.822413    4.752562    0.304101
     90          1           0        5.170070    3.425244    4.689424
     91          1           0        5.156004    5.102647    4.109274
     92          1           0        7.582097    5.306396    4.867777
     93          1           0        7.121563    4.041224    6.047655
     94          1           0        6.295451    5.564326    5.971609
     95          1           0        5.764163   -2.535832    5.515589
     96          1           0        5.254323   -0.810143    5.719928
     97          1           0        6.924782   -1.316223    5.516222
     98          1           0        3.284113   -4.320151    1.348281
     99          1           0        8.184533   -5.200853   -0.670366
    100          1           0        6.669319   -5.812189   -1.486803
    101          1           0        7.129635   -6.535724    0.021021
    102          1           0       -3.542938   -3.604604   -1.287745
    103          1           0       -2.717340   -2.642296   -2.521657
    104          1           0       -2.636235   -1.853987    0.434770
    105          1           0       -4.293904    0.263589   -2.688450
    106          1           0       -5.720887   -0.437627   -1.958156
    107          1           0       -4.513836   -1.503552   -2.679479
    108          1           0       -3.840110    1.321608   -0.312742
    109          1           0       -3.265306    0.183948    0.907323
    110          1           0       -5.159723    0.178282    2.030306
    111          1           0       -6.009121   -0.368059    0.453745
    112          1           0       -5.340589    2.459894    0.463834
    113          1           0       -6.179907    2.047329    1.976358
    114          1           0       -7.595338    0.779114   -0.279995
    115          1           0       -7.995359    2.802248   -1.526112
    116          1           0       -7.041368    3.675381   -0.257039
    117          1           0       -8.744085    3.404636   -0.002383
    118          1           0       -8.681955    2.383205    2.025816
    119          1           0       -8.224161    0.717184    2.097151
    120          1           0      -10.169089    1.746098   -0.170621
    121          1           0      -10.519939    1.818880    1.585223
    122          1           0       -9.806609   -0.916302    0.899402
    123          1           0      -10.722448   -0.357641   -0.499627
    124          1           0      -12.220541    0.434698    1.690004
    125          1           0      -12.272891   -1.140529    3.464616
    126          1           0      -10.596268   -1.448478    2.933722
    127          1           0      -11.687555   -2.403305    2.285499
    128          1           0      -13.648022   -1.664569    0.958805
    129          1           0      -12.560768   -1.818574   -0.462760
    130          1           0      -13.556563   -0.205278   -1.581541
    131          1           0      -13.183690    0.799704   -0.220167
    132          1           0      -15.506199   -0.741323    0.466549
    133          1           0      -15.657191   -0.299846   -1.174890
    134          1           0      -14.990113    2.162641   -0.334472
    135          1           0      -14.643658    2.554383    1.841147
    136          1           0      -14.829364    0.843836    2.241626
    137          1           0      -16.186787    1.884584    2.221794
    138          1           0      -17.608574    0.968118   -0.723336
    139          1           0      -17.317616    2.720891   -0.668722
    140          1           0      -17.615343    1.733709    0.784277
 ---------------------------------------------------------------------

 SCF Done:  E(RZINDO/S) =  -474.282947613     A.U. after   20 cycles

 Excitation energies and oscillator strengths:

 Excited State   1:      Singlet-A      1.2526 eV  989.84 nm  f=0.5884  <S**2>=0.000
     175 ->178         0.19294
     176 ->177         0.66206
 This state for optimization and/or second-order correction.
 Total Energy, E(CIS/TDA) =  -474.236916739
 Copying the excited state density for this state as the 1-particle RhoCI density.

 Excited State   2:      Singlet-A      1.8807 eV  659.25 nm  f=0.0768  <S**2>=0.000
     175 ->177         0.56684
     176 ->178        -0.39461

 Excited State   3:      Singlet-A      2.8726 eV  431.61 nm  f=0.0057  <S**2>=0.000
     168 ->177         0.37734
     168 ->178         0.12058
     168 ->179        -0.44209
     168 ->182         0.20460
     168 ->185        -0.17445

 Excited State   4:      Singlet-A      2.9919 eV  414.40 nm  f=1.0510  <S**2>=0.000
     171 ->177        -0.12732
     172 ->177        -0.10607
     175 ->177         0.35374
     176 ->178         0.52395
     176 ->179        -0.12513

 Excited State   5:      Singlet-A      3.0116 eV  411.69 nm  f=0.0257  <S**2>=0.000
     170 ->177         0.24005
     170 ->178         0.11042
     170 ->179         0.18069
     170 ->182         0.36386
     170 ->185         0.23644
     170 ->187         0.19120
     170 ->188         0.12004
     171 ->182        -0.11011
     174 ->177         0.14086
     176 ->179         0.13466

 The electronic state is 1-A.
 Alpha  occ. eigenvalues --   -1.86993  -1.83000  -1.80975  -1.73603  -1.72526
 Alpha  occ. eigenvalues --   -1.70959  -1.64939  -1.61131  -1.59950  -1.59546
 Alpha  occ. eigenvalues --   -1.54249  -1.50590  -1.48955  -1.47794  -1.47098
 Alpha  occ. eigenvalues --   -1.46090  -1.44427  -1.42377  -1.38449  -1.37983
 Alpha  occ. eigenvalues --   -1.36161  -1.34273  -1.33868  -1.31145  -1.27788
 Alpha  occ. eigenvalues --   -1.27007  -1.25831  -1.22315  -1.20212  -1.18662
 Alpha  occ. eigenvalues --   -1.16094  -1.15356  -1.14718  -1.14190  -1.13340
 Alpha  occ. eigenvalues --   -1.13141  -1.10673  -1.09383  -1.05925  -1.05334
 Alpha  occ. eigenvalues --   -1.02194  -1.02018  -0.99512  -0.98464  -0.96675
 Alpha  occ. eigenvalues --   -0.94721  -0.94642  -0.93610  -0.92641  -0.92287
 Alpha  occ. eigenvalues --   -0.92184  -0.91638  -0.88440  -0.88139  -0.87687
 Alpha  occ. eigenvalues --   -0.85597  -0.85257  -0.83764  -0.83014  -0.82183
 Alpha  occ. eigenvalues --   -0.81138  -0.78473  -0.77555  -0.76869  -0.76294
 Alpha  occ. eigenvalues --   -0.75429  -0.74650  -0.73935  -0.73585  -0.73467
 Alpha  occ. eigenvalues --   -0.73331  -0.72571  -0.71956  -0.71425  -0.70525
 Alpha  occ. eigenvalues --   -0.70335  -0.69978  -0.69471  -0.68699  -0.67910
 Alpha  occ. eigenvalues --   -0.67513  -0.67051  -0.66437  -0.66131  -0.65406
 Alpha  occ. eigenvalues --   -0.65171  -0.64842  -0.64304  -0.64147  -0.63973
 Alpha  occ. eigenvalues --   -0.63490  -0.63136  -0.62514  -0.62368  -0.62078
 Alpha  occ. eigenvalues --   -0.61582  -0.61354  -0.61075  -0.60831  -0.60353
 Alpha  occ. eigenvalues --   -0.59718  -0.59519  -0.59040  -0.58715  -0.58518
 Alpha  occ. eigenvalues --   -0.58116  -0.57529  -0.57421  -0.56613  -0.56462
 Alpha  occ. eigenvalues --   -0.55990  -0.55745  -0.55487  -0.55319  -0.54750
 Alpha  occ. eigenvalues --   -0.54480  -0.53699  -0.53572  -0.53368  -0.53148
 Alpha  occ. eigenvalues --   -0.52576  -0.52403  -0.52154  -0.52050  -0.51818
 Alpha  occ. eigenvalues --   -0.51600  -0.51360  -0.51148  -0.50649  -0.50341
 Alpha  occ. eigenvalues --   -0.50282  -0.50212  -0.49723  -0.49590  -0.49337
 Alpha  occ. eigenvalues --   -0.49168  -0.48642  -0.48343  -0.48127  -0.48014
 Alpha  occ. eigenvalues --   -0.47848  -0.47675  -0.47280  -0.47239  -0.47203
 Alpha  occ. eigenvalues --   -0.46607  -0.46345  -0.46121  -0.45566  -0.45538
 Alpha  occ. eigenvalues --   -0.45298  -0.45085  -0.44993  -0.44387  -0.43892
 Alpha  occ. eigenvalues --   -0.43593  -0.43492  -0.43367  -0.42897  -0.42821
 Alpha  occ. eigenvalues --   -0.42265  -0.42032  -0.41729  -0.39583  -0.39236
 Alpha  occ. eigenvalues --   -0.38596  -0.37594  -0.36071  -0.35195  -0.34172
 Alpha  occ. eigenvalues --   -0.33985  -0.32928  -0.32258  -0.31972  -0.26915
 Alpha  occ. eigenvalues --   -0.22378
 Alpha virt. eigenvalues --   -0.09204  -0.02443  -0.01099   0.00651   0.01006
 Alpha virt. eigenvalues --    0.01678   0.02100   0.02478   0.04188   0.05355
 Alpha virt. eigenvalues --    0.05438   0.06026   0.06804   0.07399   0.07763

 Mulliken charges:
               1
     1  Mg   0.438000
     2  C   -0.079867
     3  C   -0.061357
     4  C   -0.075431
     5  C   -0.083831
     6  N   -0.274870
     7  C    0.150062
     8  C    0.000060
     9  C    0.001138
    10  C    0.097571
    11  C   -0.045582
    12  C   -0.014617
    13  C    0.003088
    14  C    0.464895
    15  O   -0.492100
    16  O   -0.267476
    17  N   -0.317592
    18  C    0.068514
    19  C    0.031442
    20  C   -0.057967
    21  C    0.106620
    22  C   -0.029757
    23  C    0.314168
    24  O   -0.514064
    25  C   -0.031342
    26  N   -0.255326
    27  C    0.108860
    28  C   -0.007132
    29  C    0.008297
    30  C    0.165771
    31  C   -0.057642
    32  C   -0.023705
    33  C   -0.049145
    34  N   -0.329370
    35  C    0.116179
    36  C    0.046519
    37  C   -0.044326
    38  C    0.130225
    39  C   -0.031977
    40  C    0.342486
    41  O   -0.530531
    42  C    0.065272
    43  C    0.481417
    44  O   -0.509138
    45  O   -0.278585
    46  C    0.072082
    47  C    0.102882
    48  C   -0.075835
    49  C   -0.021473
    50  C   -0.045692
    51  C   -0.040408
    52  C   -0.043616
    53  C   -0.046831
    54  C   -0.015529
    55  C   -0.060619
    56  C   -0.030804
    57  C   -0.045347
    58  C   -0.031963
    59  C   -0.014148
    60  C   -0.072287
    61  C   -0.030056
    62  C   -0.033546
    63  C   -0.030577
    64  C   -0.009167
    65  C   -0.062950
    66  C   -0.059006
    67  H    0.024358
    68  H    0.030238
    69  H    0.019641
    70  H    0.026876
    71  H    0.025718
    72  H    0.025019
    73  H    0.025024
    74  H    0.025411
    75  H    0.033274
    76  H    0.022539
    77  H    0.043380
    78  H    0.040528
    79  H    0.042005
    80  H    0.032955
    81  H    0.019007
    82  H    0.037786
    83  H    0.024738
    84  H    0.032194
    85  H    0.037894
    86  H    0.026243
    87  H    0.021831
    88  H    0.022763
    89  H    0.023867
    90  H    0.024194
    91  H    0.018449
    92  H    0.019625
    93  H    0.020068
    94  H    0.015594
    95  H    0.033380
    96  H    0.038203
    97  H    0.027730
    98  H    0.061264
    99  H    0.042401
   100  H    0.039396
   101  H    0.053351
   102  H    0.047969
   103  H    0.060001
   104  H    0.030843
   105  H    0.027655
   106  H    0.030590
   107  H    0.014822
   108  H    0.028613
   109  H    0.008014
   110  H    0.027927
   111  H    0.031845
   112  H    0.031363
   113  H    0.014101
   114  H    0.023933
   115  H    0.023515
   116  H    0.017858
   117  H    0.020338
   118  H    0.013298
   119  H    0.018468
   120  H    0.026428
   121  H    0.019517
   122  H    0.018930
   123  H    0.018410
   124  H    0.020117
   125  H    0.029757
   126  H    0.016701
   127  H    0.011700
   128  H    0.017691
   129  H    0.026018
   130  H    0.017240
   131  H    0.012400
   132  H    0.018716
   133  H    0.007783
   134  H    0.017001
   135  H    0.016795
   136  H    0.023240
   137  H    0.010710
   138  H    0.017736
   139  H    0.027562
   140  H    0.014482
 Sum of Mulliken charges =  -0.00000

 Dipole moment (field-independent basis, Debye):
    X=              3.7361    Y=              5.6422    Z=              5.3643  Tot=              8.6353
 N-N= 4.291315461347D+03 E-N= 0.000000000000D+00  KE=-9.256157409856D+03
 Leave Link  601 at Thu Apr 28 19:30:28 2022, MaxMem=  6710886400 cpu:               2.1 elap:               0.1
 (Enter /sw/apps/gaussian-16.0/g16/l9999.exe)
 1\1\GINC-BP1-COMPUTE150\SP\RZINDO CIS\STO-3G\C55H74Mg1N4O6\OF15641\28-
 Apr-2022\0\\#p ZINDO=(nstates=5)\\step_1701_chromophore_14 ZINDO\\0,1\
 Mg,0,46.905,45.44,43.864\C,0,43.673,45.179,43.143\C,0,47.422,42.149,42
 .873\C,0,50.271,46.062,43.928\C,0,46.488,48.999,44.266\N,0,45.768,43.8
 78,43.115\C,0,44.446,44.036,42.812\C,0,43.925,42.852,42.05\C,0,44.973,
 41.744,42.477\C,0,46.164,42.668,42.663\C,0,44.592,40.916,43.763\C,0,43
 .679,43.1,40.499\C,0,42.63,42.125,39.897\C,0,42.947,41.481,38.493\O,0,

 Normal termination of Gaussian 16 at Thu Apr 28 19:30:28 2022.
