 Gaussian 16, Revision A.03,
 Gaussian 16:  ES64L-G16RevA.03 25-Dec-2016

 ------------------------------
 #p blyp/Def2SVP td=(nstates=5)
 ------------------------------

 --------------------------------------------------
 step_1851_chromophore_9 TDDFT with blyp functional
 --------------------------------------------------
 Symbolic Z-matrix:
 Charge =  0 Multiplicity = 1

                         Standard orientation:
 ---------------------------------------------------------------------
 Center     Atomic      Atomic             Coordinates (Angstroms)
 Number     Number       Type             X           Y           Z
 ---------------------------------------------------------------------
      1         12           0       -5.201948    0.964198   -0.257423
      2          6           0       -4.140232   -2.408464    0.136934
      3          6           0       -2.005098    1.793102   -0.839669
      4          6           0       -6.279059    4.034158   -0.247039
      5          6           0       -8.514376   -0.160314    0.608526
      6          7           0       -3.298171   -0.217588   -0.266619
      7          6           0       -3.045928   -1.585589   -0.105954
      8          6           0       -1.598584   -1.980980   -0.269251
      9          6           0       -0.949823   -0.600632   -0.572136
     10          6           0       -2.128825    0.433729   -0.594851
     11          6           0        0.130462   -0.165161    0.415766
     12          6           0       -1.374386   -3.028250   -1.421135
     13          6           0       -0.440788   -4.235217   -1.227534
     14          6           0        0.881202   -3.857860   -0.485247
     15          8           0        1.172511   -4.071921    0.676228
     16          8           0        1.611792   -2.999521   -1.310637
     17          7           0       -4.235079    2.649701   -0.493157
     18          6           0       -2.850506    2.817929   -0.705581
     19          6           0       -2.624961    4.170064   -1.019829
     20          6           0       -3.827942    4.890825   -0.778332
     21          6           0       -4.888698    3.877985   -0.536786
     22          6           0       -1.333970    4.741385   -1.375418
     23          6           0       -4.168950    6.478534   -0.719097
     24          8           0       -5.316783    6.937299   -0.509436
     25          6           0       -3.166106    7.423930   -1.151919
     26          7           0       -7.154067    1.797215    0.000801
     27          6           0       -7.282618    3.139115   -0.049781
     28          6           0       -8.650006    3.475453    0.523716
     29          6           0       -9.428668    2.178761    0.592759
     30          6           0       -8.329463    1.187914    0.386645
     31          6           0       -8.637736    4.295782    1.925566
     32          6           0      -10.660603    1.842848   -0.270695
     33          6           0      -10.575739    0.773443   -1.396747
     34          7           0       -6.214151   -0.884948    0.360974
     35          6           0       -7.546184   -1.181970    0.681387
     36          6           0       -7.685393   -2.572129    0.866527
     37          6           0       -6.382496   -3.079822    0.643220
     38          6           0       -5.519505   -2.005508    0.358882
     39          6           0       -8.744491   -3.311888    1.520688
     40          6           0       -5.595361   -4.322522    0.735857
     41          8           0       -5.949415   -5.398914    1.170393
     42          6           0       -4.155835   -3.930037    0.356274
     43          6           0       -3.204281   -4.300666    1.426211
     44          8           0       -2.956428   -3.650762    2.455003
     45          8           0       -2.626745   -5.512606    1.126346
     46          6           0       -1.670791   -6.083213    2.117636
     47          6           0        2.792029   -2.384652   -0.708810
     48          6           0        3.970812   -2.762353   -1.600841
     49          6           0        5.266984   -2.732461   -1.312356
     50          6           0        5.755300   -2.177573   -0.019310
     51          6           0        6.329760   -3.290312   -2.256346
     52          6           0        7.137700   -2.233170   -3.024058
     53          6           0        8.550322   -1.937872   -2.475692
     54          6           0        9.158771   -0.575729   -2.920025
     55          6           0        9.325704   -0.583052   -4.543257
     56          6           0       10.518618   -0.380007   -2.217875
     57          6           0       11.071282    1.014183   -2.457628
     58          6           0       12.224698    1.356787   -1.513045
     59          6           0       11.710447    2.283606   -0.362873
     60          6           0       12.258044    3.702397   -0.324852
     61          6           0       11.933678    1.572236    1.027666
     62          6           0       10.898977    1.981109    2.138195
     63          6           0       11.528430    2.506517    3.438036
     64          6           0       11.650557    1.566526    4.638668
     65          6           0       10.316750    1.677664    5.472730
     66          6           0       12.935272    1.870676    5.445950
     67          1           0       -1.024496    2.032066   -1.255975
     68          1           0       -6.671639    5.051220   -0.198151
     69          1           0       -9.492929   -0.440886    1.005298
     70          1           0       -1.261985   -2.405901    0.676407
     71          1           0       -0.399372   -0.564307   -1.513203
     72          1           0       -0.093961    0.679426    1.066922
     73          1           0        1.117263    0.108864    0.043121
     74          1           0        0.252073   -0.981634    1.128104
     75          1           0       -0.946045   -2.529183   -2.291548
     76          1           0       -2.384375   -3.313255   -1.713000
     77          1           0       -0.212004   -4.577440   -2.236546
     78          1           0       -0.940629   -5.067082   -0.730027
     79          1           0       -1.132343    5.497021   -0.615641
     80          1           0       -1.284024    5.188947   -2.368237
     81          1           0       -0.516000    4.020407   -1.354635
     82          1           0       -2.452661    7.614629   -0.349946
     83          1           0       -3.647090    8.364891   -1.415547
     84          1           0       -2.622402    7.160740   -2.059382
     85          1           0       -9.053807    4.110967   -0.264731
     86          1           0       -9.724613    2.007055    1.627521
     87          1           0       -7.596808    4.371836    2.237318
     88          1           0       -9.172562    3.653254    2.625051
     89          1           0       -9.152069    5.254361    1.860652
     90          1           0      -11.064901    2.778559   -0.657209
     91          1           0      -11.388655    1.406925    0.413674
     92          1           0       -9.642271    0.940762   -1.933843
     93          1           0      -11.295926    1.020667   -2.177264
     94          1           0      -10.656970   -0.274834   -1.111384
     95          1           0       -9.000617   -2.679045    2.370384
     96          1           0       -8.499376   -4.354747    1.723938
     97          1           0       -9.528253   -3.210552    0.769856
     98          1           0       -3.918552   -4.507018   -0.537392
     99          1           0       -1.327865   -5.418526    2.910411
    100          1           0       -0.836807   -6.529938    1.577074
    101          1           0       -1.964995   -7.016921    2.596085
    102          1           0        3.063954   -2.818255    0.253782
    103          1           0        2.608859   -1.312597   -0.787709
    104          1           0        3.722932   -3.367548   -2.472591
    105          1           0        4.988212   -1.483566    0.323348
    106          1           0        6.628860   -1.612399   -0.343581
    107          1           0        5.994978   -2.956844    0.704955
    108          1           0        5.968918   -4.072077   -2.924894
    109          1           0        7.054255   -3.840976   -1.657954
    110          1           0        6.714065   -1.240947   -2.867468
    111          1           0        7.195906   -2.462725   -4.088630
    112          1           0        9.066848   -2.781917   -2.932071
    113          1           0        8.393661   -2.036559   -1.401710
    114          1           0        8.369448    0.153549   -2.735558
    115          1           0       10.336943   -0.251244   -4.777230
    116          1           0        8.700816    0.105016   -5.112883
    117          1           0        9.339321   -1.610969   -4.905218
    118          1           0       11.191445   -1.219301   -2.393284
    119          1           0       10.195426   -0.381627   -1.175932
    120          1           0       10.183463    1.641702   -2.380089
    121          1           0       11.527895    1.100308   -3.442837
    122          1           0       12.845169    1.957265   -2.177866
    123          1           0       12.724087    0.414190   -1.286491
    124          1           0       10.630405    2.386847   -0.475495
    125          1           0       12.819919    3.868335    0.593878
    126          1           0       11.465010    4.422683   -0.524405
    127          1           0       12.993010    3.801541   -1.123902
    128          1           0       12.987029    1.701905    1.277353
    129          1           0       11.918533    0.486742    0.932969
    130          1           0       10.282989    1.135534    2.441198
    131          1           0       10.158817    2.679723    1.747696
    132          1           0       11.098808    3.479676    3.673358
    133          1           0       12.552987    2.647355    3.094058
    134          1           0       11.823544    0.582285    4.202745
    135          1           0       10.536829    1.904399    6.515308
    136          1           0        9.854101    0.691124    5.433478
    137          1           0        9.554625    2.413011    5.213521
    138          1           0       13.303389    0.896465    5.767489
    139          1           0       12.656796    2.436098    6.335806
    140          1           0       13.709215    2.427276    4.917405
 ---------------------------------------------------------------------

 SCF Done:  E(RB-LYP) =  -3007.35129064     A.U. after   21 cycles

 Excitation energies and oscillator strengths:

 Excited State   1:      Singlet-A      1.7944 eV  690.94 nm  f=0.2694  <S**2>=0.000
     244 -> 247        0.12246
     245 -> 248        0.15165
     245 -> 249       -0.10244
     246 -> 247        0.68155
     246 <- 247       -0.14905
 This state for optimization and/or second-order correction.
 Total Energy, E(TD-HF/TD-DFT) =  -3007.28534692
 Copying the excited state density for this state as the 1-particle RhoCI density.

 Excited State   2:      Singlet-A      1.9678 eV  630.06 nm  f=0.0345  <S**2>=0.000
     244 -> 247        0.65216
     245 -> 247        0.22238
     246 -> 247       -0.12455

 Excited State   3:      Singlet-A      2.0658 eV  600.18 nm  f=0.0877  <S**2>=0.000
     244 -> 247       -0.22836
     245 -> 247        0.60270
     246 -> 248       -0.19583
     246 -> 249        0.14525

 Excited State   4:      Singlet-A      2.1181 eV  585.35 nm  f=0.0015  <S**2>=0.000
     243 -> 247        0.70121

 Excited State   5:      Singlet-A      2.3557 eV  526.31 nm  f=0.0065  <S**2>=0.000
     242 -> 247        0.69045

 The electronic state is 1-A.
 Alpha  occ. eigenvalues --  -46.26180 -18.82501 -18.82395 -18.78139 -18.76310
 Alpha  occ. eigenvalues --  -18.76246 -18.75592 -14.03217 -14.02274 -14.00643
 Alpha  occ. eigenvalues --  -13.99811 -10.05030 -10.03779 -10.00740  -9.99341
 Alpha  occ. eigenvalues --   -9.98206  -9.96974  -9.96490  -9.96409  -9.96251
 Alpha  occ. eigenvalues --   -9.95567  -9.95443  -9.94999  -9.94600  -9.94240
 Alpha  occ. eigenvalues --   -9.94167  -9.94087  -9.93853  -9.93838  -9.93715
 Alpha  occ. eigenvalues --   -9.93689  -9.93486  -9.93315  -9.93295  -9.92948
 Alpha  occ. eigenvalues --   -9.92865  -9.92796  -9.92777  -9.92376  -9.92358
 Alpha  occ. eigenvalues --   -9.92347  -9.92319  -9.92319  -9.92158  -9.92147
 Alpha  occ. eigenvalues --   -9.92100  -9.92095  -9.91886  -9.91773  -9.91669
 Alpha  occ. eigenvalues --   -9.91620  -9.91580  -9.91355  -9.91351  -9.91272
 Alpha  occ. eigenvalues --   -9.91216  -9.91104  -9.91051  -9.91040  -9.91021
 Alpha  occ. eigenvalues --   -9.90996  -9.90870  -9.90807  -9.90744  -9.90167
 Alpha  occ. eigenvalues --   -9.89949  -2.90879  -1.71310  -1.70768  -1.70588
 Alpha  occ. eigenvalues --   -0.98072  -0.96696  -0.91615  -0.90756  -0.90554
 Alpha  occ. eigenvalues --   -0.88568  -0.86106  -0.85368  -0.84869  -0.83912
 Alpha  occ. eigenvalues --   -0.75013  -0.74140  -0.73227  -0.72875  -0.72858
 Alpha  occ. eigenvalues --   -0.72003  -0.71827  -0.70938  -0.70755  -0.70628
 Alpha  occ. eigenvalues --   -0.70251  -0.69485  -0.68515  -0.67282  -0.66982
 Alpha  occ. eigenvalues --   -0.66452  -0.66295  -0.65538  -0.65018  -0.64819
 Alpha  occ. eigenvalues --   -0.64026  -0.62286  -0.62120  -0.61617  -0.60769
 Alpha  occ. eigenvalues --   -0.60645  -0.60130  -0.59868  -0.59742  -0.59064
 Alpha  occ. eigenvalues --   -0.58287  -0.57955  -0.56747  -0.55615  -0.55257
 Alpha  occ. eigenvalues --   -0.54011  -0.53654  -0.52552  -0.52413  -0.51024
 Alpha  occ. eigenvalues --   -0.50929  -0.50593  -0.50430  -0.50347  -0.49914
 Alpha  occ. eigenvalues --   -0.49596  -0.49308  -0.48774  -0.48057  -0.46421
 Alpha  occ. eigenvalues --   -0.46063  -0.46000  -0.45761  -0.44800  -0.44493
 Alpha  occ. eigenvalues --   -0.44005  -0.43671  -0.43320  -0.43057  -0.42514
 Alpha  occ. eigenvalues --   -0.42185  -0.41852  -0.41558  -0.41375  -0.41116
 Alpha  occ. eigenvalues --   -0.40701  -0.40677  -0.40181  -0.40159  -0.40093
 Alpha  occ. eigenvalues --   -0.40055  -0.39958  -0.39738  -0.39565  -0.39358
 Alpha  occ. eigenvalues --   -0.39030  -0.38687  -0.38584  -0.38416  -0.38320
 Alpha  occ. eigenvalues --   -0.38240  -0.37925  -0.37639  -0.37442  -0.37172
 Alpha  occ. eigenvalues --   -0.37075  -0.37063  -0.36694  -0.36592  -0.36448
 Alpha  occ. eigenvalues --   -0.36263  -0.36086  -0.35904  -0.35817  -0.35619
 Alpha  occ. eigenvalues --   -0.35414  -0.35220  -0.35193  -0.34762  -0.34594
 Alpha  occ. eigenvalues --   -0.34438  -0.34409  -0.34145  -0.34118  -0.34056
 Alpha  occ. eigenvalues --   -0.33698  -0.33606  -0.33522  -0.33048  -0.32842
 Alpha  occ. eigenvalues --   -0.32655  -0.32567  -0.32461  -0.32377  -0.32299
 Alpha  occ. eigenvalues --   -0.32185  -0.32110  -0.31641  -0.31468  -0.31175
 Alpha  occ. eigenvalues --   -0.30948  -0.30910  -0.30809  -0.30505  -0.30410
 Alpha  occ. eigenvalues --   -0.30127  -0.30022  -0.29833  -0.29802  -0.29768
 Alpha  occ. eigenvalues --   -0.29591  -0.29365  -0.29318  -0.29252  -0.28941
 Alpha  occ. eigenvalues --   -0.28907  -0.28498  -0.28388  -0.28332  -0.28003
 Alpha  occ. eigenvalues --   -0.27384  -0.27369  -0.27187  -0.26448  -0.26340
 Alpha  occ. eigenvalues --   -0.26241  -0.26004  -0.25705  -0.25473  -0.25286
 Alpha  occ. eigenvalues --   -0.25079  -0.24609  -0.24409  -0.23652  -0.23484
 Alpha  occ. eigenvalues --   -0.22916  -0.22667  -0.21913  -0.21562  -0.20440
 Alpha  occ. eigenvalues --   -0.20283  -0.19551  -0.19106  -0.18548  -0.17244
 Alpha  occ. eigenvalues --   -0.15655
 Alpha virt. eigenvalues --   -0.11427  -0.06739  -0.05770  -0.04642  -0.03773
 Alpha virt. eigenvalues --   -0.02597  -0.01679  -0.01149  -0.00910   0.00008
 Alpha virt. eigenvalues --    0.01162   0.01605   0.02054   0.02308   0.02779

 Mulliken charges:
               1
     1  Mg   0.680306
     2  C    0.006818
     3  C   -0.096515
     4  C   -0.027702
     5  C   -0.042069
     6  N   -0.228976
     7  C   -0.088806
     8  C    0.045549
     9  C    0.018938
    10  C    0.037974
    11  C    0.096096
    12  C    0.079382
    13  C    0.155351
    14  C    0.092207
    15  O   -0.175995
    16  O   -0.301896
    17  N   -0.396123
    18  C    0.224219
    19  C   -0.134635
    20  C   -0.002881
    21  C    0.123760
    22  C    0.167052
    23  C   -0.017458
    24  O   -0.184473
    25  C    0.133247
    26  N   -0.224193
    27  C    0.005414
    28  C    0.032653
    29  C    0.082339
    30  C   -0.037015
    31  C    0.133280
    32  C    0.080882
    33  C    0.092245
    34  N   -0.218734
    35  C    0.066702
    36  C   -0.184674
    37  C    0.043994
    38  C    0.082194
    39  C    0.194170
    40  C   -0.043084
    41  O   -0.120270
    42  C    0.080763
    43  C    0.119032
    44  O   -0.196751
    45  O   -0.273077
    46  C    0.215886
    47  C    0.327394
    48  C   -0.132639
    49  C   -0.172139
    50  C    0.160016
    51  C    0.173159
    52  C    0.057541
    53  C    0.045798
    54  C   -0.069674
    55  C    0.085216
    56  C    0.112326
    57  C    0.047532
    58  C    0.162316
    59  C   -0.083916
    60  C    0.142609
    61  C    0.071054
    62  C    0.097481
    63  C    0.068676
    64  C   -0.071221
    65  C    0.105028
    66  C    0.103807
    67  H   -0.069246
    68  H   -0.043677
    69  H   -0.064464
    70  H    0.018463
    71  H   -0.021118
    72  H   -0.016056
    73  H   -0.016391
    74  H   -0.007078
    75  H   -0.016002
    76  H   -0.017769
    77  H   -0.009608
    78  H    0.002389
    79  H    0.003850
    80  H    0.006046
    81  H   -0.024667
    82  H    0.014196
    83  H   -0.006572
    84  H    0.004327
    85  H   -0.036624
    86  H   -0.031107
    87  H    0.007238
    88  H   -0.015854
    89  H    0.007682
    90  H   -0.022993
    91  H   -0.026895
    92  H   -0.010076
    93  H   -0.018637
    94  H    0.002386
    95  H    0.008013
    96  H    0.018121
    97  H   -0.010031
    98  H    0.000075
    99  H    0.037140
   100  H    0.002503
   101  H    0.004559
   102  H    0.026231
   103  H    0.007308
   104  H   -0.041445
   105  H   -0.014714
   106  H   -0.014236
   107  H    0.018634
   108  H   -0.040610
   109  H   -0.044360
   110  H   -0.038880
   111  H   -0.022250
   112  H   -0.031372
   113  H   -0.027690
   114  H   -0.033651
   115  H   -0.032850
   116  H   -0.004367
   117  H   -0.018289
   118  H   -0.027184
   119  H   -0.037728
   120  H   -0.031488
   121  H   -0.032609
   122  H   -0.052439
   123  H   -0.026162
   124  H   -0.034295
   125  H   -0.012768
   126  H   -0.010626
   127  H   -0.030519
   128  H   -0.035150
   129  H   -0.044319
   130  H   -0.043804
   131  H   -0.039147
   132  H   -0.034064
   133  H   -0.046542
   134  H   -0.037478
   135  H   -0.023409
   136  H   -0.012475
   137  H   -0.007747
   138  H   -0.015138
   139  H   -0.019476
   140  H   -0.010505
 Sum of Mulliken charges =  -0.00000

 Dipole moment (field-independent basis, Debye):
    X=              3.7729    Y=              2.2202    Z=             -3.3897  Tot=              5.5366
 Quadrupole moment (field-independent basis, Debye-Ang):
   XX=           -381.1281   YY=           -425.1429   ZZ=           -407.6317
   XY=            -13.3189   XZ=              1.3181   YZ=              7.8775

 Normal termination of Gaussian 16 at Wed May  4 16:18:53 2022.
