 Gaussian 16, Revision A.03,
 Gaussian 16:  ES64L-G16RevA.03 25-Dec-2016

 -----------------------------------
 #p cam-b3lyp/Def2SVP td=(nstates=5)
 -----------------------------------

 -------------------------------------------------------
 step_1851_chromophore_9 TDDFT with cam-b3lyp functional
 -------------------------------------------------------
 Symbolic Z-matrix:
 Charge =  0 Multiplicity = 1

                         Standard orientation:
 ---------------------------------------------------------------------
 Center     Atomic      Atomic             Coordinates (Angstroms)
 Number     Number       Type             X           Y           Z
 ---------------------------------------------------------------------
      1         12           0       -5.201948    0.964198   -0.257423
      2          6           0       -4.140232   -2.408464    0.136934
      3          6           0       -2.005098    1.793102   -0.839669
      4          6           0       -6.279059    4.034158   -0.247039
      5          6           0       -8.514376   -0.160314    0.608526
      6          7           0       -3.298171   -0.217588   -0.266619
      7          6           0       -3.045928   -1.585589   -0.105954
      8          6           0       -1.598584   -1.980980   -0.269251
      9          6           0       -0.949823   -0.600632   -0.572136
     10          6           0       -2.128825    0.433729   -0.594851
     11          6           0        0.130462   -0.165161    0.415766
     12          6           0       -1.374386   -3.028250   -1.421135
     13          6           0       -0.440788   -4.235217   -1.227534
     14          6           0        0.881202   -3.857860   -0.485247
     15          8           0        1.172511   -4.071921    0.676228
     16          8           0        1.611792   -2.999521   -1.310637
     17          7           0       -4.235079    2.649701   -0.493157
     18          6           0       -2.850506    2.817929   -0.705581
     19          6           0       -2.624961    4.170064   -1.019829
     20          6           0       -3.827942    4.890825   -0.778332
     21          6           0       -4.888698    3.877985   -0.536786
     22          6           0       -1.333970    4.741385   -1.375418
     23          6           0       -4.168950    6.478534   -0.719097
     24          8           0       -5.316783    6.937299   -0.509436
     25          6           0       -3.166106    7.423930   -1.151919
     26          7           0       -7.154067    1.797215    0.000801
     27          6           0       -7.282618    3.139115   -0.049781
     28          6           0       -8.650006    3.475453    0.523716
     29          6           0       -9.428668    2.178761    0.592759
     30          6           0       -8.329463    1.187914    0.386645
     31          6           0       -8.637736    4.295782    1.925566
     32          6           0      -10.660603    1.842848   -0.270695
     33          6           0      -10.575739    0.773443   -1.396747
     34          7           0       -6.214151   -0.884948    0.360974
     35          6           0       -7.546184   -1.181970    0.681387
     36          6           0       -7.685393   -2.572129    0.866527
     37          6           0       -6.382496   -3.079822    0.643220
     38          6           0       -5.519505   -2.005508    0.358882
     39          6           0       -8.744491   -3.311888    1.520688
     40          6           0       -5.595361   -4.322522    0.735857
     41          8           0       -5.949415   -5.398914    1.170393
     42          6           0       -4.155835   -3.930037    0.356274
     43          6           0       -3.204281   -4.300666    1.426211
     44          8           0       -2.956428   -3.650762    2.455003
     45          8           0       -2.626745   -5.512606    1.126346
     46          6           0       -1.670791   -6.083213    2.117636
     47          6           0        2.792029   -2.384652   -0.708810
     48          6           0        3.970812   -2.762353   -1.600841
     49          6           0        5.266984   -2.732461   -1.312356
     50          6           0        5.755300   -2.177573   -0.019310
     51          6           0        6.329760   -3.290312   -2.256346
     52          6           0        7.137700   -2.233170   -3.024058
     53          6           0        8.550322   -1.937872   -2.475692
     54          6           0        9.158771   -0.575729   -2.920025
     55          6           0        9.325704   -0.583052   -4.543257
     56          6           0       10.518618   -0.380007   -2.217875
     57          6           0       11.071282    1.014183   -2.457628
     58          6           0       12.224698    1.356787   -1.513045
     59          6           0       11.710447    2.283606   -0.362873
     60          6           0       12.258044    3.702397   -0.324852
     61          6           0       11.933678    1.572236    1.027666
     62          6           0       10.898977    1.981109    2.138195
     63          6           0       11.528430    2.506517    3.438036
     64          6           0       11.650557    1.566526    4.638668
     65          6           0       10.316750    1.677664    5.472730
     66          6           0       12.935272    1.870676    5.445950
     67          1           0       -1.024496    2.032066   -1.255975
     68          1           0       -6.671639    5.051220   -0.198151
     69          1           0       -9.492929   -0.440886    1.005298
     70          1           0       -1.261985   -2.405901    0.676407
     71          1           0       -0.399372   -0.564307   -1.513203
     72          1           0       -0.093961    0.679426    1.066922
     73          1           0        1.117263    0.108864    0.043121
     74          1           0        0.252073   -0.981634    1.128104
     75          1           0       -0.946045   -2.529183   -2.291548
     76          1           0       -2.384375   -3.313255   -1.713000
     77          1           0       -0.212004   -4.577440   -2.236546
     78          1           0       -0.940629   -5.067082   -0.730027
     79          1           0       -1.132343    5.497021   -0.615641
     80          1           0       -1.284024    5.188947   -2.368237
     81          1           0       -0.516000    4.020407   -1.354635
     82          1           0       -2.452661    7.614629   -0.349946
     83          1           0       -3.647090    8.364891   -1.415547
     84          1           0       -2.622402    7.160740   -2.059382
     85          1           0       -9.053807    4.110967   -0.264731
     86          1           0       -9.724613    2.007055    1.627521
     87          1           0       -7.596808    4.371836    2.237318
     88          1           0       -9.172562    3.653254    2.625051
     89          1           0       -9.152069    5.254361    1.860652
     90          1           0      -11.064901    2.778559   -0.657209
     91          1           0      -11.388655    1.406925    0.413674
     92          1           0       -9.642271    0.940762   -1.933843
     93          1           0      -11.295926    1.020667   -2.177264
     94          1           0      -10.656970   -0.274834   -1.111384
     95          1           0       -9.000617   -2.679045    2.370384
     96          1           0       -8.499376   -4.354747    1.723938
     97          1           0       -9.528253   -3.210552    0.769856
     98          1           0       -3.918552   -4.507018   -0.537392
     99          1           0       -1.327865   -5.418526    2.910411
    100          1           0       -0.836807   -6.529938    1.577074
    101          1           0       -1.964995   -7.016921    2.596085
    102          1           0        3.063954   -2.818255    0.253782
    103          1           0        2.608859   -1.312597   -0.787709
    104          1           0        3.722932   -3.367548   -2.472591
    105          1           0        4.988212   -1.483566    0.323348
    106          1           0        6.628860   -1.612399   -0.343581
    107          1           0        5.994978   -2.956844    0.704955
    108          1           0        5.968918   -4.072077   -2.924894
    109          1           0        7.054255   -3.840976   -1.657954
    110          1           0        6.714065   -1.240947   -2.867468
    111          1           0        7.195906   -2.462725   -4.088630
    112          1           0        9.066848   -2.781917   -2.932071
    113          1           0        8.393661   -2.036559   -1.401710
    114          1           0        8.369448    0.153549   -2.735558
    115          1           0       10.336943   -0.251244   -4.777230
    116          1           0        8.700816    0.105016   -5.112883
    117          1           0        9.339321   -1.610969   -4.905218
    118          1           0       11.191445   -1.219301   -2.393284
    119          1           0       10.195426   -0.381627   -1.175932
    120          1           0       10.183463    1.641702   -2.380089
    121          1           0       11.527895    1.100308   -3.442837
    122          1           0       12.845169    1.957265   -2.177866
    123          1           0       12.724087    0.414190   -1.286491
    124          1           0       10.630405    2.386847   -0.475495
    125          1           0       12.819919    3.868335    0.593878
    126          1           0       11.465010    4.422683   -0.524405
    127          1           0       12.993010    3.801541   -1.123902
    128          1           0       12.987029    1.701905    1.277353
    129          1           0       11.918533    0.486742    0.932969
    130          1           0       10.282989    1.135534    2.441198
    131          1           0       10.158817    2.679723    1.747696
    132          1           0       11.098808    3.479676    3.673358
    133          1           0       12.552987    2.647355    3.094058
    134          1           0       11.823544    0.582285    4.202745
    135          1           0       10.536829    1.904399    6.515308
    136          1           0        9.854101    0.691124    5.433478
    137          1           0        9.554625    2.413011    5.213521
    138          1           0       13.303389    0.896465    5.767489
    139          1           0       12.656796    2.436098    6.335806
    140          1           0       13.709215    2.427276    4.917405
 ---------------------------------------------------------------------

 SCF Done:  E(RCAM-B3LYP) =  -3007.14835862     A.U. after   19 cycles

 Excitation energies and oscillator strengths:

 Excited State   1:      Singlet-A      1.7007 eV  729.01 nm  f=0.3755  <S**2>=0.000
     245 -> 248        0.17005
     246 -> 247        0.68763
     245 <- 248        0.10476
 This state for optimization and/or second-order correction.
 Total Energy, E(TD-HF/TD-DFT) =  -3007.08585814
 Copying the excited state density for this state as the 1-particle RhoCI density.

 Excited State   2:      Singlet-A      2.2582 eV  549.05 nm  f=0.1346  <S**2>=0.000
     245 -> 247        0.64110
     246 -> 248       -0.27723

 Excited State   3:      Singlet-A      3.1525 eV  393.29 nm  f=0.0046  <S**2>=0.000
     243 -> 247       -0.14321
     244 -> 247        0.67938

 Excited State   4:      Singlet-A      3.4012 eV  364.54 nm  f=0.0042  <S**2>=0.000
     243 -> 247        0.63975
     244 -> 247        0.12297
     246 -> 248        0.21618

 Excited State   5:      Singlet-A      3.5748 eV  346.83 nm  f=0.0150  <S**2>=0.000
     240 -> 247        0.11551
     241 -> 247        0.58595
     241 -> 249       -0.19451
     241 -> 250        0.22029

 The electronic state is 1-A.
 Alpha  occ. eigenvalues --  -46.87673 -19.25386 -19.25331 -19.21192 -19.19720
 Alpha  occ. eigenvalues --  -19.19381 -19.18617 -14.42279 -14.41018 -14.39187
 Alpha  occ. eigenvalues --  -14.38021 -10.40444 -10.39295 -10.36316 -10.34505
 Alpha  occ. eigenvalues --  -10.32292 -10.31216 -10.30995 -10.30983 -10.30806
 Alpha  occ. eigenvalues --  -10.29917 -10.29668 -10.29533 -10.28448 -10.28343
 Alpha  occ. eigenvalues --  -10.28293 -10.28242 -10.28145 -10.28138 -10.28129
 Alpha  occ. eigenvalues --  -10.27994 -10.27885 -10.27665 -10.27140 -10.27030
 Alpha  occ. eigenvalues --  -10.26720 -10.26571 -10.26476 -10.26471 -10.26361
 Alpha  occ. eigenvalues --  -10.26357 -10.26259 -10.26037 -10.26026 -10.26000
 Alpha  occ. eigenvalues --  -10.25879 -10.25878 -10.25695 -10.25634 -10.25544
 Alpha  occ. eigenvalues --  -10.25079 -10.25060 -10.25030 -10.25019 -10.25010
 Alpha  occ. eigenvalues --  -10.24998 -10.24913 -10.24827 -10.24738 -10.24675
 Alpha  occ. eigenvalues --  -10.24653 -10.24530 -10.24392 -10.24348 -10.23823
 Alpha  occ. eigenvalues --  -10.23728  -3.16282  -1.91188  -1.90738  -1.90589
 Alpha  occ. eigenvalues --   -1.16563  -1.15175  -1.09885  -1.09143  -1.08643
 Alpha  occ. eigenvalues --   -1.06454  -1.03726  -1.02931  -1.02501  -1.01537
 Alpha  occ. eigenvalues --   -0.92084  -0.91106  -0.90067  -0.89688  -0.89635
 Alpha  occ. eigenvalues --   -0.88736  -0.88489  -0.87541  -0.87473  -0.87064
 Alpha  occ. eigenvalues --   -0.86724  -0.85905  -0.84860  -0.83579  -0.83148
 Alpha  occ. eigenvalues --   -0.82694  -0.82325  -0.81511  -0.80727  -0.80691
 Alpha  occ. eigenvalues --   -0.79778  -0.77987  -0.77879  -0.77089  -0.76177
 Alpha  occ. eigenvalues --   -0.76050  -0.75488  -0.75118  -0.75052  -0.74342
 Alpha  occ. eigenvalues --   -0.73352  -0.72942  -0.71636  -0.70483  -0.69816
 Alpha  occ. eigenvalues --   -0.68655  -0.68234  -0.66965  -0.66835  -0.65342
 Alpha  occ. eigenvalues --   -0.65050  -0.64549  -0.64468  -0.64308  -0.63916
 Alpha  occ. eigenvalues --   -0.63476  -0.63293  -0.62702  -0.61672  -0.60230
 Alpha  occ. eigenvalues --   -0.59683  -0.59581  -0.59247  -0.58132  -0.58066
 Alpha  occ. eigenvalues --   -0.57325  -0.57164  -0.56400  -0.56202  -0.55793
 Alpha  occ. eigenvalues --   -0.55210  -0.54910  -0.54565  -0.54258  -0.54103
 Alpha  occ. eigenvalues --   -0.53720  -0.53335  -0.53127  -0.53102  -0.52925
 Alpha  occ. eigenvalues --   -0.52690  -0.52609  -0.52459  -0.52245  -0.51837
 Alpha  occ. eigenvalues --   -0.51693  -0.51227  -0.51017  -0.50872  -0.50799
 Alpha  occ. eigenvalues --   -0.50730  -0.50120  -0.50059  -0.49949  -0.49918
 Alpha  occ. eigenvalues --   -0.49620  -0.49228  -0.49021  -0.48948  -0.48825
 Alpha  occ. eigenvalues --   -0.48447  -0.48407  -0.48161  -0.47860  -0.47816
 Alpha  occ. eigenvalues --   -0.47621  -0.47426  -0.47066  -0.46878  -0.46635
 Alpha  occ. eigenvalues --   -0.46291  -0.46153  -0.45909  -0.45845  -0.45761
 Alpha  occ. eigenvalues --   -0.45514  -0.45353  -0.45324  -0.44800  -0.44508
 Alpha  occ. eigenvalues --   -0.44403  -0.44198  -0.44038  -0.44009  -0.43887
 Alpha  occ. eigenvalues --   -0.43866  -0.43718  -0.43372  -0.43197  -0.42903
 Alpha  occ. eigenvalues --   -0.42745  -0.42367  -0.42248  -0.42138  -0.41922
 Alpha  occ. eigenvalues --   -0.41702  -0.41436  -0.41224  -0.41085  -0.41020
 Alpha  occ. eigenvalues --   -0.40947  -0.40521  -0.40480  -0.40267  -0.40098
 Alpha  occ. eigenvalues --   -0.39917  -0.39650  -0.39355  -0.39312  -0.38995
 Alpha  occ. eigenvalues --   -0.38218  -0.38192  -0.38050  -0.37242  -0.37126
 Alpha  occ. eigenvalues --   -0.36993  -0.36954  -0.36865  -0.36563  -0.36324
 Alpha  occ. eigenvalues --   -0.35813  -0.35749  -0.35155  -0.34903  -0.33993
 Alpha  occ. eigenvalues --   -0.33869  -0.33690  -0.32954  -0.31695  -0.31164
 Alpha  occ. eigenvalues --   -0.30370  -0.30178  -0.29762  -0.28398  -0.24016
 Alpha  occ. eigenvalues --   -0.20959
 Alpha virt. eigenvalues --   -0.08596  -0.01285   0.00568   0.02403   0.03548
 Alpha virt. eigenvalues --    0.04164   0.05109   0.05746   0.06240   0.06858
 Alpha virt. eigenvalues --    0.07926   0.08247   0.08388   0.08616   0.09401

 Mulliken charges:
               1
     1  Mg   0.814705
     2  C   -0.017707
     3  C   -0.115556
     4  C   -0.058537
     5  C   -0.049517
     6  N   -0.296417
     7  C   -0.045362
     8  C   -0.008960
     9  C   -0.030128
    10  C    0.059101
    11  C    0.035728
    12  C    0.031040
    13  C    0.092289
    14  C    0.164817
    15  O   -0.216164
    16  O   -0.364914
    17  N   -0.487691
    18  C    0.237062
    19  C   -0.140301
    20  C   -0.064639
    21  C    0.152864
    22  C    0.104221
    23  C    0.067690
    24  O   -0.222504
    25  C    0.041683
    26  N   -0.296734
    27  C    0.036908
    28  C   -0.031553
    29  C    0.023241
    30  C   -0.017109
    31  C    0.077305
    32  C    0.024733
    33  C    0.028887
    34  N   -0.305592
    35  C    0.071899
    36  C   -0.170838
    37  C   -0.039124
    38  C    0.119325
    39  C    0.129393
    40  C    0.057506
    41  O   -0.160285
    42  C    0.001335
    43  C    0.206208
    44  O   -0.233935
    45  O   -0.338005
    46  C    0.179725
    47  C    0.289520
    48  C   -0.146347
    49  C   -0.193119
    50  C    0.097972
    51  C    0.107905
    52  C    0.006848
    53  C   -0.000577
    54  C   -0.125398
    55  C    0.025550
    56  C    0.058970
    57  C   -0.003915
    58  C    0.101998
    59  C   -0.136988
    60  C    0.081508
    61  C    0.020647
    62  C    0.041940
    63  C    0.017294
    64  C   -0.131385
    65  C    0.043382
    66  C    0.045085
    67  H   -0.033006
    68  H   -0.002976
    69  H   -0.030252
    70  H    0.051152
    71  H    0.013827
    72  H    0.013155
    73  H    0.006305
    74  H    0.018005
    75  H    0.015342
    76  H    0.013266
    77  H    0.025195
    78  H    0.032046
    79  H    0.029731
    80  H    0.034013
    81  H    0.005631
    82  H    0.042830
    83  H    0.030237
    84  H    0.033320
    85  H   -0.000850
    86  H    0.006424
    87  H    0.031508
    88  H    0.008285
    89  H    0.031228
    90  H    0.005622
    91  H    0.001611
    92  H    0.013118
    93  H    0.007205
    94  H    0.024859
    95  H    0.032026
    96  H    0.046545
    97  H    0.012995
    98  H    0.042268
    99  H    0.063292
   100  H    0.023079
   101  H    0.026762
   102  H    0.058155
   103  H    0.031676
   104  H   -0.007233
   105  H    0.009765
   106  H    0.005929
   107  H    0.043830
   108  H   -0.006789
   109  H   -0.011610
   110  H   -0.011250
   111  H    0.006152
   112  H   -0.004158
   113  H   -0.003789
   114  H   -0.003077
   115  H   -0.007936
   116  H    0.019850
   117  H    0.005253
   118  H    0.001476
   119  H   -0.010830
   120  H   -0.003777
   121  H   -0.004982
   122  H   -0.020324
   123  H    0.002639
   124  H   -0.004517
   125  H    0.010632
   126  H    0.013434
   127  H   -0.005315
   128  H   -0.007611
   129  H   -0.015410
   130  H   -0.014734
   131  H   -0.009591
   132  H   -0.004966
   133  H   -0.020491
   134  H   -0.006020
   135  H    0.000884
   136  H    0.010943
   137  H    0.015918
   138  H    0.009195
   139  H    0.003681
   140  H    0.014217
 Sum of Mulliken charges =  -0.00000

 Dipole moment (field-independent basis, Debye):
    X=              4.4817    Y=              2.8994    Z=             -3.7622  Tot=              6.5304
 Quadrupole moment (field-independent basis, Debye-Ang):
   XX=           -385.8274   YY=           -419.6905   ZZ=           -407.5381
   XY=            -16.1692   XZ=              2.0087   YZ=              7.5827

 Normal termination of Gaussian 16 at Wed May  4 15:11:45 2022.
