 Gaussian 16, Revision A.03,
 Gaussian 16:  ES64L-G16RevA.03 25-Dec-2016

 ---------------------------------
 #p PBE1PBE/Def2SVP td=(nstates=5)
 ---------------------------------

 -----------------------------------------------------
 step_1851_chromophore_9 TDDFT with PBE1PBE functional
 -----------------------------------------------------
 Symbolic Z-matrix:
 Charge =  0 Multiplicity = 1

                         Standard orientation:
 ---------------------------------------------------------------------
 Center     Atomic      Atomic             Coordinates (Angstroms)
 Number     Number       Type             X           Y           Z
 ---------------------------------------------------------------------
      1         12           0       -5.201948    0.964198   -0.257423
      2          6           0       -4.140232   -2.408464    0.136934
      3          6           0       -2.005098    1.793102   -0.839669
      4          6           0       -6.279059    4.034158   -0.247039
      5          6           0       -8.514376   -0.160314    0.608526
      6          7           0       -3.298171   -0.217588   -0.266619
      7          6           0       -3.045928   -1.585589   -0.105954
      8          6           0       -1.598584   -1.980980   -0.269251
      9          6           0       -0.949823   -0.600632   -0.572136
     10          6           0       -2.128825    0.433729   -0.594851
     11          6           0        0.130462   -0.165161    0.415766
     12          6           0       -1.374386   -3.028250   -1.421135
     13          6           0       -0.440788   -4.235217   -1.227534
     14          6           0        0.881202   -3.857860   -0.485247
     15          8           0        1.172511   -4.071921    0.676228
     16          8           0        1.611792   -2.999521   -1.310637
     17          7           0       -4.235079    2.649701   -0.493157
     18          6           0       -2.850506    2.817929   -0.705581
     19          6           0       -2.624961    4.170064   -1.019829
     20          6           0       -3.827942    4.890825   -0.778332
     21          6           0       -4.888698    3.877985   -0.536786
     22          6           0       -1.333970    4.741385   -1.375418
     23          6           0       -4.168950    6.478534   -0.719097
     24          8           0       -5.316783    6.937299   -0.509436
     25          6           0       -3.166106    7.423930   -1.151919
     26          7           0       -7.154067    1.797215    0.000801
     27          6           0       -7.282618    3.139115   -0.049781
     28          6           0       -8.650006    3.475453    0.523716
     29          6           0       -9.428668    2.178761    0.592759
     30          6           0       -8.329463    1.187914    0.386645
     31          6           0       -8.637736    4.295782    1.925566
     32          6           0      -10.660603    1.842848   -0.270695
     33          6           0      -10.575739    0.773443   -1.396747
     34          7           0       -6.214151   -0.884948    0.360974
     35          6           0       -7.546184   -1.181970    0.681387
     36          6           0       -7.685393   -2.572129    0.866527
     37          6           0       -6.382496   -3.079822    0.643220
     38          6           0       -5.519505   -2.005508    0.358882
     39          6           0       -8.744491   -3.311888    1.520688
     40          6           0       -5.595361   -4.322522    0.735857
     41          8           0       -5.949415   -5.398914    1.170393
     42          6           0       -4.155835   -3.930037    0.356274
     43          6           0       -3.204281   -4.300666    1.426211
     44          8           0       -2.956428   -3.650762    2.455003
     45          8           0       -2.626745   -5.512606    1.126346
     46          6           0       -1.670791   -6.083213    2.117636
     47          6           0        2.792029   -2.384652   -0.708810
     48          6           0        3.970812   -2.762353   -1.600841
     49          6           0        5.266984   -2.732461   -1.312356
     50          6           0        5.755300   -2.177573   -0.019310
     51          6           0        6.329760   -3.290312   -2.256346
     52          6           0        7.137700   -2.233170   -3.024058
     53          6           0        8.550322   -1.937872   -2.475692
     54          6           0        9.158771   -0.575729   -2.920025
     55          6           0        9.325704   -0.583052   -4.543257
     56          6           0       10.518618   -0.380007   -2.217875
     57          6           0       11.071282    1.014183   -2.457628
     58          6           0       12.224698    1.356787   -1.513045
     59          6           0       11.710447    2.283606   -0.362873
     60          6           0       12.258044    3.702397   -0.324852
     61          6           0       11.933678    1.572236    1.027666
     62          6           0       10.898977    1.981109    2.138195
     63          6           0       11.528430    2.506517    3.438036
     64          6           0       11.650557    1.566526    4.638668
     65          6           0       10.316750    1.677664    5.472730
     66          6           0       12.935272    1.870676    5.445950
     67          1           0       -1.024496    2.032066   -1.255975
     68          1           0       -6.671639    5.051220   -0.198151
     69          1           0       -9.492929   -0.440886    1.005298
     70          1           0       -1.261985   -2.405901    0.676407
     71          1           0       -0.399372   -0.564307   -1.513203
     72          1           0       -0.093961    0.679426    1.066922
     73          1           0        1.117263    0.108864    0.043121
     74          1           0        0.252073   -0.981634    1.128104
     75          1           0       -0.946045   -2.529183   -2.291548
     76          1           0       -2.384375   -3.313255   -1.713000
     77          1           0       -0.212004   -4.577440   -2.236546
     78          1           0       -0.940629   -5.067082   -0.730027
     79          1           0       -1.132343    5.497021   -0.615641
     80          1           0       -1.284024    5.188947   -2.368237
     81          1           0       -0.516000    4.020407   -1.354635
     82          1           0       -2.452661    7.614629   -0.349946
     83          1           0       -3.647090    8.364891   -1.415547
     84          1           0       -2.622402    7.160740   -2.059382
     85          1           0       -9.053807    4.110967   -0.264731
     86          1           0       -9.724613    2.007055    1.627521
     87          1           0       -7.596808    4.371836    2.237318
     88          1           0       -9.172562    3.653254    2.625051
     89          1           0       -9.152069    5.254361    1.860652
     90          1           0      -11.064901    2.778559   -0.657209
     91          1           0      -11.388655    1.406925    0.413674
     92          1           0       -9.642271    0.940762   -1.933843
     93          1           0      -11.295926    1.020667   -2.177264
     94          1           0      -10.656970   -0.274834   -1.111384
     95          1           0       -9.000617   -2.679045    2.370384
     96          1           0       -8.499376   -4.354747    1.723938
     97          1           0       -9.528253   -3.210552    0.769856
     98          1           0       -3.918552   -4.507018   -0.537392
     99          1           0       -1.327865   -5.418526    2.910411
    100          1           0       -0.836807   -6.529938    1.577074
    101          1           0       -1.964995   -7.016921    2.596085
    102          1           0        3.063954   -2.818255    0.253782
    103          1           0        2.608859   -1.312597   -0.787709
    104          1           0        3.722932   -3.367548   -2.472591
    105          1           0        4.988212   -1.483566    0.323348
    106          1           0        6.628860   -1.612399   -0.343581
    107          1           0        5.994978   -2.956844    0.704955
    108          1           0        5.968918   -4.072077   -2.924894
    109          1           0        7.054255   -3.840976   -1.657954
    110          1           0        6.714065   -1.240947   -2.867468
    111          1           0        7.195906   -2.462725   -4.088630
    112          1           0        9.066848   -2.781917   -2.932071
    113          1           0        8.393661   -2.036559   -1.401710
    114          1           0        8.369448    0.153549   -2.735558
    115          1           0       10.336943   -0.251244   -4.777230
    116          1           0        8.700816    0.105016   -5.112883
    117          1           0        9.339321   -1.610969   -4.905218
    118          1           0       11.191445   -1.219301   -2.393284
    119          1           0       10.195426   -0.381627   -1.175932
    120          1           0       10.183463    1.641702   -2.380089
    121          1           0       11.527895    1.100308   -3.442837
    122          1           0       12.845169    1.957265   -2.177866
    123          1           0       12.724087    0.414190   -1.286491
    124          1           0       10.630405    2.386847   -0.475495
    125          1           0       12.819919    3.868335    0.593878
    126          1           0       11.465010    4.422683   -0.524405
    127          1           0       12.993010    3.801541   -1.123902
    128          1           0       12.987029    1.701905    1.277353
    129          1           0       11.918533    0.486742    0.932969
    130          1           0       10.282989    1.135534    2.441198
    131          1           0       10.158817    2.679723    1.747696
    132          1           0       11.098808    3.479676    3.673358
    133          1           0       12.552987    2.647355    3.094058
    134          1           0       11.823544    0.582285    4.202745
    135          1           0       10.536829    1.904399    6.515308
    136          1           0        9.854101    0.691124    5.433478
    137          1           0        9.554625    2.413011    5.213521
    138          1           0       13.303389    0.896465    5.767489
    139          1           0       12.656796    2.436098    6.335806
    140          1           0       13.709215    2.427276    4.917405
 ---------------------------------------------------------------------

 SCF Done:  E(RPBE1PBE) =  -3005.33671828     A.U. after   16 cycles

 Excitation energies and oscillator strengths:

 Excited State   1:      Singlet-A      1.8528 eV  669.16 nm  f=0.3594  <S**2>=0.000
     245 -> 248        0.15751
     246 -> 247        0.69512
     246 <- 247       -0.11120
 This state for optimization and/or second-order correction.
 Total Energy, E(TD-HF/TD-DFT) =  -3005.26862742
 Copying the excited state density for this state as the 1-particle RhoCI density.

 Excited State   2:      Singlet-A      2.2667 eV  546.99 nm  f=0.1316  <S**2>=0.000
     245 -> 247        0.64996
     246 -> 248       -0.24552

 Excited State   3:      Singlet-A      2.8022 eV  442.46 nm  f=0.0060  <S**2>=0.000
     243 -> 247       -0.10105
     244 -> 247        0.69111

 Excited State   4:      Singlet-A      3.0382 eV  408.08 nm  f=0.0039  <S**2>=0.000
     242 -> 247        0.57532
     243 -> 247       -0.34975

 Excited State   5:      Singlet-A      3.0728 eV  403.48 nm  f=0.0058  <S**2>=0.000
     242 -> 247        0.35914
     243 -> 247        0.58253

 The electronic state is 1-A.
 Alpha  occ. eigenvalues --  -46.91063 -19.26089 -19.25994 -19.21451 -19.19805
 Alpha  occ. eigenvalues --  -19.19628 -19.18947 -14.41731 -14.40579 -14.38818
 Alpha  occ. eigenvalues --  -14.37781 -10.37498 -10.36304 -10.33318 -10.31754
 Alpha  occ. eigenvalues --  -10.29715 -10.28795 -10.28637 -10.28529 -10.28237
 Alpha  occ. eigenvalues --  -10.27575 -10.27514 -10.26979 -10.26402 -10.26102
 Alpha  occ. eigenvalues --  -10.25984 -10.25838 -10.25796 -10.25740 -10.25727
 Alpha  occ. eigenvalues --  -10.25697 -10.25637 -10.25318 -10.24972 -10.24452
 Alpha  occ. eigenvalues --  -10.24371 -10.24285 -10.24242 -10.24108 -10.24061
 Alpha  occ. eigenvalues --  -10.24027 -10.23782 -10.23558 -10.23538 -10.23427
 Alpha  occ. eigenvalues --  -10.23414 -10.23370 -10.23346 -10.23335 -10.22967
 Alpha  occ. eigenvalues --  -10.22630 -10.22600 -10.22593 -10.22573 -10.22571
 Alpha  occ. eigenvalues --  -10.22541 -10.22413 -10.22347 -10.22261 -10.22260
 Alpha  occ. eigenvalues --  -10.22072 -10.22043 -10.21759 -10.21736 -10.21679
 Alpha  occ. eigenvalues --  -10.21364  -3.13252  -1.86100  -1.85627  -1.85482
 Alpha  occ. eigenvalues --   -1.11354  -1.09930  -1.04740  -1.03711  -1.03512
 Alpha  occ. eigenvalues --   -1.01261  -0.98389  -0.97599  -0.97121  -0.96092
 Alpha  occ. eigenvalues --   -0.86460  -0.85227  -0.84181  -0.83962  -0.83857
 Alpha  occ. eigenvalues --   -0.82833  -0.82785  -0.81712  -0.81652  -0.81458
 Alpha  occ. eigenvalues --   -0.81116  -0.80108  -0.79012  -0.77807  -0.77439
 Alpha  occ. eigenvalues --   -0.76858  -0.76524  -0.75773  -0.75099  -0.74943
 Alpha  occ. eigenvalues --   -0.73980  -0.72243  -0.72164  -0.71422  -0.70484
 Alpha  occ. eigenvalues --   -0.70240  -0.69567  -0.69457  -0.69174  -0.68477
 Alpha  occ. eigenvalues --   -0.67718  -0.67401  -0.66048  -0.64770  -0.64224
 Alpha  occ. eigenvalues --   -0.62906  -0.62677  -0.61335  -0.61115  -0.59701
 Alpha  occ. eigenvalues --   -0.59606  -0.59055  -0.58924  -0.58737  -0.58083
 Alpha  occ. eigenvalues --   -0.57874  -0.57456  -0.56857  -0.56304  -0.54679
 Alpha  occ. eigenvalues --   -0.54159  -0.54114  -0.53628  -0.52753  -0.52485
 Alpha  occ. eigenvalues --   -0.51848  -0.51729  -0.50801  -0.50746  -0.50333
 Alpha  occ. eigenvalues --   -0.49792  -0.49544  -0.49114  -0.48740  -0.48585
 Alpha  occ. eigenvalues --   -0.48258  -0.47749  -0.47720  -0.47527  -0.47252
 Alpha  occ. eigenvalues --   -0.47166  -0.47088  -0.46922  -0.46830  -0.46435
 Alpha  occ. eigenvalues --   -0.46230  -0.45856  -0.45533  -0.45462  -0.45295
 Alpha  occ. eigenvalues --   -0.45224  -0.44809  -0.44636  -0.44517  -0.44412
 Alpha  occ. eigenvalues --   -0.44219  -0.43757  -0.43640  -0.43569  -0.43452
 Alpha  occ. eigenvalues --   -0.43051  -0.43008  -0.42738  -0.42491  -0.42417
 Alpha  occ. eigenvalues --   -0.42335  -0.41995  -0.41676  -0.41612  -0.41315
 Alpha  occ. eigenvalues --   -0.41072  -0.40727  -0.40673  -0.40540  -0.40516
 Alpha  occ. eigenvalues --   -0.40202  -0.40176  -0.39983  -0.39555  -0.39239
 Alpha  occ. eigenvalues --   -0.39186  -0.38947  -0.38717  -0.38689  -0.38623
 Alpha  occ. eigenvalues --   -0.38568  -0.38542  -0.38185  -0.38015  -0.37661
 Alpha  occ. eigenvalues --   -0.37446  -0.37201  -0.36976  -0.36944  -0.36663
 Alpha  occ. eigenvalues --   -0.36440  -0.36245  -0.36183  -0.36000  -0.35770
 Alpha  occ. eigenvalues --   -0.35667  -0.35424  -0.35281  -0.35142  -0.35075
 Alpha  occ. eigenvalues --   -0.34639  -0.34515  -0.34358  -0.34100  -0.33813
 Alpha  occ. eigenvalues --   -0.33156  -0.33021  -0.32865  -0.32149  -0.32118
 Alpha  occ. eigenvalues --   -0.31955  -0.31852  -0.31766  -0.31536  -0.31195
 Alpha  occ. eigenvalues --   -0.30748  -0.30564  -0.30094  -0.29770  -0.29013
 Alpha  occ. eigenvalues --   -0.28828  -0.28720  -0.28513  -0.26859  -0.26274
 Alpha  occ. eigenvalues --   -0.25440  -0.25429  -0.25201  -0.24194  -0.20938
 Alpha  occ. eigenvalues --   -0.18596
 Alpha virt. eigenvalues --   -0.11039  -0.04873  -0.03586  -0.02042  -0.00527
 Alpha virt. eigenvalues --    0.00446   0.00815   0.01645   0.01868   0.02932
 Alpha virt. eigenvalues --    0.04070   0.04479   0.04926   0.05173   0.05703

 Mulliken charges:
               1
     1  Mg   0.966391
     2  C   -0.032563
     3  C   -0.117943
     4  C   -0.063620
     5  C   -0.040305
     6  N   -0.398858
     7  C    0.030306
     8  C   -0.078913
     9  C   -0.106893
    10  C    0.098111
    11  C   -0.016864
    12  C   -0.014513
    13  C    0.012907
    14  C    0.227732
    15  O   -0.250425
    16  O   -0.392292
    17  N   -0.602624
    18  C    0.263862
    19  C   -0.178769
    20  C   -0.107022
    21  C    0.190334
    22  C    0.046755
    23  C    0.116593
    24  O   -0.259616
    25  C   -0.030940
    26  N   -0.403259
    27  C    0.077331
    28  C   -0.112524
    29  C   -0.046923
    30  C    0.017566
    31  C    0.016517
    32  C   -0.034568
    33  C   -0.050987
    34  N   -0.430494
    35  C    0.098741
    36  C   -0.185529
    37  C   -0.090531
    38  C    0.179401
    39  C    0.065577
    40  C    0.155554
    41  O   -0.206376
    42  C   -0.103672
    43  C    0.296171
    44  O   -0.268818
    45  O   -0.370944
    46  C    0.126775
    47  C    0.238529
    48  C   -0.145054
    49  C   -0.241431
    50  C    0.027943
    51  C    0.044976
    52  C   -0.053321
    53  C   -0.057255
    54  C   -0.209915
    55  C   -0.031305
    56  C   -0.000607
    57  C   -0.067205
    58  C    0.044440
    59  C   -0.221245
    60  C    0.023183
    61  C   -0.033816
    62  C   -0.015462
    63  C   -0.040178
    64  C   -0.226005
    65  C   -0.014865
    66  C   -0.015089
    67  H    0.000254
    68  H    0.029734
    69  H    0.000903
    70  H    0.088728
    71  H    0.049295
    72  H    0.041498
    73  H    0.032637
    74  H    0.045216
    75  H    0.047171
    76  H    0.046910
    77  H    0.057937
    78  H    0.067523
    79  H    0.057503
    80  H    0.060230
    81  H    0.032334
    82  H    0.068677
    83  H    0.056946
    84  H    0.059067
    85  H    0.038176
    86  H    0.045182
    87  H    0.059858
    88  H    0.035651
    89  H    0.057936
    90  H    0.038568
    91  H    0.034870
    92  H    0.045253
    93  H    0.037527
    94  H    0.051582
    95  H    0.060765
    96  H    0.074169
    97  H    0.043331
    98  H    0.078532
    99  H    0.083198
   100  H    0.043653
   101  H    0.048401
   102  H    0.084373
   103  H    0.061678
   104  H    0.022740
   105  H    0.038604
   106  H    0.037509
   107  H    0.070900
   108  H    0.024589
   109  H    0.023045
   110  H    0.023997
   111  H    0.037981
   112  H    0.030161
   113  H    0.028438
   114  H    0.032867
   115  H    0.020354
   116  H    0.046766
   117  H    0.032073
   118  H    0.032493
   119  H    0.026594
   120  H    0.028654
   121  H    0.027532
   122  H    0.014128
   123  H    0.033569
   124  H    0.033508
   125  H    0.038305
   126  H    0.040218
   127  H    0.022115
   128  H    0.023667
   129  H    0.016970
   130  H    0.018935
   131  H    0.022159
   132  H    0.027440
   133  H    0.014113
   134  H    0.031973
   135  H    0.027767
   136  H    0.038331
   137  H    0.041735
   138  H    0.037030
   139  H    0.031156
   140  H    0.040161
 Sum of Mulliken charges =  -0.00000

 Dipole moment (field-independent basis, Debye):
    X=              4.1876    Y=              2.6061    Z=             -3.6624  Tot=              6.1433
 Quadrupole moment (field-independent basis, Debye-Ang):
   XX=           -377.0944   YY=           -417.8466   ZZ=           -404.8881
   XY=            -15.3526   XZ=              0.8708   YZ=              7.7661

 Normal termination of Gaussian 16 at Wed May  4 15:29:26 2022.
