 Gaussian 16, Revision A.03,
 Gaussian 16:  ES64L-G16RevA.03 25-Dec-2016

 --------------------------------
 #p wB97XD/Def2SVP td=(nstates=5)
 --------------------------------

 ----------------------------------------------------
 step_1851_chromophore_9 TDDFT with wB97XD functional
 ----------------------------------------------------
 Symbolic Z-matrix:
 Charge =  0 Multiplicity = 1

                         Standard orientation:
 ---------------------------------------------------------------------
 Center     Atomic      Atomic             Coordinates (Angstroms)
 Number     Number       Type             X           Y           Z
 ---------------------------------------------------------------------
      1         12           0       -5.201948    0.964198   -0.257423
      2          6           0       -4.140232   -2.408464    0.136934
      3          6           0       -2.005098    1.793102   -0.839669
      4          6           0       -6.279059    4.034158   -0.247039
      5          6           0       -8.514376   -0.160314    0.608526
      6          7           0       -3.298171   -0.217588   -0.266619
      7          6           0       -3.045928   -1.585589   -0.105954
      8          6           0       -1.598584   -1.980980   -0.269251
      9          6           0       -0.949823   -0.600632   -0.572136
     10          6           0       -2.128825    0.433729   -0.594851
     11          6           0        0.130462   -0.165161    0.415766
     12          6           0       -1.374386   -3.028250   -1.421135
     13          6           0       -0.440788   -4.235217   -1.227534
     14          6           0        0.881202   -3.857860   -0.485247
     15          8           0        1.172511   -4.071921    0.676228
     16          8           0        1.611792   -2.999521   -1.310637
     17          7           0       -4.235079    2.649701   -0.493157
     18          6           0       -2.850506    2.817929   -0.705581
     19          6           0       -2.624961    4.170064   -1.019829
     20          6           0       -3.827942    4.890825   -0.778332
     21          6           0       -4.888698    3.877985   -0.536786
     22          6           0       -1.333970    4.741385   -1.375418
     23          6           0       -4.168950    6.478534   -0.719097
     24          8           0       -5.316783    6.937299   -0.509436
     25          6           0       -3.166106    7.423930   -1.151919
     26          7           0       -7.154067    1.797215    0.000801
     27          6           0       -7.282618    3.139115   -0.049781
     28          6           0       -8.650006    3.475453    0.523716
     29          6           0       -9.428668    2.178761    0.592759
     30          6           0       -8.329463    1.187914    0.386645
     31          6           0       -8.637736    4.295782    1.925566
     32          6           0      -10.660603    1.842848   -0.270695
     33          6           0      -10.575739    0.773443   -1.396747
     34          7           0       -6.214151   -0.884948    0.360974
     35          6           0       -7.546184   -1.181970    0.681387
     36          6           0       -7.685393   -2.572129    0.866527
     37          6           0       -6.382496   -3.079822    0.643220
     38          6           0       -5.519505   -2.005508    0.358882
     39          6           0       -8.744491   -3.311888    1.520688
     40          6           0       -5.595361   -4.322522    0.735857
     41          8           0       -5.949415   -5.398914    1.170393
     42          6           0       -4.155835   -3.930037    0.356274
     43          6           0       -3.204281   -4.300666    1.426211
     44          8           0       -2.956428   -3.650762    2.455003
     45          8           0       -2.626745   -5.512606    1.126346
     46          6           0       -1.670791   -6.083213    2.117636
     47          6           0        2.792029   -2.384652   -0.708810
     48          6           0        3.970812   -2.762353   -1.600841
     49          6           0        5.266984   -2.732461   -1.312356
     50          6           0        5.755300   -2.177573   -0.019310
     51          6           0        6.329760   -3.290312   -2.256346
     52          6           0        7.137700   -2.233170   -3.024058
     53          6           0        8.550322   -1.937872   -2.475692
     54          6           0        9.158771   -0.575729   -2.920025
     55          6           0        9.325704   -0.583052   -4.543257
     56          6           0       10.518618   -0.380007   -2.217875
     57          6           0       11.071282    1.014183   -2.457628
     58          6           0       12.224698    1.356787   -1.513045
     59          6           0       11.710447    2.283606   -0.362873
     60          6           0       12.258044    3.702397   -0.324852
     61          6           0       11.933678    1.572236    1.027666
     62          6           0       10.898977    1.981109    2.138195
     63          6           0       11.528430    2.506517    3.438036
     64          6           0       11.650557    1.566526    4.638668
     65          6           0       10.316750    1.677664    5.472730
     66          6           0       12.935272    1.870676    5.445950
     67          1           0       -1.024496    2.032066   -1.255975
     68          1           0       -6.671639    5.051220   -0.198151
     69          1           0       -9.492929   -0.440886    1.005298
     70          1           0       -1.261985   -2.405901    0.676407
     71          1           0       -0.399372   -0.564307   -1.513203
     72          1           0       -0.093961    0.679426    1.066922
     73          1           0        1.117263    0.108864    0.043121
     74          1           0        0.252073   -0.981634    1.128104
     75          1           0       -0.946045   -2.529183   -2.291548
     76          1           0       -2.384375   -3.313255   -1.713000
     77          1           0       -0.212004   -4.577440   -2.236546
     78          1           0       -0.940629   -5.067082   -0.730027
     79          1           0       -1.132343    5.497021   -0.615641
     80          1           0       -1.284024    5.188947   -2.368237
     81          1           0       -0.516000    4.020407   -1.354635
     82          1           0       -2.452661    7.614629   -0.349946
     83          1           0       -3.647090    8.364891   -1.415547
     84          1           0       -2.622402    7.160740   -2.059382
     85          1           0       -9.053807    4.110967   -0.264731
     86          1           0       -9.724613    2.007055    1.627521
     87          1           0       -7.596808    4.371836    2.237318
     88          1           0       -9.172562    3.653254    2.625051
     89          1           0       -9.152069    5.254361    1.860652
     90          1           0      -11.064901    2.778559   -0.657209
     91          1           0      -11.388655    1.406925    0.413674
     92          1           0       -9.642271    0.940762   -1.933843
     93          1           0      -11.295926    1.020667   -2.177264
     94          1           0      -10.656970   -0.274834   -1.111384
     95          1           0       -9.000617   -2.679045    2.370384
     96          1           0       -8.499376   -4.354747    1.723938
     97          1           0       -9.528253   -3.210552    0.769856
     98          1           0       -3.918552   -4.507018   -0.537392
     99          1           0       -1.327865   -5.418526    2.910411
    100          1           0       -0.836807   -6.529938    1.577074
    101          1           0       -1.964995   -7.016921    2.596085
    102          1           0        3.063954   -2.818255    0.253782
    103          1           0        2.608859   -1.312597   -0.787709
    104          1           0        3.722932   -3.367548   -2.472591
    105          1           0        4.988212   -1.483566    0.323348
    106          1           0        6.628860   -1.612399   -0.343581
    107          1           0        5.994978   -2.956844    0.704955
    108          1           0        5.968918   -4.072077   -2.924894
    109          1           0        7.054255   -3.840976   -1.657954
    110          1           0        6.714065   -1.240947   -2.867468
    111          1           0        7.195906   -2.462725   -4.088630
    112          1           0        9.066848   -2.781917   -2.932071
    113          1           0        8.393661   -2.036559   -1.401710
    114          1           0        8.369448    0.153549   -2.735558
    115          1           0       10.336943   -0.251244   -4.777230
    116          1           0        8.700816    0.105016   -5.112883
    117          1           0        9.339321   -1.610969   -4.905218
    118          1           0       11.191445   -1.219301   -2.393284
    119          1           0       10.195426   -0.381627   -1.175932
    120          1           0       10.183463    1.641702   -2.380089
    121          1           0       11.527895    1.100308   -3.442837
    122          1           0       12.845169    1.957265   -2.177866
    123          1           0       12.724087    0.414190   -1.286491
    124          1           0       10.630405    2.386847   -0.475495
    125          1           0       12.819919    3.868335    0.593878
    126          1           0       11.465010    4.422683   -0.524405
    127          1           0       12.993010    3.801541   -1.123902
    128          1           0       12.987029    1.701905    1.277353
    129          1           0       11.918533    0.486742    0.932969
    130          1           0       10.282989    1.135534    2.441198
    131          1           0       10.158817    2.679723    1.747696
    132          1           0       11.098808    3.479676    3.673358
    133          1           0       12.552987    2.647355    3.094058
    134          1           0       11.823544    0.582285    4.202745
    135          1           0       10.536829    1.904399    6.515308
    136          1           0        9.854101    0.691124    5.433478
    137          1           0        9.554625    2.413011    5.213521
    138          1           0       13.303389    0.896465    5.767489
    139          1           0       12.656796    2.436098    6.335806
    140          1           0       13.709215    2.427276    4.917405
 ---------------------------------------------------------------------

 SCF Done:  E(RwB97XD) =  -3007.84801535     A.U. after   20 cycles

 Excitation energies and oscillator strengths:

 Excited State   1:      Singlet-A      1.6460 eV  753.24 nm  f=0.3746  <S**2>=0.000
     245 -> 248        0.17569
     246 -> 247        0.68549
     245 <- 248        0.11393
 This state for optimization and/or second-order correction.
 Total Energy, E(TD-HF/TD-DFT) =  -3007.78752579
 Copying the excited state density for this state as the 1-particle RhoCI density.

 Excited State   2:      Singlet-A      2.2020 eV  563.04 nm  f=0.1311  <S**2>=0.000
     245 -> 247        0.63908
     246 -> 248       -0.27986

 Excited State   3:      Singlet-A      3.1882 eV  388.89 nm  f=0.0039  <S**2>=0.000
     243 -> 247       -0.17961
     244 -> 247        0.66424

 Excited State   4:      Singlet-A      3.4125 eV  363.32 nm  f=0.0098  <S**2>=0.000
     241 -> 247        0.14131
     243 -> 247        0.60654
     244 -> 247        0.15704
     246 -> 248        0.24748

 Excited State   5:      Singlet-A      3.6033 eV  344.08 nm  f=0.0028  <S**2>=0.000
     237 -> 247        0.11863
     241 -> 247        0.57111
     241 -> 249       -0.20706
     241 -> 250        0.22771
     243 -> 247       -0.12727

 The electronic state is 1-A.
 Alpha  occ. eigenvalues --  -46.94005 -19.30632 -19.30537 -19.26106 -19.24799
 Alpha  occ. eigenvalues --  -19.24310 -19.23627 -14.46920 -14.45599 -14.43841
 Alpha  occ. eigenvalues --  -14.42595 -10.44274 -10.43130 -10.40340 -10.38488
 Alpha  occ. eigenvalues --  -10.36222 -10.35278 -10.35098 -10.34823 -10.34723
 Alpha  occ. eigenvalues --  -10.33933 -10.33622 -10.33589 -10.32496 -10.32417
 Alpha  occ. eigenvalues --  -10.32371 -10.32313 -10.32307 -10.32159 -10.32134
 Alpha  occ. eigenvalues --  -10.32070 -10.31843 -10.31665 -10.31173 -10.30979
 Alpha  occ. eigenvalues --  -10.30739 -10.30612 -10.30487 -10.30461 -10.30391
 Alpha  occ. eigenvalues --  -10.30274 -10.30139 -10.30014 -10.29907 -10.29839
 Alpha  occ. eigenvalues --  -10.29828 -10.29823 -10.29753 -10.29628 -10.29437
 Alpha  occ. eigenvalues --  -10.29013 -10.28967 -10.28963 -10.28937 -10.28882
 Alpha  occ. eigenvalues --  -10.28846 -10.28784 -10.28776 -10.28649 -10.28620
 Alpha  occ. eigenvalues --  -10.28472 -10.28454 -10.28206 -10.28163 -10.27745
 Alpha  occ. eigenvalues --  -10.27739  -3.20046  -1.93645  -1.93175  -1.93021
 Alpha  occ. eigenvalues --   -1.18727  -1.17320  -1.12090  -1.11394  -1.10847
 Alpha  occ. eigenvalues --   -1.08621  -1.05707  -1.04929  -1.04532  -1.03592
 Alpha  occ. eigenvalues --   -0.94032  -0.92915  -0.91856  -0.91602  -0.91498
 Alpha  occ. eigenvalues --   -0.90508  -0.90405  -0.89439  -0.89328  -0.88965
 Alpha  occ. eigenvalues --   -0.88642  -0.87781  -0.86691  -0.85527  -0.85081
 Alpha  occ. eigenvalues --   -0.84585  -0.84173  -0.83410  -0.82664  -0.82581
 Alpha  occ. eigenvalues --   -0.81640  -0.79987  -0.79788  -0.79001  -0.78076
 Alpha  occ. eigenvalues --   -0.77923  -0.77276  -0.77042  -0.76874  -0.76164
 Alpha  occ. eigenvalues --   -0.75290  -0.74908  -0.73600  -0.72413  -0.71722
 Alpha  occ. eigenvalues --   -0.70541  -0.70207  -0.68919  -0.68754  -0.67352
 Alpha  occ. eigenvalues --   -0.67026  -0.66477  -0.66358  -0.66315  -0.65740
 Alpha  occ. eigenvalues --   -0.65431  -0.65130  -0.64520  -0.63650  -0.62252
 Alpha  occ. eigenvalues --   -0.61639  -0.61550  -0.61159  -0.60107  -0.59994
 Alpha  occ. eigenvalues --   -0.59278  -0.59151  -0.58279  -0.58180  -0.57739
 Alpha  occ. eigenvalues --   -0.57152  -0.56866  -0.56494  -0.56163  -0.56013
 Alpha  occ. eigenvalues --   -0.55646  -0.55190  -0.55089  -0.55039  -0.54859
 Alpha  occ. eigenvalues --   -0.54583  -0.54493  -0.54341  -0.54137  -0.53741
 Alpha  occ. eigenvalues --   -0.53592  -0.53139  -0.52983  -0.52782  -0.52728
 Alpha  occ. eigenvalues --   -0.52604  -0.52053  -0.51977  -0.51878  -0.51841
 Alpha  occ. eigenvalues --   -0.51527  -0.51086  -0.50925  -0.50895  -0.50743
 Alpha  occ. eigenvalues --   -0.50360  -0.50343  -0.50047  -0.49764  -0.49705
 Alpha  occ. eigenvalues --   -0.49536  -0.49394  -0.48937  -0.48786  -0.48570
 Alpha  occ. eigenvalues --   -0.48215  -0.47986  -0.47809  -0.47779  -0.47644
 Alpha  occ. eigenvalues --   -0.47433  -0.47225  -0.47216  -0.46748  -0.46412
 Alpha  occ. eigenvalues --   -0.46308  -0.46132  -0.45954  -0.45886  -0.45771
 Alpha  occ. eigenvalues --   -0.45747  -0.45613  -0.45316  -0.45145  -0.44850
 Alpha  occ. eigenvalues --   -0.44678  -0.44287  -0.44109  -0.44027  -0.43810
 Alpha  occ. eigenvalues --   -0.43750  -0.43384  -0.43151  -0.43010  -0.42887
 Alpha  occ. eigenvalues --   -0.42791  -0.42491  -0.42360  -0.42150  -0.42008
 Alpha  occ. eigenvalues --   -0.41751  -0.41558  -0.41235  -0.41169  -0.40871
 Alpha  occ. eigenvalues --   -0.40074  -0.40068  -0.39911  -0.39154  -0.39089
 Alpha  occ. eigenvalues --   -0.38982  -0.38836  -0.38802  -0.38509  -0.38213
 Alpha  occ. eigenvalues --   -0.37790  -0.37592  -0.37002  -0.36816  -0.35916
 Alpha  occ. eigenvalues --   -0.35715  -0.35662  -0.35188  -0.33703  -0.33343
 Alpha  occ. eigenvalues --   -0.32337  -0.32220  -0.31954  -0.30534  -0.25933
 Alpha  occ. eigenvalues --   -0.22763
 Alpha virt. eigenvalues --   -0.06948   0.00642   0.02591   0.04505   0.06329
 Alpha virt. eigenvalues --    0.06648   0.07301   0.08215   0.08559   0.09415
 Alpha virt. eigenvalues --    0.10557   0.11273   0.11602   0.11862   0.12484

 Mulliken charges:
               1
     1  Mg   0.954905
     2  C   -0.029286
     3  C   -0.131208
     4  C   -0.077209
     5  C   -0.060976
     6  N   -0.365562
     7  C   -0.000622
     8  C   -0.054664
     9  C   -0.081516
    10  C    0.085286
    11  C   -0.008688
    12  C   -0.003582
    13  C    0.036423
    14  C    0.213909
    15  O   -0.246315
    16  O   -0.390846
    17  N   -0.573940
    18  C    0.256433
    19  C   -0.160133
    20  C   -0.104064
    21  C    0.180728
    22  C    0.055334
    23  C    0.115748
    24  O   -0.252237
    25  C   -0.024433
    26  N   -0.369551
    27  C    0.064006
    28  C   -0.089817
    29  C   -0.023890
    30  C    0.011489
    31  C    0.030745
    32  C   -0.024331
    33  C   -0.027102
    34  N   -0.391304
    35  C    0.086181
    36  C   -0.177939
    37  C   -0.086056
    38  C    0.156405
    39  C    0.077426
    40  C    0.133687
    41  O   -0.196829
    42  C   -0.067039
    43  C    0.270299
    44  O   -0.262720
    45  O   -0.367937
    46  C    0.141722
    47  C    0.256594
    48  C   -0.158158
    49  C   -0.224297
    50  C    0.044869
    51  C    0.062370
    52  C   -0.035961
    53  C   -0.036220
    54  C   -0.181884
    55  C   -0.020584
    56  C    0.016525
    57  C   -0.045970
    58  C    0.057711
    59  C   -0.190376
    60  C    0.033939
    61  C   -0.016126
    62  C   -0.004317
    63  C   -0.017659
    64  C   -0.196984
    65  C   -0.004966
    66  C   -0.002713
    67  H   -0.007239
    68  H    0.024417
    69  H   -0.005419
    70  H    0.073806
    71  H    0.039607
    72  H    0.036083
    73  H    0.026489
    74  H    0.039551
    75  H    0.039456
    76  H    0.036710
    77  H    0.053296
    78  H    0.055408
    79  H    0.051662
    80  H    0.057050
    81  H    0.029321
    82  H    0.065710
    83  H    0.056574
    84  H    0.054647
    85  H    0.027309
    86  H    0.032293
    87  H    0.052644
    88  H    0.029307
    89  H    0.053328
    90  H    0.031323
    91  H    0.027167
    92  H    0.033673
    93  H    0.031660
    94  H    0.045097
    95  H    0.054269
    96  H    0.071015
    97  H    0.035391
    98  H    0.071227
    99  H    0.080505
   100  H    0.039870
   101  H    0.044305
   102  H    0.078814
   103  H    0.052912
   104  H    0.019046
   105  H    0.032634
   106  H    0.026835
   107  H    0.067157
   108  H    0.019883
   109  H    0.013180
   110  H    0.009751
   111  H    0.030805
   112  H    0.019182
   113  H    0.014508
   114  H    0.020796
   115  H    0.012521
   116  H    0.042451
   117  H    0.024998
   118  H    0.025728
   119  H    0.012621
   120  H    0.017876
   121  H    0.018569
   122  H    0.004931
   123  H    0.026054
   124  H    0.017228
   125  H    0.031198
   126  H    0.035816
   127  H    0.015514
   128  H    0.013644
   129  H    0.007931
   130  H    0.009816
   131  H    0.014614
   132  H    0.020027
   133  H   -0.003430
   134  H    0.020732
   135  H    0.021504
   136  H    0.032597
   137  H    0.036371
   138  H    0.031680
   139  H    0.023949
   140  H    0.035324
 Sum of Mulliken charges =  -0.00000

 Dipole moment (field-independent basis, Debye):
    X=              4.5840    Y=              3.0484    Z=             -3.8181  Tot=              6.6995
 Quadrupole moment (field-independent basis, Debye-Ang):
   XX=           -381.4488   YY=           -415.2254   ZZ=           -404.4785
   XY=            -16.6360   XZ=              1.7685   YZ=              7.5046

 Normal termination of Gaussian 16 at Wed May  4 16:02:48 2022.
