 Gaussian 16, Revision A.03,
 Gaussian 16:  ES64L-G16RevA.03 25-Dec-2016

 --------------------
 #p ZINDO=(nstates=5)
 --------------------

 -----------------------------
 step_1851_chromophore_9 ZINDO
 -----------------------------
 Symbolic Z-matrix:
 Charge =  0 Multiplicity = 1

                         Standard orientation:
 ---------------------------------------------------------------------
 Center     Atomic      Atomic             Coordinates (Angstroms)
 Number     Number       Type             X           Y           Z
 ---------------------------------------------------------------------
      1         12           0       -5.201948    0.964198   -0.257423
      2          6           0       -4.140232   -2.408464    0.136934
      3          6           0       -2.005098    1.793102   -0.839669
      4          6           0       -6.279059    4.034158   -0.247039
      5          6           0       -8.514376   -0.160314    0.608526
      6          7           0       -3.298171   -0.217588   -0.266619
      7          6           0       -3.045928   -1.585589   -0.105954
      8          6           0       -1.598584   -1.980980   -0.269251
      9          6           0       -0.949823   -0.600632   -0.572136
     10          6           0       -2.128825    0.433729   -0.594851
     11          6           0        0.130462   -0.165161    0.415766
     12          6           0       -1.374386   -3.028250   -1.421135
     13          6           0       -0.440788   -4.235217   -1.227534
     14          6           0        0.881202   -3.857860   -0.485247
     15          8           0        1.172511   -4.071921    0.676228
     16          8           0        1.611792   -2.999521   -1.310637
     17          7           0       -4.235079    2.649701   -0.493157
     18          6           0       -2.850506    2.817929   -0.705581
     19          6           0       -2.624961    4.170064   -1.019829
     20          6           0       -3.827942    4.890825   -0.778332
     21          6           0       -4.888698    3.877985   -0.536786
     22          6           0       -1.333970    4.741385   -1.375418
     23          6           0       -4.168950    6.478534   -0.719097
     24          8           0       -5.316783    6.937299   -0.509436
     25          6           0       -3.166106    7.423930   -1.151919
     26          7           0       -7.154067    1.797215    0.000801
     27          6           0       -7.282618    3.139115   -0.049781
     28          6           0       -8.650006    3.475453    0.523716
     29          6           0       -9.428668    2.178761    0.592759
     30          6           0       -8.329463    1.187914    0.386645
     31          6           0       -8.637736    4.295782    1.925566
     32          6           0      -10.660603    1.842848   -0.270695
     33          6           0      -10.575739    0.773443   -1.396747
     34          7           0       -6.214151   -0.884948    0.360974
     35          6           0       -7.546184   -1.181970    0.681387
     36          6           0       -7.685393   -2.572129    0.866527
     37          6           0       -6.382496   -3.079822    0.643220
     38          6           0       -5.519505   -2.005508    0.358882
     39          6           0       -8.744491   -3.311888    1.520688
     40          6           0       -5.595361   -4.322522    0.735857
     41          8           0       -5.949415   -5.398914    1.170393
     42          6           0       -4.155835   -3.930037    0.356274
     43          6           0       -3.204281   -4.300666    1.426211
     44          8           0       -2.956428   -3.650762    2.455003
     45          8           0       -2.626745   -5.512606    1.126346
     46          6           0       -1.670791   -6.083213    2.117636
     47          6           0        2.792029   -2.384652   -0.708810
     48          6           0        3.970812   -2.762353   -1.600841
     49          6           0        5.266984   -2.732461   -1.312356
     50          6           0        5.755300   -2.177573   -0.019310
     51          6           0        6.329760   -3.290312   -2.256346
     52          6           0        7.137700   -2.233170   -3.024058
     53          6           0        8.550322   -1.937872   -2.475692
     54          6           0        9.158771   -0.575729   -2.920025
     55          6           0        9.325704   -0.583052   -4.543257
     56          6           0       10.518618   -0.380007   -2.217875
     57          6           0       11.071282    1.014183   -2.457628
     58          6           0       12.224698    1.356787   -1.513045
     59          6           0       11.710447    2.283606   -0.362873
     60          6           0       12.258044    3.702397   -0.324852
     61          6           0       11.933678    1.572236    1.027666
     62          6           0       10.898977    1.981109    2.138195
     63          6           0       11.528430    2.506517    3.438036
     64          6           0       11.650557    1.566526    4.638668
     65          6           0       10.316750    1.677664    5.472730
     66          6           0       12.935272    1.870676    5.445950
     67          1           0       -1.024496    2.032066   -1.255975
     68          1           0       -6.671639    5.051220   -0.198151
     69          1           0       -9.492929   -0.440886    1.005298
     70          1           0       -1.261985   -2.405901    0.676407
     71          1           0       -0.399372   -0.564307   -1.513203
     72          1           0       -0.093961    0.679426    1.066922
     73          1           0        1.117263    0.108864    0.043121
     74          1           0        0.252073   -0.981634    1.128104
     75          1           0       -0.946045   -2.529183   -2.291548
     76          1           0       -2.384375   -3.313255   -1.713000
     77          1           0       -0.212004   -4.577440   -2.236546
     78          1           0       -0.940629   -5.067082   -0.730027
     79          1           0       -1.132343    5.497021   -0.615641
     80          1           0       -1.284024    5.188947   -2.368237
     81          1           0       -0.516000    4.020407   -1.354635
     82          1           0       -2.452661    7.614629   -0.349946
     83          1           0       -3.647090    8.364891   -1.415547
     84          1           0       -2.622402    7.160740   -2.059382
     85          1           0       -9.053807    4.110967   -0.264731
     86          1           0       -9.724613    2.007055    1.627521
     87          1           0       -7.596808    4.371836    2.237318
     88          1           0       -9.172562    3.653254    2.625051
     89          1           0       -9.152069    5.254361    1.860652
     90          1           0      -11.064901    2.778559   -0.657209
     91          1           0      -11.388655    1.406925    0.413674
     92          1           0       -9.642271    0.940762   -1.933843
     93          1           0      -11.295926    1.020667   -2.177264
     94          1           0      -10.656970   -0.274834   -1.111384
     95          1           0       -9.000617   -2.679045    2.370384
     96          1           0       -8.499376   -4.354747    1.723938
     97          1           0       -9.528253   -3.210552    0.769856
     98          1           0       -3.918552   -4.507018   -0.537392
     99          1           0       -1.327865   -5.418526    2.910411
    100          1           0       -0.836807   -6.529938    1.577074
    101          1           0       -1.964995   -7.016921    2.596085
    102          1           0        3.063954   -2.818255    0.253782
    103          1           0        2.608859   -1.312597   -0.787709
    104          1           0        3.722932   -3.367548   -2.472591
    105          1           0        4.988212   -1.483566    0.323348
    106          1           0        6.628860   -1.612399   -0.343581
    107          1           0        5.994978   -2.956844    0.704955
    108          1           0        5.968918   -4.072077   -2.924894
    109          1           0        7.054255   -3.840976   -1.657954
    110          1           0        6.714065   -1.240947   -2.867468
    111          1           0        7.195906   -2.462725   -4.088630
    112          1           0        9.066848   -2.781917   -2.932071
    113          1           0        8.393661   -2.036559   -1.401710
    114          1           0        8.369448    0.153549   -2.735558
    115          1           0       10.336943   -0.251244   -4.777230
    116          1           0        8.700816    0.105016   -5.112883
    117          1           0        9.339321   -1.610969   -4.905218
    118          1           0       11.191445   -1.219301   -2.393284
    119          1           0       10.195426   -0.381627   -1.175932
    120          1           0       10.183463    1.641702   -2.380089
    121          1           0       11.527895    1.100308   -3.442837
    122          1           0       12.845169    1.957265   -2.177866
    123          1           0       12.724087    0.414190   -1.286491
    124          1           0       10.630405    2.386847   -0.475495
    125          1           0       12.819919    3.868335    0.593878
    126          1           0       11.465010    4.422683   -0.524405
    127          1           0       12.993010    3.801541   -1.123902
    128          1           0       12.987029    1.701905    1.277353
    129          1           0       11.918533    0.486742    0.932969
    130          1           0       10.282989    1.135534    2.441198
    131          1           0       10.158817    2.679723    1.747696
    132          1           0       11.098808    3.479676    3.673358
    133          1           0       12.552987    2.647355    3.094058
    134          1           0       11.823544    0.582285    4.202745
    135          1           0       10.536829    1.904399    6.515308
    136          1           0        9.854101    0.691124    5.433478
    137          1           0        9.554625    2.413011    5.213521
    138          1           0       13.303389    0.896465    5.767489
    139          1           0       12.656796    2.436098    6.335806
    140          1           0       13.709215    2.427276    4.917405
 ---------------------------------------------------------------------

 SCF Done:  E(RZINDO/S) =  -474.382582236     A.U. after   19 cycles

 Excitation energies and oscillator strengths:

 Excited State   1:      Singlet-A      1.2403 eV  999.66 nm  f=0.6074  <S**2>=0.000
     175 ->178         0.18401
     176 ->177         0.66485
 This state for optimization and/or second-order correction.
 Total Energy, E(CIS/TDA) =  -474.337003348
 Copying the excited state density for this state as the 1-particle RhoCI density.

 Excited State   2:      Singlet-A      1.9503 eV  635.72 nm  f=0.0659  <S**2>=0.000
     175 ->177         0.56054
     176 ->178        -0.40341

 Excited State   3:      Singlet-A      2.9439 eV  421.16 nm  f=0.0092  <S**2>=0.000
     167 ->177        -0.11060
     167 ->179         0.22523
     167 ->180        -0.11880
     168 ->177        -0.22812
     168 ->178         0.12712
     168 ->179         0.41130
     168 ->180        -0.20085
     168 ->185        -0.16895
     168 ->188         0.10484
     171 ->177         0.11357
     171 ->179        -0.10346

 Excited State   4:      Singlet-A      3.0094 eV  411.99 nm  f=0.0251  <S**2>=0.000
     170 ->177         0.22498
     170 ->179         0.21044
     170 ->180         0.25817
     170 ->181         0.15018
     170 ->185        -0.14469
     170 ->187         0.12666
     173 ->177        -0.17290
     174 ->177         0.30607
     176 ->178         0.10334
     176 ->179        -0.15049

 Excited State   5:      Singlet-A      3.0557 eV  405.75 nm  f=0.9710  <S**2>=0.000
     174 ->177         0.12601
     175 ->177         0.34052
     176 ->178         0.51687
     176 ->179         0.18478

 The electronic state is 1-A.
 Alpha  occ. eigenvalues --   -1.83853  -1.81600  -1.80318  -1.73504  -1.70405
 Alpha  occ. eigenvalues --   -1.70091  -1.65834  -1.61513  -1.57727  -1.57584
 Alpha  occ. eigenvalues --   -1.56711  -1.51286  -1.48906  -1.47870  -1.47159
 Alpha  occ. eigenvalues --   -1.45360  -1.42135  -1.41118  -1.40306  -1.38732
 Alpha  occ. eigenvalues --   -1.36246  -1.34761  -1.34207  -1.32418  -1.28673
 Alpha  occ. eigenvalues --   -1.26616  -1.25392  -1.22942  -1.19953  -1.17030
 Alpha  occ. eigenvalues --   -1.16731  -1.15817  -1.15456  -1.14416  -1.13082
 Alpha  occ. eigenvalues --   -1.12680  -1.12275  -1.09365  -1.05400  -1.04526
 Alpha  occ. eigenvalues --   -1.02648  -1.01170  -0.99231  -0.98135  -0.97735
 Alpha  occ. eigenvalues --   -0.96474  -0.94838  -0.93327  -0.92937  -0.92490
 Alpha  occ. eigenvalues --   -0.90901  -0.89254  -0.89093  -0.88054  -0.87444
 Alpha  occ. eigenvalues --   -0.84556  -0.84281  -0.83396  -0.81625  -0.80008
 Alpha  occ. eigenvalues --   -0.79686  -0.78693  -0.77410  -0.76527  -0.75878
 Alpha  occ. eigenvalues --   -0.75397  -0.75352  -0.75064  -0.74481  -0.74149
 Alpha  occ. eigenvalues --   -0.73845  -0.72490  -0.71885  -0.71838  -0.70472
 Alpha  occ. eigenvalues --   -0.70014  -0.69173  -0.68679  -0.68563  -0.68356
 Alpha  occ. eigenvalues --   -0.67881  -0.66789  -0.66139  -0.66119  -0.65362
 Alpha  occ. eigenvalues --   -0.65180  -0.64612  -0.63936  -0.63695  -0.63366
 Alpha  occ. eigenvalues --   -0.62916  -0.62689  -0.62306  -0.62268  -0.62004
 Alpha  occ. eigenvalues --   -0.61378  -0.61007  -0.60625  -0.60164  -0.59858
 Alpha  occ. eigenvalues --   -0.59657  -0.59339  -0.58915  -0.58713  -0.58576
 Alpha  occ. eigenvalues --   -0.57777  -0.57529  -0.57330  -0.56871  -0.56137
 Alpha  occ. eigenvalues --   -0.56079  -0.55320  -0.55087  -0.54698  -0.54584
 Alpha  occ. eigenvalues --   -0.53991  -0.53721  -0.53393  -0.53126  -0.52555
 Alpha  occ. eigenvalues --   -0.52105  -0.51683  -0.51425  -0.51407  -0.51141
 Alpha  occ. eigenvalues --   -0.50927  -0.50451  -0.50233  -0.50009  -0.49668
 Alpha  occ. eigenvalues --   -0.49648  -0.49258  -0.49083  -0.48878  -0.48704
 Alpha  occ. eigenvalues --   -0.48376  -0.48044  -0.47975  -0.47693  -0.47414
 Alpha  occ. eigenvalues --   -0.47262  -0.47096  -0.46772  -0.46494  -0.46167
 Alpha  occ. eigenvalues --   -0.45937  -0.45902  -0.45767  -0.45315  -0.45243
 Alpha  occ. eigenvalues --   -0.44694  -0.44676  -0.44630  -0.44232  -0.44159
 Alpha  occ. eigenvalues --   -0.43776  -0.42964  -0.42736  -0.42665  -0.41755
 Alpha  occ. eigenvalues --   -0.41454  -0.41368  -0.40736  -0.39318  -0.38881
 Alpha  occ. eigenvalues --   -0.37938  -0.36569  -0.35898  -0.34665  -0.34094
 Alpha  occ. eigenvalues --   -0.33231  -0.32360  -0.32210  -0.31149  -0.26552
 Alpha  occ. eigenvalues --   -0.21609
 Alpha virt. eigenvalues --   -0.08504  -0.01639  -0.00318   0.01255   0.01364
 Alpha virt. eigenvalues --    0.03025   0.03097   0.03349   0.04582   0.05133
 Alpha virt. eigenvalues --    0.06214   0.06636   0.07182   0.07974   0.08552

 Mulliken charges:
               1
     1  Mg   0.422299
     2  C   -0.038788
     3  C   -0.053854
     4  C   -0.060420
     5  C   -0.061532
     6  N   -0.289571
     7  C    0.112267
     8  C    0.014777
     9  C    0.013609
    10  C    0.139311
    11  C   -0.056255
    12  C   -0.023501
    13  C    0.011387
    14  C    0.463134
    15  O   -0.501047
    16  O   -0.284526
    17  N   -0.343785
    18  C    0.122141
    19  C    0.032449
    20  C   -0.059284
    21  C    0.138147
    22  C   -0.039596
    23  C    0.331314
    24  O   -0.519997
    25  C   -0.021872
    26  N   -0.277975
    27  C    0.150517
    28  C    0.007595
    29  C    0.006253
    30  C    0.122506
    31  C   -0.054226
    32  C   -0.021808
    33  C   -0.055279
    34  N   -0.326493
    35  C    0.076466
    36  C    0.032374
    37  C   -0.080916
    38  C    0.118135
    39  C   -0.037179
    40  C    0.333085
    41  O   -0.521255
    42  C    0.060055
    43  C    0.493084
    44  O   -0.531759
    45  O   -0.266267
    46  C    0.066386
    47  C    0.099685
    48  C   -0.102291
    49  C   -0.001767
    50  C   -0.047667
    51  C   -0.018448
    52  C   -0.040455
    53  C   -0.047599
    54  C   -0.018199
    55  C   -0.074689
    56  C   -0.028392
    57  C   -0.038101
    58  C   -0.039953
    59  C   -0.010029
    60  C   -0.054975
    61  C   -0.038743
    62  C   -0.036868
    63  C   -0.038924
    64  C   -0.005951
    65  C   -0.057816
    66  C   -0.058206
    67  H    0.015174
    68  H    0.039698
    69  H    0.019262
    70  H    0.057443
    71  H    0.029847
    72  H    0.017992
    73  H    0.019423
    74  H    0.022290
    75  H    0.020174
    76  H    0.024993
    77  H    0.034078
    78  H    0.042285
    79  H    0.028262
    80  H    0.032639
    81  H    0.019811
    82  H    0.042458
    83  H    0.033906
    84  H    0.032004
    85  H    0.021712
    86  H    0.025833
    87  H    0.032716
    88  H    0.021229
    89  H    0.031750
    90  H    0.021310
    91  H    0.013905
    92  H    0.016424
    93  H    0.010610
    94  H    0.034648
    95  H    0.036084
    96  H    0.047329
    97  H    0.025774
    98  H    0.051625
    99  H    0.061119
   100  H    0.028448
   101  H    0.038318
   102  H    0.070564
   103  H    0.049257
   104  H    0.024219
   105  H    0.022224
   106  H    0.025654
   107  H    0.042199
   108  H    0.020013
   109  H    0.014766
   110  H    0.013676
   111  H    0.021644
   112  H    0.019903
   113  H    0.023652
   114  H    0.028939
   115  H    0.008524
   116  H    0.027438
   117  H    0.023391
   118  H    0.032306
   119  H    0.009254
   120  H    0.025589
   121  H    0.014454
   122  H    0.012056
   123  H    0.033182
   124  H    0.018687
   125  H    0.024599
   126  H    0.023089
   127  H    0.013373
   128  H    0.020358
   129  H    0.009044
   130  H    0.013008
   131  H    0.017055
   132  H    0.020630
   133  H    0.006884
   134  H    0.024224
   135  H    0.015490
   136  H    0.014183
   137  H    0.026798
   138  H    0.015709
   139  H    0.017344
   140  H    0.025330
 Sum of Mulliken charges =  -0.00000

 Dipole moment (field-independent basis, Debye):
    X=              6.3813    Y=              4.2200    Z=             -6.1251  Tot=              9.8003
 N-N= 4.325560801815D+03 E-N= 0.000000000000D+00  KE=-9.325934176722D+03
 Leave Link  601 at Wed May  4 16:19:01 2022, MaxMem=  6710886400 cpu:               1.1 elap:               0.1
 (Enter /sw/apps/gaussian-16.0/g16/l9999.exe)
 1\1\GINC-BP1-COMPUTE130\SP\RZINDO CIS\STO-3G\C55H74Mg1N4O6\OF15641\04-
 May-2022\0\\#p ZINDO=(nstates=5)\\step_1851_chromophore_9 ZINDO\\0,1\M
 g,0,36.65,1.252,30.02\C,0,34.066,2.37,32.195\C,0,38.708,1.189,32.667\C
 ,0,38.978,0.57,27.852\C,0,34.293,1.613,27.318\N,0,36.379,1.803,32.175\
 C,0,35.256,2.222,32.899\C,0,35.496,2.411,34.377\C,0,37.,2.03,34.481\C,
 0,37.44,1.614,33.034\C,0,37.908,3.131,35.025\C,0,34.572,1.504,35.27\C,
 0,33.883,2.064,36.526\C,0,34.825,2.984,37.367\O,0,34.824,4.199,37.426\

 Normal termination of Gaussian 16 at Wed May  4 16:19:01 2022.
