 Gaussian 16, Revision A.03,
 Gaussian 16:  ES64L-G16RevA.03 25-Dec-2016

 ------------------------------
 #p blyp/Def2SVP td=(nstates=5)
 ------------------------------

 --------------------------------------------------
 step_751_chromophore_25 TDDFT with blyp functional
 --------------------------------------------------
 Symbolic Z-matrix:
 Charge =  0 Multiplicity = 1

                         Standard orientation:
 ---------------------------------------------------------------------
 Center     Atomic      Atomic             Coordinates (Angstroms)
 Number     Number       Type             X           Y           Z
 ---------------------------------------------------------------------
      1         12           0        5.396606    0.446386    0.052629
      2          6           0        3.469129   -2.396852    0.276368
      3          6           0        2.664647    2.342765   -0.046493
      4          6           0        7.387349    3.091021   -0.505977
      5          6           0        8.323088   -1.628060    0.073681
      6          7           0        3.329656    0.007565    0.289659
      7          6           0        2.711740   -1.230758    0.430352
      8          6           0        1.162843   -1.113798    0.532142
      9          6           0        0.900796    0.443272    0.323325
     10          6           0        2.361725    0.952227    0.252919
     11          6           0        0.039804    0.712025   -0.934420
     12          6           0        0.579524   -1.676075    1.816324
     13          6           0       -0.492229   -2.802811    1.641605
     14          6           0       -1.950353   -2.445327    1.998312
     15          8           0       -2.608658   -2.805200    2.978239
     16          8           0       -2.431374   -1.581672    0.989123
     17          7           0        5.101373    2.395090   -0.168315
     18          6           0        3.873700    3.030296   -0.120924
     19          6           0        4.016245    4.448535   -0.271491
     20          6           0        5.439122    4.711634   -0.176813
     21          6           0        6.039920    3.399318   -0.315721
     22          6           0        2.847271    5.384381   -0.397752
     23          6           0        6.185793    6.029324   -0.112145
     24          8           0        7.390328    6.081972   -0.228206
     25          6           0        5.497705    7.369713    0.070136
     26          7           0        7.559711    0.662526   -0.541797
     27          6           0        8.127940    1.878482   -0.518064
     28          6           0        9.656067    1.855328   -0.391519
     29          6           0        9.902893    0.351494    0.007921
     30          6           0        8.513521   -0.263093   -0.198120
     31          6           0       10.438828    2.261852   -1.740697
     32          6           0       10.589767    0.051865    1.450132
     33          6           0       12.107032   -0.080209    1.332343
     34          7           0        5.833858   -1.623507    0.065703
     35          6           0        7.028198   -2.257754    0.176622
     36          6           0        6.739224   -3.692929    0.266241
     37          6           0        5.329923   -3.806707    0.217866
     38          6           0        4.863768   -2.493175    0.190056
     39          6           0        7.762755   -4.818573    0.315823
     40          6           0        4.153534   -4.707772    0.327795
     41          8           0        4.100429   -5.895224    0.528106
     42          6           0        2.871226   -3.796526    0.224210
     43          6           0        2.109704   -4.100259   -1.070564
     44          8           0        2.554026   -4.052314   -2.205935
     45          8           0        0.910935   -4.545215   -0.707774
     46          6           0        0.037742   -5.121085   -1.794963
     47          6           0       -3.784769   -1.064690    1.196117
     48          6           0       -4.389014   -0.788154   -0.239452
     49          6           0       -5.397517   -0.034586   -0.732052
     50          6           0       -6.345218    0.762387    0.146609
     51          6           0       -5.746856    0.208821   -2.199347
     52          6           0       -6.966640   -0.609043   -2.715603
     53          6           0       -7.910666    0.403902   -3.462304
     54          6           0       -9.437871    0.082724   -3.665054
     55          6           0      -10.057160    0.934933   -4.832388
     56          6           0      -10.210439    0.411781   -2.408024
     57          6           0      -11.656847   -0.216822   -2.385935
     58          6           0      -12.687730    0.660739   -1.519131
     59          6           0      -13.050709    0.132268   -0.112807
     60          6           0      -14.554567   -0.134736   -0.027379
     61          6           0      -12.632781    1.264126    0.963096
     62          6           0      -11.203460    1.180283    1.480316
     63          6           0      -11.117671    0.687769    2.924890
     64          6           0      -10.446936    1.788921    3.866741
     65          6           0       -8.906852    1.610313    4.045985
     66          6           0      -11.132546    1.746976    5.224792
     67          1           0        1.781035    2.984312   -0.055557
     68          1           0        8.114293    3.900029   -0.608326
     69          1           0        9.095004   -2.394230    0.179912
     70          1           0        0.859937   -1.716559   -0.323987
     71          1           0        0.423282    0.981953    1.142202
     72          1           0        0.562323    1.280910   -1.703441
     73          1           0       -0.882243    1.217339   -0.646310
     74          1           0       -0.249018   -0.173507   -1.501604
     75          1           0        0.217592   -0.898686    2.490091
     76          1           0        1.408378   -1.980029    2.454281
     77          1           0       -0.118129   -3.576143    2.312731
     78          1           0       -0.530398   -3.150396    0.610362
     79          1           0        3.090101    6.271700   -0.981854
     80          1           0        2.727936    5.583242    0.667485
     81          1           0        1.897710    4.969574   -0.736081
     82          1           0        6.267968    7.986914    0.534518
     83          1           0        4.617695    7.308136    0.710550
     84          1           0        5.275843    7.814563   -0.900638
     85          1           0        9.915387    2.593634    0.366998
     86          1           0       10.537730   -0.125664   -0.738035
     87          1           0       10.799031    3.282351   -1.609129
     88          1           0        9.877552    2.294087   -2.674322
     89          1           0       11.212188    1.506682   -1.890152
     90          1           0       10.153636   -0.812859    1.950986
     91          1           0       10.337584    0.857899    2.139115
     92          1           0       12.567063    0.525595    2.113520
     93          1           0       12.387025    0.167164    0.307919
     94          1           0       12.455595   -1.104384    1.459507
     95          1           0        8.770343   -4.523050    0.610413
     96          1           0        7.913029   -5.345096   -0.626019
     97          1           0        7.426402   -5.541823    1.057661
     98          1           0        2.241299   -3.996498    1.091494
     99          1           0       -0.374907   -4.268319   -2.332592
    100          1           0       -0.699634   -5.800505   -1.366387
    101          1           0        0.683184   -5.663815   -2.484698
    102          1           0       -3.694415   -0.073359    1.642178
    103          1           0       -4.495177   -1.620967    1.807252
    104          1           0       -3.706858   -1.319149   -0.903979
    105          1           0       -6.381871    1.804259   -0.170740
    106          1           0       -6.010656    0.780262    1.183435
    107          1           0       -7.291100    0.276276    0.387871
    108          1           0       -4.880361   -0.051208   -2.807885
    109          1           0       -5.960533    1.274906   -2.271644
    110          1           0       -7.432387   -1.187184   -1.916576
    111          1           0       -6.574700   -1.312268   -3.451059
    112          1           0       -7.420145    0.275268   -4.427716
    113          1           0       -7.938246    1.459562   -3.192353
    114          1           0       -9.571958   -0.929442   -4.045097
    115          1           0       -9.245271    1.540825   -5.233264
    116          1           0      -10.792040    1.688827   -4.550739
    117          1           0      -10.467338    0.337586   -5.646990
    118          1           0      -10.252725    1.487634   -2.240824
    119          1           0       -9.706924   -0.022641   -1.544435
    120          1           0      -11.632710   -1.243396   -2.022290
    121          1           0      -11.983315   -0.270573   -3.424314
    122          1           0      -13.563575    0.750052   -2.160255
    123          1           0      -12.314529    1.675446   -1.382415
    124          1           0      -12.614811   -0.839876    0.119488
    125          1           0      -15.031400    0.406409    0.789636
    126          1           0      -14.708326   -1.196535    0.168676
    127          1           0      -15.088814    0.148117   -0.934168
    128          1           0      -13.420529    1.382286    1.707583
    129          1           0      -12.716780    2.288902    0.598809
    130          1           0      -10.876249    2.203044    1.292278
    131          1           0      -10.679904    0.426496    0.893163
    132          1           0      -10.585881   -0.262934    2.950411
    133          1           0      -12.143892    0.502597    3.242354
    134          1           0      -10.599963    2.784018    3.450269
    135          1           0       -8.469989    2.526483    3.648966
    136          1           0       -8.587323    0.739207    3.473327
    137          1           0       -8.601628    1.433896    5.077584
    138          1           0      -11.495906    0.761212    5.514666
    139          1           0      -12.116521    2.205311    5.133638
    140          1           0      -10.486179    2.190913    5.982348
 ---------------------------------------------------------------------

 SCF Done:  E(RB-LYP) =  -3007.37557170     A.U. after   21 cycles

 Excitation energies and oscillator strengths:

 Excited State   1:      Singlet-A      1.7915 eV  692.09 nm  f=0.2669  <S**2>=0.000
     245 -> 248       -0.18656
     246 -> 247        0.68082
     246 <- 247       -0.13979
 This state for optimization and/or second-order correction.
 Total Energy, E(TD-HF/TD-DFT) =  -3007.30973689
 Copying the excited state density for this state as the 1-particle RhoCI density.

 Excited State   2:      Singlet-A      1.9781 eV  626.77 nm  f=0.0687  <S**2>=0.000
     244 -> 247       -0.28708
     245 -> 247        0.59780
     246 -> 248        0.20744

 Excited State   3:      Singlet-A      2.1054 eV  588.89 nm  f=0.0107  <S**2>=0.000
     243 -> 247       -0.37823
     244 -> 247        0.53455
     245 -> 247        0.21930
     246 -> 248        0.12935

 Excited State   4:      Singlet-A      2.1085 eV  588.02 nm  f=0.0091  <S**2>=0.000
     243 -> 247        0.59240
     244 -> 247        0.34886
     245 -> 247        0.12024

 Excited State   5:      Singlet-A      2.5421 eV  487.73 nm  f=0.0001  <S**2>=0.000
     241 -> 247        0.70680

 The electronic state is 1-A.
 Alpha  occ. eigenvalues --  -46.26732 -18.83247 -18.82884 -18.77840 -18.76746
 Alpha  occ. eigenvalues --  -18.75704 -18.75506 -14.03679 -14.02620 -14.00844
 Alpha  occ. eigenvalues --  -14.00294 -10.04932 -10.04220  -9.99917  -9.99665
 Alpha  occ. eigenvalues --   -9.98844  -9.98669  -9.97008  -9.96324  -9.96031
 Alpha  occ. eigenvalues --   -9.96012  -9.95849  -9.95387  -9.94982  -9.94868
 Alpha  occ. eigenvalues --   -9.94587  -9.94575  -9.94083  -9.93862  -9.93755
 Alpha  occ. eigenvalues --   -9.93732  -9.93709  -9.93659  -9.93647  -9.93306
 Alpha  occ. eigenvalues --   -9.93229  -9.93179  -9.93092  -9.92758  -9.92748
 Alpha  occ. eigenvalues --   -9.92649  -9.92503  -9.92394  -9.92389  -9.92379
 Alpha  occ. eigenvalues --   -9.92314  -9.92153  -9.92148  -9.92131  -9.92090
 Alpha  occ. eigenvalues --   -9.92060  -9.91869  -9.91789  -9.91692  -9.91434
 Alpha  occ. eigenvalues --   -9.91368  -9.91115  -9.91057  -9.91016  -9.90946
 Alpha  occ. eigenvalues --   -9.90835  -9.90832  -9.90801  -9.90539  -9.90481
 Alpha  occ. eigenvalues --   -9.90346  -2.91457  -1.71882  -1.71342  -1.71172
 Alpha  occ. eigenvalues --   -0.98971  -0.97125  -0.92399  -0.92027  -0.90150
 Alpha  occ. eigenvalues --   -0.90014  -0.86963  -0.85798  -0.85672  -0.84796
 Alpha  occ. eigenvalues --   -0.75202  -0.73388  -0.73051  -0.72585  -0.71786
 Alpha  occ. eigenvalues --   -0.71750  -0.71042  -0.70533  -0.70369  -0.70128
 Alpha  occ. eigenvalues --   -0.69176  -0.68972  -0.67867  -0.67393  -0.66890
 Alpha  occ. eigenvalues --   -0.66577  -0.65934  -0.65265  -0.64915  -0.64320
 Alpha  occ. eigenvalues --   -0.63880  -0.62763  -0.62267  -0.61735  -0.60606
 Alpha  occ. eigenvalues --   -0.60178  -0.60089  -0.59682  -0.59243  -0.58826
 Alpha  occ. eigenvalues --   -0.58183  -0.57304  -0.56703  -0.55879  -0.54238
 Alpha  occ. eigenvalues --   -0.53929  -0.53699  -0.52912  -0.52303  -0.51790
 Alpha  occ. eigenvalues --   -0.51365  -0.51099  -0.50615  -0.50316  -0.49928
 Alpha  occ. eigenvalues --   -0.49907  -0.49226  -0.49062  -0.48820  -0.46500
 Alpha  occ. eigenvalues --   -0.46399  -0.45927  -0.45083  -0.45021  -0.44615
 Alpha  occ. eigenvalues --   -0.43915  -0.43655  -0.43091  -0.42672  -0.42567
 Alpha  occ. eigenvalues --   -0.41980  -0.41666  -0.41377  -0.41099  -0.40992
 Alpha  occ. eigenvalues --   -0.40547  -0.40364  -0.40317  -0.40200  -0.39916
 Alpha  occ. eigenvalues --   -0.39837  -0.39564  -0.39392  -0.39295  -0.39146
 Alpha  occ. eigenvalues --   -0.38934  -0.38747  -0.38512  -0.38416  -0.38280
 Alpha  occ. eigenvalues --   -0.38205  -0.37916  -0.37647  -0.37403  -0.37136
 Alpha  occ. eigenvalues --   -0.36980  -0.36788  -0.36653  -0.36575  -0.36437
 Alpha  occ. eigenvalues --   -0.36175  -0.36093  -0.35916  -0.35752  -0.35656
 Alpha  occ. eigenvalues --   -0.35591  -0.35376  -0.35039  -0.34898  -0.34646
 Alpha  occ. eigenvalues --   -0.34242  -0.34111  -0.33936  -0.33904  -0.33862
 Alpha  occ. eigenvalues --   -0.33698  -0.33661  -0.33601  -0.33246  -0.33088
 Alpha  occ. eigenvalues --   -0.33079  -0.32850  -0.32789  -0.32500  -0.32369
 Alpha  occ. eigenvalues --   -0.32211  -0.31957  -0.31888  -0.31706  -0.31559
 Alpha  occ. eigenvalues --   -0.31355  -0.31227  -0.31073  -0.30959  -0.30768
 Alpha  occ. eigenvalues --   -0.30690  -0.30555  -0.30513  -0.30087  -0.30056
 Alpha  occ. eigenvalues --   -0.29830  -0.29459  -0.29356  -0.29220  -0.28836
 Alpha  occ. eigenvalues --   -0.28648  -0.28581  -0.28102  -0.27873  -0.27747
 Alpha  occ. eigenvalues --   -0.27627  -0.27457  -0.27208  -0.26731  -0.26390
 Alpha  occ. eigenvalues --   -0.26237  -0.26196  -0.26067  -0.25947  -0.25740
 Alpha  occ. eigenvalues --   -0.25531  -0.25113  -0.24157  -0.23775  -0.23609
 Alpha  occ. eigenvalues --   -0.23303  -0.22558  -0.22323  -0.21396  -0.20580
 Alpha  occ. eigenvalues --   -0.20472  -0.20165  -0.18738  -0.18668  -0.16849
 Alpha  occ. eigenvalues --   -0.15471
 Alpha virt. eigenvalues --   -0.11130  -0.06860  -0.05870  -0.04559  -0.03866
 Alpha virt. eigenvalues --   -0.02340  -0.01821  -0.01755  -0.01346   0.00163
 Alpha virt. eigenvalues --    0.01184   0.01282   0.01395   0.02251   0.02592

 Mulliken charges:
               1
     1  Mg   0.698092
     2  C   -0.034337
     3  C   -0.080341
     4  C   -0.039731
     5  C   -0.052168
     6  N   -0.231662
     7  C   -0.105604
     8  C    0.050915
     9  C    0.023199
    10  C    0.009422
    11  C    0.119328
    12  C    0.128793
    13  C    0.147501
    14  C    0.084836
    15  O   -0.179903
    16  O   -0.304893
    17  N   -0.332418
    18  C    0.176388
    19  C   -0.152716
    20  C    0.051488
    21  C    0.141375
    22  C    0.157155
    23  C   -0.097887
    24  O   -0.155627
    25  C    0.125985
    26  N   -0.173930
    27  C   -0.030205
    28  C    0.011864
    29  C    0.039687
    30  C    0.046151
    31  C    0.105968
    32  C    0.082390
    33  C    0.068793
    34  N   -0.198847
    35  C    0.043278
    36  C   -0.182268
    37  C    0.075131
    38  C    0.099136
    39  C    0.150258
    40  C   -0.052149
    41  O   -0.110096
    42  C    0.050914
    43  C    0.112372
    44  O   -0.178027
    45  O   -0.261717
    46  C    0.213459
    47  C    0.305277
    48  C   -0.135535
    49  C   -0.128952
    50  C    0.119373
    51  C    0.151058
    52  C    0.099544
    53  C    0.050186
    54  C   -0.046183
    55  C    0.093247
    56  C    0.085766
    57  C    0.066800
    58  C    0.124601
    59  C   -0.057640
    60  C    0.106178
    61  C    0.046525
    62  C    0.093227
    63  C    0.104147
    64  C   -0.097166
    65  C    0.107954
    66  C    0.101456
    67  H   -0.075609
    68  H   -0.056251
    69  H   -0.061045
    70  H   -0.008822
    71  H   -0.016662
    72  H   -0.011233
    73  H   -0.004906
    74  H   -0.009672
    75  H   -0.032666
    76  H   -0.025948
    77  H   -0.002447
    78  H    0.014364
    79  H    0.010611
    80  H    0.016579
    81  H    0.005175
    82  H   -0.002052
    83  H   -0.009586
    84  H    0.018654
    85  H   -0.012306
    86  H   -0.027137
    87  H    0.005680
    88  H   -0.002258
    89  H   -0.005706
    90  H   -0.020662
    91  H   -0.026784
    92  H   -0.001474
    93  H   -0.006533
    94  H   -0.010516
    95  H   -0.025146
    96  H    0.009471
    97  H    0.005497
    98  H   -0.010517
    99  H    0.019250
   100  H    0.034122
   101  H    0.030547
   102  H   -0.002484
   103  H    0.023010
   104  H   -0.036418
   105  H    0.001782
   106  H   -0.042516
   107  H    0.009597
   108  H   -0.035858
   109  H   -0.022459
   110  H   -0.013765
   111  H   -0.025190
   112  H   -0.029506
   113  H   -0.019977
   114  H   -0.048919
   115  H   -0.036833
   116  H   -0.017919
   117  H   -0.009743
   118  H   -0.031705
   119  H   -0.029612
   120  H   -0.029988
   121  H   -0.039258
   122  H   -0.034889
   123  H   -0.033368
   124  H   -0.032169
   125  H   -0.025294
   126  H   -0.019641
   127  H   -0.020173
   128  H   -0.046989
   129  H   -0.049739
   130  H   -0.025889
   131  H   -0.021664
   132  H   -0.032320
   133  H   -0.034412
   134  H   -0.032481
   135  H   -0.011149
   136  H   -0.019722
   137  H   -0.013716
   138  H   -0.021068
   139  H   -0.029183
   140  H   -0.011601
 Sum of Mulliken charges =  -0.00000

 Dipole moment (field-independent basis, Debye):
    X=             -2.8789    Y=              3.9404    Z=             -0.3216  Tot=              4.8907
 Quadrupole moment (field-independent basis, Debye-Ang):
   XX=           -388.9965   YY=           -425.4762   ZZ=           -413.2484
   XY=             -2.9337   XZ=             18.7735   YZ=              9.3053

 Normal termination of Gaussian 16 at Thu May  5 08:54:22 2022.
