 Gaussian 16, Revision A.03,
 Gaussian 16:  ES64L-G16RevA.03 25-Dec-2016

 -----------------------------------
 #p cam-b3lyp/Def2SVP td=(nstates=5)
 -----------------------------------

 -------------------------------------------------------
 step_751_chromophore_25 TDDFT with cam-b3lyp functional
 -------------------------------------------------------
 Symbolic Z-matrix:
 Charge =  0 Multiplicity = 1

                         Standard orientation:
 ---------------------------------------------------------------------
 Center     Atomic      Atomic             Coordinates (Angstroms)
 Number     Number       Type             X           Y           Z
 ---------------------------------------------------------------------
      1         12           0        5.396606    0.446386    0.052629
      2          6           0        3.469129   -2.396852    0.276368
      3          6           0        2.664647    2.342765   -0.046493
      4          6           0        7.387349    3.091021   -0.505977
      5          6           0        8.323088   -1.628060    0.073681
      6          7           0        3.329656    0.007565    0.289659
      7          6           0        2.711740   -1.230758    0.430352
      8          6           0        1.162843   -1.113798    0.532142
      9          6           0        0.900796    0.443272    0.323325
     10          6           0        2.361725    0.952227    0.252919
     11          6           0        0.039804    0.712025   -0.934420
     12          6           0        0.579524   -1.676075    1.816324
     13          6           0       -0.492229   -2.802811    1.641605
     14          6           0       -1.950353   -2.445327    1.998312
     15          8           0       -2.608658   -2.805200    2.978239
     16          8           0       -2.431374   -1.581672    0.989123
     17          7           0        5.101373    2.395090   -0.168315
     18          6           0        3.873700    3.030296   -0.120924
     19          6           0        4.016245    4.448535   -0.271491
     20          6           0        5.439122    4.711634   -0.176813
     21          6           0        6.039920    3.399318   -0.315721
     22          6           0        2.847271    5.384381   -0.397752
     23          6           0        6.185793    6.029324   -0.112145
     24          8           0        7.390328    6.081972   -0.228206
     25          6           0        5.497705    7.369713    0.070136
     26          7           0        7.559711    0.662526   -0.541797
     27          6           0        8.127940    1.878482   -0.518064
     28          6           0        9.656067    1.855328   -0.391519
     29          6           0        9.902893    0.351494    0.007921
     30          6           0        8.513521   -0.263093   -0.198120
     31          6           0       10.438828    2.261852   -1.740697
     32          6           0       10.589767    0.051865    1.450132
     33          6           0       12.107032   -0.080209    1.332343
     34          7           0        5.833858   -1.623507    0.065703
     35          6           0        7.028198   -2.257754    0.176622
     36          6           0        6.739224   -3.692929    0.266241
     37          6           0        5.329923   -3.806707    0.217866
     38          6           0        4.863768   -2.493175    0.190056
     39          6           0        7.762755   -4.818573    0.315823
     40          6           0        4.153534   -4.707772    0.327795
     41          8           0        4.100429   -5.895224    0.528106
     42          6           0        2.871226   -3.796526    0.224210
     43          6           0        2.109704   -4.100259   -1.070564
     44          8           0        2.554026   -4.052314   -2.205935
     45          8           0        0.910935   -4.545215   -0.707774
     46          6           0        0.037742   -5.121085   -1.794963
     47          6           0       -3.784769   -1.064690    1.196117
     48          6           0       -4.389014   -0.788154   -0.239452
     49          6           0       -5.397517   -0.034586   -0.732052
     50          6           0       -6.345218    0.762387    0.146609
     51          6           0       -5.746856    0.208821   -2.199347
     52          6           0       -6.966640   -0.609043   -2.715603
     53          6           0       -7.910666    0.403902   -3.462304
     54          6           0       -9.437871    0.082724   -3.665054
     55          6           0      -10.057160    0.934933   -4.832388
     56          6           0      -10.210439    0.411781   -2.408024
     57          6           0      -11.656847   -0.216822   -2.385935
     58          6           0      -12.687730    0.660739   -1.519131
     59          6           0      -13.050709    0.132268   -0.112807
     60          6           0      -14.554567   -0.134736   -0.027379
     61          6           0      -12.632781    1.264126    0.963096
     62          6           0      -11.203460    1.180283    1.480316
     63          6           0      -11.117671    0.687769    2.924890
     64          6           0      -10.446936    1.788921    3.866741
     65          6           0       -8.906852    1.610313    4.045985
     66          6           0      -11.132546    1.746976    5.224792
     67          1           0        1.781035    2.984312   -0.055557
     68          1           0        8.114293    3.900029   -0.608326
     69          1           0        9.095004   -2.394230    0.179912
     70          1           0        0.859937   -1.716559   -0.323987
     71          1           0        0.423282    0.981953    1.142202
     72          1           0        0.562323    1.280910   -1.703441
     73          1           0       -0.882243    1.217339   -0.646310
     74          1           0       -0.249018   -0.173507   -1.501604
     75          1           0        0.217592   -0.898686    2.490091
     76          1           0        1.408378   -1.980029    2.454281
     77          1           0       -0.118129   -3.576143    2.312731
     78          1           0       -0.530398   -3.150396    0.610362
     79          1           0        3.090101    6.271700   -0.981854
     80          1           0        2.727936    5.583242    0.667485
     81          1           0        1.897710    4.969574   -0.736081
     82          1           0        6.267968    7.986914    0.534518
     83          1           0        4.617695    7.308136    0.710550
     84          1           0        5.275843    7.814563   -0.900638
     85          1           0        9.915387    2.593634    0.366998
     86          1           0       10.537730   -0.125664   -0.738035
     87          1           0       10.799031    3.282351   -1.609129
     88          1           0        9.877552    2.294087   -2.674322
     89          1           0       11.212188    1.506682   -1.890152
     90          1           0       10.153636   -0.812859    1.950986
     91          1           0       10.337584    0.857899    2.139115
     92          1           0       12.567063    0.525595    2.113520
     93          1           0       12.387025    0.167164    0.307919
     94          1           0       12.455595   -1.104384    1.459507
     95          1           0        8.770343   -4.523050    0.610413
     96          1           0        7.913029   -5.345096   -0.626019
     97          1           0        7.426402   -5.541823    1.057661
     98          1           0        2.241299   -3.996498    1.091494
     99          1           0       -0.374907   -4.268319   -2.332592
    100          1           0       -0.699634   -5.800505   -1.366387
    101          1           0        0.683184   -5.663815   -2.484698
    102          1           0       -3.694415   -0.073359    1.642178
    103          1           0       -4.495177   -1.620967    1.807252
    104          1           0       -3.706858   -1.319149   -0.903979
    105          1           0       -6.381871    1.804259   -0.170740
    106          1           0       -6.010656    0.780262    1.183435
    107          1           0       -7.291100    0.276276    0.387871
    108          1           0       -4.880361   -0.051208   -2.807885
    109          1           0       -5.960533    1.274906   -2.271644
    110          1           0       -7.432387   -1.187184   -1.916576
    111          1           0       -6.574700   -1.312268   -3.451059
    112          1           0       -7.420145    0.275268   -4.427716
    113          1           0       -7.938246    1.459562   -3.192353
    114          1           0       -9.571958   -0.929442   -4.045097
    115          1           0       -9.245271    1.540825   -5.233264
    116          1           0      -10.792040    1.688827   -4.550739
    117          1           0      -10.467338    0.337586   -5.646990
    118          1           0      -10.252725    1.487634   -2.240824
    119          1           0       -9.706924   -0.022641   -1.544435
    120          1           0      -11.632710   -1.243396   -2.022290
    121          1           0      -11.983315   -0.270573   -3.424314
    122          1           0      -13.563575    0.750052   -2.160255
    123          1           0      -12.314529    1.675446   -1.382415
    124          1           0      -12.614811   -0.839876    0.119488
    125          1           0      -15.031400    0.406409    0.789636
    126          1           0      -14.708326   -1.196535    0.168676
    127          1           0      -15.088814    0.148117   -0.934168
    128          1           0      -13.420529    1.382286    1.707583
    129          1           0      -12.716780    2.288902    0.598809
    130          1           0      -10.876249    2.203044    1.292278
    131          1           0      -10.679904    0.426496    0.893163
    132          1           0      -10.585881   -0.262934    2.950411
    133          1           0      -12.143892    0.502597    3.242354
    134          1           0      -10.599963    2.784018    3.450269
    135          1           0       -8.469989    2.526483    3.648966
    136          1           0       -8.587323    0.739207    3.473327
    137          1           0       -8.601628    1.433896    5.077584
    138          1           0      -11.495906    0.761212    5.514666
    139          1           0      -12.116521    2.205311    5.133638
    140          1           0      -10.486179    2.190913    5.982348
 ---------------------------------------------------------------------

 SCF Done:  E(RCAM-B3LYP) =  -3007.16206316     A.U. after   18 cycles

 Excitation energies and oscillator strengths:

 Excited State   1:      Singlet-A      1.7349 eV  714.64 nm  f=0.3501  <S**2>=0.000
     245 -> 248       -0.18358
     246 -> 247        0.68332
     245 <- 248       -0.10527
 This state for optimization and/or second-order correction.
 Total Energy, E(TD-HF/TD-DFT) =  -3007.09830597
 Copying the excited state density for this state as the 1-particle RhoCI density.

 Excited State   2:      Singlet-A      2.2358 eV  554.54 nm  f=0.1014  <S**2>=0.000
     245 -> 247        0.63177
     246 -> 248        0.30138

 Excited State   3:      Singlet-A      3.4330 eV  361.15 nm  f=0.3006  <S**2>=0.000
     241 -> 247        0.27195
     243 -> 247       -0.34026
     244 -> 247        0.20384
     245 -> 247       -0.18724
     246 -> 248        0.46345

 Excited State   4:      Singlet-A      3.5347 eV  350.76 nm  f=0.2744  <S**2>=0.000
     243 -> 247       -0.20937
     244 -> 247        0.51115
     245 -> 247        0.18010
     246 -> 248       -0.36773

 Excited State   5:      Singlet-A      3.6212 eV  342.38 nm  f=0.1648  <S**2>=0.000
     239 -> 247       -0.27787
     239 -> 248        0.11920
     239 -> 249       -0.21174
     239 -> 250       -0.10224
     240 -> 247        0.25502
     240 -> 249        0.12195
     241 -> 247       -0.27752
     243 -> 247        0.14153
     244 -> 247        0.31083
     245 -> 247       -0.12148
     246 -> 248        0.16707

 The electronic state is 1-A.
 Alpha  occ. eigenvalues --  -46.88185 -19.26186 -19.25780 -19.20894 -19.19719
 Alpha  occ. eigenvalues --  -19.19057 -19.18585 -14.42706 -14.41360 -14.39388
 Alpha  occ. eigenvalues --  -14.38404 -10.40370 -10.39540 -10.35405 -10.34682
 Alpha  occ. eigenvalues --  -10.32961 -10.32760 -10.31862 -10.30687 -10.30607
 Alpha  occ. eigenvalues --  -10.30554 -10.30125 -10.30090 -10.29788 -10.28999
 Alpha  occ. eigenvalues --  -10.28681 -10.28620 -10.28046 -10.27976 -10.27880
 Alpha  occ. eigenvalues --  -10.27876 -10.27873 -10.27591 -10.27559 -10.27475
 Alpha  occ. eigenvalues --  -10.27433 -10.27388 -10.27074 -10.27034 -10.26501
 Alpha  occ. eigenvalues --  -10.26465 -10.26390 -10.26370 -10.26223 -10.26180
 Alpha  occ. eigenvalues --  -10.26103 -10.26064 -10.25904 -10.25873 -10.25843
 Alpha  occ. eigenvalues --  -10.25831 -10.25525 -10.25422 -10.25232 -10.25194
 Alpha  occ. eigenvalues --  -10.25180 -10.24812 -10.24783 -10.24695 -10.24559
 Alpha  occ. eigenvalues --  -10.24557 -10.24454 -10.24439 -10.24199 -10.24070
 Alpha  occ. eigenvalues --  -10.23948  -3.16821  -1.91722  -1.91274  -1.91139
 Alpha  occ. eigenvalues --   -1.17475  -1.15551  -1.11167  -1.10186  -1.08043
 Alpha  occ. eigenvalues --   -1.07893  -1.04408  -1.03465  -1.03316  -1.02438
 Alpha  occ. eigenvalues --   -0.92138  -0.90250  -0.89826  -0.89375  -0.88708
 Alpha  occ. eigenvalues --   -0.88489  -0.87555  -0.87169  -0.87102  -0.86611
 Alpha  occ. eigenvalues --   -0.85586  -0.85131  -0.84098  -0.83356  -0.83003
 Alpha  occ. eigenvalues --   -0.82630  -0.82003  -0.81465  -0.80726  -0.80253
 Alpha  occ. eigenvalues --   -0.79665  -0.78705  -0.77804  -0.77183  -0.75901
 Alpha  occ. eigenvalues --   -0.75525  -0.75450  -0.74930  -0.74536  -0.74059
 Alpha  occ. eigenvalues --   -0.73234  -0.72193  -0.71628  -0.70747  -0.68840
 Alpha  occ. eigenvalues --   -0.68473  -0.68272  -0.67203  -0.66684  -0.66072
 Alpha  occ. eigenvalues --   -0.65402  -0.65380  -0.64495  -0.64144  -0.63965
 Alpha  occ. eigenvalues --   -0.63907  -0.63174  -0.62999  -0.62477  -0.60319
 Alpha  occ. eigenvalues --   -0.59862  -0.59530  -0.58561  -0.58296  -0.58107
 Alpha  occ. eigenvalues --   -0.57249  -0.57069  -0.56338  -0.55839  -0.55673
 Alpha  occ. eigenvalues --   -0.55237  -0.54890  -0.54581  -0.54094  -0.53721
 Alpha  occ. eigenvalues --   -0.53459  -0.53107  -0.53032  -0.52780  -0.52744
 Alpha  occ. eigenvalues --   -0.52388  -0.52313  -0.52160  -0.51907  -0.51665
 Alpha  occ. eigenvalues --   -0.51386  -0.51136  -0.51125  -0.51098  -0.50696
 Alpha  occ. eigenvalues --   -0.50606  -0.50252  -0.49989  -0.49763  -0.49417
 Alpha  occ. eigenvalues --   -0.49326  -0.49234  -0.48996  -0.48947  -0.48698
 Alpha  occ. eigenvalues --   -0.48598  -0.48356  -0.48170  -0.47965  -0.47782
 Alpha  occ. eigenvalues --   -0.47695  -0.47588  -0.47137  -0.46734  -0.46571
 Alpha  occ. eigenvalues --   -0.46083  -0.46000  -0.45967  -0.45685  -0.45608
 Alpha  occ. eigenvalues --   -0.45555  -0.45455  -0.45376  -0.44928  -0.44768
 Alpha  occ. eigenvalues --   -0.44700  -0.44652  -0.44457  -0.44251  -0.44160
 Alpha  occ. eigenvalues --   -0.43990  -0.43469  -0.43426  -0.43391  -0.43135
 Alpha  occ. eigenvalues --   -0.42825  -0.42685  -0.42618  -0.42495  -0.42169
 Alpha  occ. eigenvalues --   -0.42033  -0.41957  -0.41848  -0.41723  -0.41423
 Alpha  occ. eigenvalues --   -0.41291  -0.40541  -0.40494  -0.40373  -0.39861
 Alpha  occ. eigenvalues --   -0.39649  -0.39593  -0.39062  -0.39015  -0.38653
 Alpha  occ. eigenvalues --   -0.38527  -0.38352  -0.38029  -0.37770  -0.37619
 Alpha  occ. eigenvalues --   -0.37540  -0.37113  -0.36895  -0.36803  -0.36572
 Alpha  occ. eigenvalues --   -0.36241  -0.35873  -0.34684  -0.34577  -0.34512
 Alpha  occ. eigenvalues --   -0.34015  -0.34012  -0.32989  -0.31575  -0.30684
 Alpha  occ. eigenvalues --   -0.30266  -0.30177  -0.29882  -0.29116  -0.23598
 Alpha  occ. eigenvalues --   -0.20761
 Alpha virt. eigenvalues --   -0.08093  -0.01597   0.00473   0.02577   0.03340
 Alpha virt. eigenvalues --    0.03911   0.05415   0.05589   0.05713   0.06626
 Alpha virt. eigenvalues --    0.07148   0.08138   0.08220   0.08622   0.09088

 Mulliken charges:
               1
     1  Mg   0.832505
     2  C   -0.059952
     3  C   -0.096680
     4  C   -0.064574
     5  C   -0.056543
     6  N   -0.301563
     7  C   -0.065369
     8  C   -0.000241
     9  C   -0.028302
    10  C    0.036280
    11  C    0.061398
    12  C    0.074018
    13  C    0.076072
    14  C    0.168921
    15  O   -0.221708
    16  O   -0.369649
    17  N   -0.424892
    18  C    0.186093
    19  C   -0.154117
    20  C   -0.017190
    21  C    0.167882
    22  C    0.095992
    23  C   -0.018219
    24  O   -0.194183
    25  C    0.047672
    26  N   -0.241991
    27  C   -0.000669
    28  C   -0.045442
    29  C   -0.019289
    30  C    0.061104
    31  C    0.053737
    32  C    0.029019
    33  C    0.007577
    34  N   -0.288875
    35  C    0.046312
    36  C   -0.190343
    37  C    0.004137
    38  C    0.129228
    39  C    0.103451
    40  C    0.044740
    41  O   -0.151231
    42  C   -0.018928
    43  C    0.199185
    44  O   -0.216339
    45  O   -0.327123
    46  C    0.173840
    47  C    0.277595
    48  C   -0.153768
    49  C   -0.156819
    50  C    0.062935
    51  C    0.094989
    52  C    0.046238
    53  C   -0.003445
    54  C   -0.103357
    55  C    0.031800
    56  C    0.037881
    57  C    0.015306
    58  C    0.072723
    59  C   -0.118463
    60  C    0.050817
    61  C   -0.003879
    62  C    0.040233
    63  C    0.048763
    64  C   -0.153446
    65  C    0.049769
    66  C    0.040552
    67  H   -0.041124
    68  H   -0.016093
    69  H   -0.025533
    70  H    0.021799
    71  H    0.018064
    72  H    0.015363
    73  H    0.019391
    74  H    0.015728
    75  H   -0.000548
    76  H    0.008886
    77  H    0.031054
    78  H    0.044038
    79  H    0.037635
    80  H    0.044089
    81  H    0.034568
    82  H    0.033162
    83  H    0.019134
    84  H    0.047302
    85  H    0.021968
    86  H    0.007054
    87  H    0.028190
    88  H    0.023507
    89  H    0.016631
    90  H    0.009879
    91  H    0.000571
    92  H    0.021714
    93  H    0.013701
    94  H    0.013129
    95  H   -0.002776
    96  H    0.033269
    97  H    0.029288
    98  H    0.031403
    99  H    0.041267
   100  H    0.057359
   101  H    0.056406
   102  H    0.022029
   103  H    0.052676
   104  H   -0.004134
   105  H    0.025127
   106  H   -0.017626
   107  H    0.030858
   108  H   -0.004905
   109  H    0.005933
   110  H    0.012786
   111  H    0.004323
   112  H   -0.000411
   113  H    0.005238
   114  H   -0.015562
   115  H   -0.009921
   116  H    0.006416
   117  H    0.014517
   118  H   -0.005478
   119  H   -0.006472
   120  H   -0.002171
   121  H   -0.010157
   122  H   -0.005332
   123  H   -0.006178
   124  H   -0.001159
   125  H   -0.001029
   126  H    0.004669
   127  H    0.003706
   128  H   -0.018686
   129  H   -0.019499
   130  H    0.001454
   131  H    0.002867
   132  H   -0.003432
   133  H   -0.005345
   134  H   -0.001605
   135  H    0.011413
   136  H    0.001324
   137  H    0.010873
   138  H    0.003206
   139  H   -0.004434
   140  H    0.012469
 Sum of Mulliken charges =  -0.00000

 Dipole moment (field-independent basis, Debye):
    X=             -3.3914    Y=              5.2600    Z=             -0.3301  Tot=              6.2672
 Quadrupole moment (field-independent basis, Debye-Ang):
   XX=           -390.0808   YY=           -420.1087   ZZ=           -413.5648
   XY=              2.7754   XZ=             19.3986   YZ=              9.7935

 Normal termination of Gaussian 16 at Thu May  5 07:52:50 2022.
