 Gaussian 16, Revision A.03,
 Gaussian 16:  ES64L-G16RevA.03 25-Dec-2016

 ---------------------------------
 #p PBE1PBE/Def2SVP td=(nstates=5)
 ---------------------------------

 -----------------------------------------------------
 step_751_chromophore_25 TDDFT with PBE1PBE functional
 -----------------------------------------------------
 Symbolic Z-matrix:
 Charge =  0 Multiplicity = 1

                         Standard orientation:
 ---------------------------------------------------------------------
 Center     Atomic      Atomic             Coordinates (Angstroms)
 Number     Number       Type             X           Y           Z
 ---------------------------------------------------------------------
      1         12           0        5.396606    0.446386    0.052629
      2          6           0        3.469129   -2.396852    0.276368
      3          6           0        2.664647    2.342765   -0.046493
      4          6           0        7.387349    3.091021   -0.505977
      5          6           0        8.323088   -1.628060    0.073681
      6          7           0        3.329656    0.007565    0.289659
      7          6           0        2.711740   -1.230758    0.430352
      8          6           0        1.162843   -1.113798    0.532142
      9          6           0        0.900796    0.443272    0.323325
     10          6           0        2.361725    0.952227    0.252919
     11          6           0        0.039804    0.712025   -0.934420
     12          6           0        0.579524   -1.676075    1.816324
     13          6           0       -0.492229   -2.802811    1.641605
     14          6           0       -1.950353   -2.445327    1.998312
     15          8           0       -2.608658   -2.805200    2.978239
     16          8           0       -2.431374   -1.581672    0.989123
     17          7           0        5.101373    2.395090   -0.168315
     18          6           0        3.873700    3.030296   -0.120924
     19          6           0        4.016245    4.448535   -0.271491
     20          6           0        5.439122    4.711634   -0.176813
     21          6           0        6.039920    3.399318   -0.315721
     22          6           0        2.847271    5.384381   -0.397752
     23          6           0        6.185793    6.029324   -0.112145
     24          8           0        7.390328    6.081972   -0.228206
     25          6           0        5.497705    7.369713    0.070136
     26          7           0        7.559711    0.662526   -0.541797
     27          6           0        8.127940    1.878482   -0.518064
     28          6           0        9.656067    1.855328   -0.391519
     29          6           0        9.902893    0.351494    0.007921
     30          6           0        8.513521   -0.263093   -0.198120
     31          6           0       10.438828    2.261852   -1.740697
     32          6           0       10.589767    0.051865    1.450132
     33          6           0       12.107032   -0.080209    1.332343
     34          7           0        5.833858   -1.623507    0.065703
     35          6           0        7.028198   -2.257754    0.176622
     36          6           0        6.739224   -3.692929    0.266241
     37          6           0        5.329923   -3.806707    0.217866
     38          6           0        4.863768   -2.493175    0.190056
     39          6           0        7.762755   -4.818573    0.315823
     40          6           0        4.153534   -4.707772    0.327795
     41          8           0        4.100429   -5.895224    0.528106
     42          6           0        2.871226   -3.796526    0.224210
     43          6           0        2.109704   -4.100259   -1.070564
     44          8           0        2.554026   -4.052314   -2.205935
     45          8           0        0.910935   -4.545215   -0.707774
     46          6           0        0.037742   -5.121085   -1.794963
     47          6           0       -3.784769   -1.064690    1.196117
     48          6           0       -4.389014   -0.788154   -0.239452
     49          6           0       -5.397517   -0.034586   -0.732052
     50          6           0       -6.345218    0.762387    0.146609
     51          6           0       -5.746856    0.208821   -2.199347
     52          6           0       -6.966640   -0.609043   -2.715603
     53          6           0       -7.910666    0.403902   -3.462304
     54          6           0       -9.437871    0.082724   -3.665054
     55          6           0      -10.057160    0.934933   -4.832388
     56          6           0      -10.210439    0.411781   -2.408024
     57          6           0      -11.656847   -0.216822   -2.385935
     58          6           0      -12.687730    0.660739   -1.519131
     59          6           0      -13.050709    0.132268   -0.112807
     60          6           0      -14.554567   -0.134736   -0.027379
     61          6           0      -12.632781    1.264126    0.963096
     62          6           0      -11.203460    1.180283    1.480316
     63          6           0      -11.117671    0.687769    2.924890
     64          6           0      -10.446936    1.788921    3.866741
     65          6           0       -8.906852    1.610313    4.045985
     66          6           0      -11.132546    1.746976    5.224792
     67          1           0        1.781035    2.984312   -0.055557
     68          1           0        8.114293    3.900029   -0.608326
     69          1           0        9.095004   -2.394230    0.179912
     70          1           0        0.859937   -1.716559   -0.323987
     71          1           0        0.423282    0.981953    1.142202
     72          1           0        0.562323    1.280910   -1.703441
     73          1           0       -0.882243    1.217339   -0.646310
     74          1           0       -0.249018   -0.173507   -1.501604
     75          1           0        0.217592   -0.898686    2.490091
     76          1           0        1.408378   -1.980029    2.454281
     77          1           0       -0.118129   -3.576143    2.312731
     78          1           0       -0.530398   -3.150396    0.610362
     79          1           0        3.090101    6.271700   -0.981854
     80          1           0        2.727936    5.583242    0.667485
     81          1           0        1.897710    4.969574   -0.736081
     82          1           0        6.267968    7.986914    0.534518
     83          1           0        4.617695    7.308136    0.710550
     84          1           0        5.275843    7.814563   -0.900638
     85          1           0        9.915387    2.593634    0.366998
     86          1           0       10.537730   -0.125664   -0.738035
     87          1           0       10.799031    3.282351   -1.609129
     88          1           0        9.877552    2.294087   -2.674322
     89          1           0       11.212188    1.506682   -1.890152
     90          1           0       10.153636   -0.812859    1.950986
     91          1           0       10.337584    0.857899    2.139115
     92          1           0       12.567063    0.525595    2.113520
     93          1           0       12.387025    0.167164    0.307919
     94          1           0       12.455595   -1.104384    1.459507
     95          1           0        8.770343   -4.523050    0.610413
     96          1           0        7.913029   -5.345096   -0.626019
     97          1           0        7.426402   -5.541823    1.057661
     98          1           0        2.241299   -3.996498    1.091494
     99          1           0       -0.374907   -4.268319   -2.332592
    100          1           0       -0.699634   -5.800505   -1.366387
    101          1           0        0.683184   -5.663815   -2.484698
    102          1           0       -3.694415   -0.073359    1.642178
    103          1           0       -4.495177   -1.620967    1.807252
    104          1           0       -3.706858   -1.319149   -0.903979
    105          1           0       -6.381871    1.804259   -0.170740
    106          1           0       -6.010656    0.780262    1.183435
    107          1           0       -7.291100    0.276276    0.387871
    108          1           0       -4.880361   -0.051208   -2.807885
    109          1           0       -5.960533    1.274906   -2.271644
    110          1           0       -7.432387   -1.187184   -1.916576
    111          1           0       -6.574700   -1.312268   -3.451059
    112          1           0       -7.420145    0.275268   -4.427716
    113          1           0       -7.938246    1.459562   -3.192353
    114          1           0       -9.571958   -0.929442   -4.045097
    115          1           0       -9.245271    1.540825   -5.233264
    116          1           0      -10.792040    1.688827   -4.550739
    117          1           0      -10.467338    0.337586   -5.646990
    118          1           0      -10.252725    1.487634   -2.240824
    119          1           0       -9.706924   -0.022641   -1.544435
    120          1           0      -11.632710   -1.243396   -2.022290
    121          1           0      -11.983315   -0.270573   -3.424314
    122          1           0      -13.563575    0.750052   -2.160255
    123          1           0      -12.314529    1.675446   -1.382415
    124          1           0      -12.614811   -0.839876    0.119488
    125          1           0      -15.031400    0.406409    0.789636
    126          1           0      -14.708326   -1.196535    0.168676
    127          1           0      -15.088814    0.148117   -0.934168
    128          1           0      -13.420529    1.382286    1.707583
    129          1           0      -12.716780    2.288902    0.598809
    130          1           0      -10.876249    2.203044    1.292278
    131          1           0      -10.679904    0.426496    0.893163
    132          1           0      -10.585881   -0.262934    2.950411
    133          1           0      -12.143892    0.502597    3.242354
    134          1           0      -10.599963    2.784018    3.450269
    135          1           0       -8.469989    2.526483    3.648966
    136          1           0       -8.587323    0.739207    3.473327
    137          1           0       -8.601628    1.433896    5.077584
    138          1           0      -11.495906    0.761212    5.514666
    139          1           0      -12.116521    2.205311    5.133638
    140          1           0      -10.486179    2.190913    5.982348
 ---------------------------------------------------------------------

 SCF Done:  E(RPBE1PBE) =  -3005.34988696     A.U. after   16 cycles

 Excitation energies and oscillator strengths:

 Excited State   1:      Singlet-A      1.8603 eV  666.48 nm  f=0.3384  <S**2>=0.000
     245 -> 248       -0.17677
     246 -> 247        0.68967
 This state for optimization and/or second-order correction.
 Total Energy, E(TD-HF/TD-DFT) =  -3005.28152313
 Copying the excited state density for this state as the 1-particle RhoCI density.

 Excited State   2:      Singlet-A      2.2338 eV  555.05 nm  f=0.1008  <S**2>=0.000
     245 -> 247        0.64453
     246 -> 248        0.27386

 Excited State   3:      Singlet-A      3.1050 eV  399.31 nm  f=0.0011  <S**2>=0.000
     243 -> 247       -0.27455
     244 -> 247        0.62662

 Excited State   4:      Singlet-A      3.1526 eV  393.27 nm  f=0.0070  <S**2>=0.000
     239 -> 247        0.13648
     240 -> 247        0.21795
     240 -> 249        0.10152
     242 -> 247        0.57052
     244 -> 247       -0.13984
     246 -> 248        0.18597

 Excited State   5:      Singlet-A      3.2107 eV  386.16 nm  f=0.0616  <S**2>=0.000
     240 -> 247       -0.28345
     242 -> 247        0.17316
     243 -> 247        0.48326
     244 -> 247        0.25452
     246 -> 248        0.22382

 The electronic state is 1-A.
 Alpha  occ. eigenvalues --  -46.91606 -19.26889 -19.26513 -19.21205 -19.20016
 Alpha  occ. eigenvalues --  -19.19052 -19.19016 -14.42164 -14.40890 -14.38974
 Alpha  occ. eigenvalues --  -14.38184 -10.37468 -10.36610 -10.32323 -10.32048
 Alpha  occ. eigenvalues --  -10.30211 -10.30198 -10.29379 -10.28519 -10.28222
 Alpha  occ. eigenvalues --  -10.28050 -10.28022 -10.27484 -10.27077 -10.26774
 Alpha  occ. eigenvalues --  -10.26733 -10.26473 -10.25858 -10.25626 -10.25513
 Alpha  occ. eigenvalues --  -10.25435 -10.25361 -10.25321 -10.25257 -10.25256
 Alpha  occ. eigenvalues --  -10.25173 -10.25140 -10.25132 -10.24609 -10.24313
 Alpha  occ. eigenvalues --  -10.24091 -10.24033 -10.23785 -10.23633 -10.23617
 Alpha  occ. eigenvalues --  -10.23591 -10.23582 -10.23564 -10.23504 -10.23490
 Alpha  occ. eigenvalues --  -10.23229 -10.23123 -10.23049 -10.22896 -10.22730
 Alpha  occ. eigenvalues --  -10.22671 -10.22374 -10.22363 -10.22235 -10.22232
 Alpha  occ. eigenvalues --  -10.22172 -10.21958 -10.21936 -10.21876 -10.21446
 Alpha  occ. eigenvalues --  -10.21343  -3.13819  -1.86661  -1.86191  -1.86061
 Alpha  occ. eigenvalues --   -1.12315  -1.10376  -1.05701  -1.05149  -1.02918
 Alpha  occ. eigenvalues --   -1.02791  -0.99242  -0.98083  -0.97921  -0.97011
 Alpha  occ. eigenvalues --   -0.86615  -0.84374  -0.84042  -0.83461  -0.82826
 Alpha  occ. eigenvalues --   -0.82593  -0.81841  -0.81343  -0.81205  -0.80932
 Alpha  occ. eigenvalues --   -0.79885  -0.79614  -0.78281  -0.77694  -0.77230
 Alpha  occ. eigenvalues --   -0.76829  -0.76188  -0.75592  -0.75016  -0.74517
 Alpha  occ. eigenvalues --   -0.73833  -0.72859  -0.72122  -0.71580  -0.70319
 Alpha  occ. eigenvalues --   -0.69665  -0.69532  -0.69264  -0.68674  -0.68224
 Alpha  occ. eigenvalues --   -0.67564  -0.66673  -0.66006  -0.65094  -0.63166
 Alpha  occ. eigenvalues --   -0.62775  -0.62607  -0.61796  -0.60897  -0.60489
 Alpha  occ. eigenvalues --   -0.59840  -0.59558  -0.59101  -0.58714  -0.58458
 Alpha  occ. eigenvalues --   -0.58097  -0.57316  -0.57159  -0.57145  -0.54726
 Alpha  occ. eigenvalues --   -0.54282  -0.54060  -0.53181  -0.52980  -0.52652
 Alpha  occ. eigenvalues --   -0.51846  -0.51519  -0.50879  -0.50234  -0.50080
 Alpha  occ. eigenvalues --   -0.49809  -0.49586  -0.49235  -0.48602  -0.48172
 Alpha  occ. eigenvalues --   -0.47813  -0.47720  -0.47539  -0.47201  -0.47143
 Alpha  occ. eigenvalues --   -0.46903  -0.46844  -0.46712  -0.46529  -0.46250
 Alpha  occ. eigenvalues --   -0.45896  -0.45748  -0.45585  -0.45552  -0.45266
 Alpha  occ. eigenvalues --   -0.45224  -0.44889  -0.44572  -0.44302  -0.43961
 Alpha  occ. eigenvalues --   -0.43834  -0.43819  -0.43654  -0.43479  -0.43334
 Alpha  occ. eigenvalues --   -0.43214  -0.43018  -0.42804  -0.42649  -0.42488
 Alpha  occ. eigenvalues --   -0.42285  -0.42170  -0.41750  -0.41411  -0.41231
 Alpha  occ. eigenvalues --   -0.40765  -0.40734  -0.40602  -0.40514  -0.40343
 Alpha  occ. eigenvalues --   -0.40232  -0.40139  -0.39946  -0.39686  -0.39524
 Alpha  occ. eigenvalues --   -0.39378  -0.39322  -0.39208  -0.39027  -0.38966
 Alpha  occ. eigenvalues --   -0.38796  -0.38337  -0.38271  -0.38126  -0.38030
 Alpha  occ. eigenvalues --   -0.37664  -0.37455  -0.37384  -0.37293  -0.36977
 Alpha  occ. eigenvalues --   -0.36848  -0.36789  -0.36622  -0.36551  -0.36302
 Alpha  occ. eigenvalues --   -0.36008  -0.35489  -0.35456  -0.35147  -0.34645
 Alpha  occ. eigenvalues --   -0.34622  -0.34381  -0.33993  -0.33799  -0.33509
 Alpha  occ. eigenvalues --   -0.33475  -0.33101  -0.32874  -0.32659  -0.32591
 Alpha  occ. eigenvalues --   -0.32543  -0.31930  -0.31848  -0.31696  -0.31396
 Alpha  occ. eigenvalues --   -0.31326  -0.30810  -0.29608  -0.29552  -0.29514
 Alpha  occ. eigenvalues --   -0.29172  -0.28972  -0.28579  -0.26586  -0.25903
 Alpha  occ. eigenvalues --   -0.25460  -0.25444  -0.25308  -0.24934  -0.20515
 Alpha  occ. eigenvalues --   -0.18374
 Alpha virt. eigenvalues --   -0.10631  -0.05135  -0.03639  -0.01926  -0.00707
 Alpha virt. eigenvalues --    0.00577   0.00853   0.01190   0.01289   0.03084
 Alpha virt. eigenvalues --    0.03957   0.04087   0.04432   0.05043   0.05428

 Mulliken charges:
               1
     1  Mg   0.986018
     2  C   -0.068573
     3  C   -0.088258
     4  C   -0.055382
     5  C   -0.048935
     6  N   -0.407862
     7  C    0.017876
     8  C   -0.083219
     9  C   -0.102660
    10  C    0.077272
    11  C    0.008492
    12  C    0.034096
    13  C   -0.009005
    14  C    0.234620
    15  O   -0.255665
    16  O   -0.396707
    17  N   -0.542141
    18  C    0.201019
    19  C   -0.185459
    20  C   -0.060984
    21  C    0.187473
    22  C    0.034886
    23  C    0.033110
    24  O   -0.231924
    25  C   -0.024191
    26  N   -0.339060
    27  C    0.034673
    28  C   -0.119905
    29  C   -0.095391
    30  C    0.095503
    31  C   -0.000495
    32  C   -0.028065
    33  C   -0.066338
    34  N   -0.425066
    35  C    0.078623
    36  C   -0.217497
    37  C   -0.034643
    38  C    0.176219
    39  C    0.052360
    40  C    0.142886
    41  O   -0.196110
    42  C   -0.126873
    43  C    0.289147
    44  O   -0.252356
    45  O   -0.359509
    46  C    0.117043
    47  C    0.238945
    48  C   -0.160489
    49  C   -0.210556
    50  C    0.006425
    51  C    0.030294
    52  C   -0.011898
    53  C   -0.061485
    54  C   -0.191642
    55  C   -0.025219
    56  C   -0.018549
    57  C   -0.046551
    58  C    0.025085
    59  C   -0.209555
    60  C   -0.003348
    61  C   -0.054178
    62  C   -0.023908
    63  C   -0.006242
    64  C   -0.244192
    65  C   -0.009338
    66  C   -0.022636
    67  H   -0.008308
    68  H    0.017369
    69  H    0.007336
    70  H    0.064002
    71  H    0.052956
    72  H    0.042556
    73  H    0.045923
    74  H    0.041159
    75  H    0.031689
    76  H    0.040566
    77  H    0.063114
    78  H    0.079603
    79  H    0.064499
    80  H    0.071945
    81  H    0.059236
    82  H    0.059420
    83  H    0.045399
    84  H    0.072953
    85  H    0.057547
    86  H    0.044686
    87  H    0.054712
    88  H    0.050235
    89  H    0.042708
    90  H    0.041704
    91  H    0.034178
    92  H    0.049390
    93  H    0.041889
    94  H    0.040942
    95  H    0.024777
    96  H    0.062010
    97  H    0.058000
    98  H    0.071738
    99  H    0.062920
   100  H    0.078259
   101  H    0.077185
   102  H    0.049681
   103  H    0.077808
   104  H    0.026270
   105  H    0.051015
   106  H    0.010921
   107  H    0.057822
   108  H    0.027633
   109  H    0.038410
   110  H    0.043769
   111  H    0.037374
   112  H    0.033870
   113  H    0.035751
   114  H    0.021828
   115  H    0.018392
   116  H    0.033746
   117  H    0.041553
   118  H    0.025690
   119  H    0.030395
   120  H    0.029930
   121  H    0.023469
   122  H    0.026236
   123  H    0.025238
   124  H    0.034843
   125  H    0.025738
   126  H    0.032027
   127  H    0.030114
   128  H    0.011515
   129  H    0.012318
   130  H    0.032024
   131  H    0.039230
   132  H    0.027745
   133  H    0.027466
   134  H    0.035538
   135  H    0.038354
   136  H    0.029100
   137  H    0.037278
   138  H    0.031182
   139  H    0.024517
   140  H    0.039908
 Sum of Mulliken charges =  -0.00000

 Dipole moment (field-independent basis, Debye):
    X=             -3.1909    Y=              4.6817    Z=             -0.2955  Tot=              5.6734
 Quadrupole moment (field-independent basis, Debye-Ang):
   XX=           -382.0498   YY=           -418.2392   ZZ=           -410.9745
   XY=             -1.0919   XZ=             19.8383   YZ=              9.6478

 Normal termination of Gaussian 16 at Thu May  5 08:14:31 2022.
