 Gaussian 16, Revision A.03,
 Gaussian 16:  ES64L-G16RevA.03 25-Dec-2016

 --------------------------------
 #p wB97XD/Def2SVP td=(nstates=5)
 --------------------------------

 ----------------------------------------------------
 step_751_chromophore_25 TDDFT with wB97XD functional
 ----------------------------------------------------
 Symbolic Z-matrix:
 Charge =  0 Multiplicity = 1

                         Standard orientation:
 ---------------------------------------------------------------------
 Center     Atomic      Atomic             Coordinates (Angstroms)
 Number     Number       Type             X           Y           Z
 ---------------------------------------------------------------------
      1         12           0        5.396606    0.446386    0.052629
      2          6           0        3.469129   -2.396852    0.276368
      3          6           0        2.664647    2.342765   -0.046493
      4          6           0        7.387349    3.091021   -0.505977
      5          6           0        8.323088   -1.628060    0.073681
      6          7           0        3.329656    0.007565    0.289659
      7          6           0        2.711740   -1.230758    0.430352
      8          6           0        1.162843   -1.113798    0.532142
      9          6           0        0.900796    0.443272    0.323325
     10          6           0        2.361725    0.952227    0.252919
     11          6           0        0.039804    0.712025   -0.934420
     12          6           0        0.579524   -1.676075    1.816324
     13          6           0       -0.492229   -2.802811    1.641605
     14          6           0       -1.950353   -2.445327    1.998312
     15          8           0       -2.608658   -2.805200    2.978239
     16          8           0       -2.431374   -1.581672    0.989123
     17          7           0        5.101373    2.395090   -0.168315
     18          6           0        3.873700    3.030296   -0.120924
     19          6           0        4.016245    4.448535   -0.271491
     20          6           0        5.439122    4.711634   -0.176813
     21          6           0        6.039920    3.399318   -0.315721
     22          6           0        2.847271    5.384381   -0.397752
     23          6           0        6.185793    6.029324   -0.112145
     24          8           0        7.390328    6.081972   -0.228206
     25          6           0        5.497705    7.369713    0.070136
     26          7           0        7.559711    0.662526   -0.541797
     27          6           0        8.127940    1.878482   -0.518064
     28          6           0        9.656067    1.855328   -0.391519
     29          6           0        9.902893    0.351494    0.007921
     30          6           0        8.513521   -0.263093   -0.198120
     31          6           0       10.438828    2.261852   -1.740697
     32          6           0       10.589767    0.051865    1.450132
     33          6           0       12.107032   -0.080209    1.332343
     34          7           0        5.833858   -1.623507    0.065703
     35          6           0        7.028198   -2.257754    0.176622
     36          6           0        6.739224   -3.692929    0.266241
     37          6           0        5.329923   -3.806707    0.217866
     38          6           0        4.863768   -2.493175    0.190056
     39          6           0        7.762755   -4.818573    0.315823
     40          6           0        4.153534   -4.707772    0.327795
     41          8           0        4.100429   -5.895224    0.528106
     42          6           0        2.871226   -3.796526    0.224210
     43          6           0        2.109704   -4.100259   -1.070564
     44          8           0        2.554026   -4.052314   -2.205935
     45          8           0        0.910935   -4.545215   -0.707774
     46          6           0        0.037742   -5.121085   -1.794963
     47          6           0       -3.784769   -1.064690    1.196117
     48          6           0       -4.389014   -0.788154   -0.239452
     49          6           0       -5.397517   -0.034586   -0.732052
     50          6           0       -6.345218    0.762387    0.146609
     51          6           0       -5.746856    0.208821   -2.199347
     52          6           0       -6.966640   -0.609043   -2.715603
     53          6           0       -7.910666    0.403902   -3.462304
     54          6           0       -9.437871    0.082724   -3.665054
     55          6           0      -10.057160    0.934933   -4.832388
     56          6           0      -10.210439    0.411781   -2.408024
     57          6           0      -11.656847   -0.216822   -2.385935
     58          6           0      -12.687730    0.660739   -1.519131
     59          6           0      -13.050709    0.132268   -0.112807
     60          6           0      -14.554567   -0.134736   -0.027379
     61          6           0      -12.632781    1.264126    0.963096
     62          6           0      -11.203460    1.180283    1.480316
     63          6           0      -11.117671    0.687769    2.924890
     64          6           0      -10.446936    1.788921    3.866741
     65          6           0       -8.906852    1.610313    4.045985
     66          6           0      -11.132546    1.746976    5.224792
     67          1           0        1.781035    2.984312   -0.055557
     68          1           0        8.114293    3.900029   -0.608326
     69          1           0        9.095004   -2.394230    0.179912
     70          1           0        0.859937   -1.716559   -0.323987
     71          1           0        0.423282    0.981953    1.142202
     72          1           0        0.562323    1.280910   -1.703441
     73          1           0       -0.882243    1.217339   -0.646310
     74          1           0       -0.249018   -0.173507   -1.501604
     75          1           0        0.217592   -0.898686    2.490091
     76          1           0        1.408378   -1.980029    2.454281
     77          1           0       -0.118129   -3.576143    2.312731
     78          1           0       -0.530398   -3.150396    0.610362
     79          1           0        3.090101    6.271700   -0.981854
     80          1           0        2.727936    5.583242    0.667485
     81          1           0        1.897710    4.969574   -0.736081
     82          1           0        6.267968    7.986914    0.534518
     83          1           0        4.617695    7.308136    0.710550
     84          1           0        5.275843    7.814563   -0.900638
     85          1           0        9.915387    2.593634    0.366998
     86          1           0       10.537730   -0.125664   -0.738035
     87          1           0       10.799031    3.282351   -1.609129
     88          1           0        9.877552    2.294087   -2.674322
     89          1           0       11.212188    1.506682   -1.890152
     90          1           0       10.153636   -0.812859    1.950986
     91          1           0       10.337584    0.857899    2.139115
     92          1           0       12.567063    0.525595    2.113520
     93          1           0       12.387025    0.167164    0.307919
     94          1           0       12.455595   -1.104384    1.459507
     95          1           0        8.770343   -4.523050    0.610413
     96          1           0        7.913029   -5.345096   -0.626019
     97          1           0        7.426402   -5.541823    1.057661
     98          1           0        2.241299   -3.996498    1.091494
     99          1           0       -0.374907   -4.268319   -2.332592
    100          1           0       -0.699634   -5.800505   -1.366387
    101          1           0        0.683184   -5.663815   -2.484698
    102          1           0       -3.694415   -0.073359    1.642178
    103          1           0       -4.495177   -1.620967    1.807252
    104          1           0       -3.706858   -1.319149   -0.903979
    105          1           0       -6.381871    1.804259   -0.170740
    106          1           0       -6.010656    0.780262    1.183435
    107          1           0       -7.291100    0.276276    0.387871
    108          1           0       -4.880361   -0.051208   -2.807885
    109          1           0       -5.960533    1.274906   -2.271644
    110          1           0       -7.432387   -1.187184   -1.916576
    111          1           0       -6.574700   -1.312268   -3.451059
    112          1           0       -7.420145    0.275268   -4.427716
    113          1           0       -7.938246    1.459562   -3.192353
    114          1           0       -9.571958   -0.929442   -4.045097
    115          1           0       -9.245271    1.540825   -5.233264
    116          1           0      -10.792040    1.688827   -4.550739
    117          1           0      -10.467338    0.337586   -5.646990
    118          1           0      -10.252725    1.487634   -2.240824
    119          1           0       -9.706924   -0.022641   -1.544435
    120          1           0      -11.632710   -1.243396   -2.022290
    121          1           0      -11.983315   -0.270573   -3.424314
    122          1           0      -13.563575    0.750052   -2.160255
    123          1           0      -12.314529    1.675446   -1.382415
    124          1           0      -12.614811   -0.839876    0.119488
    125          1           0      -15.031400    0.406409    0.789636
    126          1           0      -14.708326   -1.196535    0.168676
    127          1           0      -15.088814    0.148117   -0.934168
    128          1           0      -13.420529    1.382286    1.707583
    129          1           0      -12.716780    2.288902    0.598809
    130          1           0      -10.876249    2.203044    1.292278
    131          1           0      -10.679904    0.426496    0.893163
    132          1           0      -10.585881   -0.262934    2.950411
    133          1           0      -12.143892    0.502597    3.242354
    134          1           0      -10.599963    2.784018    3.450269
    135          1           0       -8.469989    2.526483    3.648966
    136          1           0       -8.587323    0.739207    3.473327
    137          1           0       -8.601628    1.433896    5.077584
    138          1           0      -11.495906    0.761212    5.514666
    139          1           0      -12.116521    2.205311    5.133638
    140          1           0      -10.486179    2.190913    5.982348
 ---------------------------------------------------------------------

 SCF Done:  E(RwB97XD) =  -3007.86008508     A.U. after   19 cycles

 Excitation energies and oscillator strengths:

 Excited State   1:      Singlet-A      1.6949 eV  731.52 nm  f=0.3490  <S**2>=0.000
     245 -> 248       -0.18782
     246 -> 247        0.68123
     245 <- 248       -0.11343
 This state for optimization and/or second-order correction.
 Total Energy, E(TD-HF/TD-DFT) =  -3007.79779950
 Copying the excited state density for this state as the 1-particle RhoCI density.

 Excited State   2:      Singlet-A      2.1825 eV  568.07 nm  f=0.0989  <S**2>=0.000
     245 -> 247        0.62985
     246 -> 248        0.30256

 Excited State   3:      Singlet-A      3.4358 eV  360.86 nm  f=0.2763  <S**2>=0.000
     241 -> 247        0.38004
     243 -> 247       -0.26795
     244 -> 247        0.17054
     245 -> 247       -0.17200
     246 -> 248        0.44683

 Excited State   4:      Singlet-A      3.5710 eV  347.20 nm  f=0.3874  <S**2>=0.000
     241 -> 247        0.17956
     243 -> 247       -0.18593
     244 -> 247        0.43374
     245 -> 247        0.20974
     246 -> 248       -0.40093

 Excited State   5:      Singlet-A      3.6399 eV  340.62 nm  f=0.0622  <S**2>=0.000
     239 -> 247       -0.29049
     239 -> 248        0.12012
     239 -> 249       -0.22995
     239 -> 250       -0.10943
     240 -> 247       -0.31491
     240 -> 249       -0.17276
     241 -> 247       -0.18162
     244 -> 247        0.34006

 The electronic state is 1-A.
 Alpha  occ. eigenvalues --  -46.94537 -19.31394 -19.31048 -19.25872 -19.24650
 Alpha  occ. eigenvalues --  -19.24130 -19.23582 -14.47335 -14.45934 -14.44057
 Alpha  occ. eigenvalues --  -14.42932 -10.44237 -10.43371 -10.39422 -10.38658
 Alpha  occ. eigenvalues --  -10.36704 -10.36677 -10.35959 -10.34755 -10.34734
 Alpha  occ. eigenvalues --  -10.34555 -10.34256 -10.34053 -10.34039 -10.33069
 Alpha  occ. eigenvalues --  -10.32691 -10.32619 -10.32103 -10.32067 -10.31973
 Alpha  occ. eigenvalues --  -10.31905 -10.31831 -10.31610 -10.31571 -10.31523
 Alpha  occ. eigenvalues --  -10.31501 -10.31294 -10.31180 -10.31080 -10.30511
 Alpha  occ. eigenvalues --  -10.30437 -10.30298 -10.30288 -10.30168 -10.30049
 Alpha  occ. eigenvalues --  -10.30018 -10.29983 -10.29895 -10.29863 -10.29780
 Alpha  occ. eigenvalues --  -10.29687 -10.29500 -10.29496 -10.29117 -10.29049
 Alpha  occ. eigenvalues --  -10.28988 -10.28736 -10.28732 -10.28625 -10.28509
 Alpha  occ. eigenvalues --  -10.28360 -10.28339 -10.28304 -10.28185 -10.27883
 Alpha  occ. eigenvalues --  -10.27768  -3.20596  -1.94191  -1.93722  -1.93584
 Alpha  occ. eigenvalues --   -1.19644  -1.17754  -1.13433  -1.12381  -1.10214
 Alpha  occ. eigenvalues --   -1.10129  -1.06388  -1.05518  -1.05322  -1.04505
 Alpha  occ. eigenvalues --   -0.94074  -0.92058  -0.91673  -0.91140  -0.90699
 Alpha  occ. eigenvalues --   -0.90276  -0.89406  -0.89154  -0.88880  -0.88523
 Alpha  occ. eigenvalues --   -0.87504  -0.87017  -0.85948  -0.85257  -0.84869
 Alpha  occ. eigenvalues --   -0.84472  -0.83926  -0.83387  -0.82658  -0.82190
 Alpha  occ. eigenvalues --   -0.81514  -0.80713  -0.79699  -0.79111  -0.77819
 Alpha  occ. eigenvalues --   -0.77363  -0.77239  -0.76867  -0.76357  -0.75898
 Alpha  occ. eigenvalues --   -0.75164  -0.74162  -0.73589  -0.72712  -0.70791
 Alpha  occ. eigenvalues --   -0.70365  -0.70208  -0.69218  -0.68553  -0.68054
 Alpha  occ. eigenvalues --   -0.67313  -0.67223  -0.66499  -0.66146  -0.65910
 Alpha  occ. eigenvalues --   -0.65776  -0.64999  -0.64819  -0.64449  -0.62383
 Alpha  occ. eigenvalues --   -0.61793  -0.61476  -0.60530  -0.60275  -0.60052
 Alpha  occ. eigenvalues --   -0.59212  -0.58998  -0.58353  -0.57684  -0.57548
 Alpha  occ. eigenvalues --   -0.57207  -0.56866  -0.56594  -0.56012  -0.55625
 Alpha  occ. eigenvalues --   -0.55433  -0.54987  -0.54957  -0.54728  -0.54632
 Alpha  occ. eigenvalues --   -0.54277  -0.54244  -0.54077  -0.53845  -0.53558
 Alpha  occ. eigenvalues --   -0.53276  -0.53113  -0.53038  -0.52948  -0.52586
 Alpha  occ. eigenvalues --   -0.52519  -0.52177  -0.51894  -0.51727  -0.51349
 Alpha  occ. eigenvalues --   -0.51288  -0.51119  -0.50937  -0.50844  -0.50615
 Alpha  occ. eigenvalues --   -0.50496  -0.50274  -0.50055  -0.49882  -0.49698
 Alpha  occ. eigenvalues --   -0.49630  -0.49486  -0.49081  -0.48625  -0.48460
 Alpha  occ. eigenvalues --   -0.48003  -0.47942  -0.47848  -0.47589  -0.47538
 Alpha  occ. eigenvalues --   -0.47451  -0.47360  -0.47211  -0.46855  -0.46708
 Alpha  occ. eigenvalues --   -0.46596  -0.46544  -0.46377  -0.46189  -0.46096
 Alpha  occ. eigenvalues --   -0.45923  -0.45395  -0.45355  -0.45281  -0.45042
 Alpha  occ. eigenvalues --   -0.44781  -0.44651  -0.44542  -0.44440  -0.44149
 Alpha  occ. eigenvalues --   -0.43917  -0.43856  -0.43712  -0.43654  -0.43308
 Alpha  occ. eigenvalues --   -0.43150  -0.42448  -0.42422  -0.42247  -0.41721
 Alpha  occ. eigenvalues --   -0.41546  -0.41443  -0.40967  -0.40879  -0.40519
 Alpha  occ. eigenvalues --   -0.40421  -0.40191  -0.39913  -0.39689  -0.39624
 Alpha  occ. eigenvalues --   -0.39455  -0.38982  -0.38868  -0.38752  -0.38428
 Alpha  occ. eigenvalues --   -0.38274  -0.37757  -0.36643  -0.36473  -0.36413
 Alpha  occ. eigenvalues --   -0.35963  -0.35854  -0.35221  -0.33631  -0.32810
 Alpha  occ. eigenvalues --   -0.32368  -0.32214  -0.32012  -0.31231  -0.25534
 Alpha  occ. eigenvalues --   -0.22585
 Alpha virt. eigenvalues --   -0.06424   0.00316   0.02531   0.04682   0.06146
 Alpha virt. eigenvalues --    0.06404   0.07676   0.07868   0.08026   0.09460
 Alpha virt. eigenvalues --    0.10588   0.10753   0.11319   0.11820   0.12110

 Mulliken charges:
               1
     1  Mg   0.975626
     2  C   -0.070548
     3  C   -0.105287
     4  C   -0.075497
     5  C   -0.063221
     6  N   -0.374393
     7  C   -0.020030
     8  C   -0.047388
     9  C   -0.079920
    10  C    0.064136
    11  C    0.017366
    12  C    0.037950
    13  C    0.013755
    14  C    0.225596
    15  O   -0.253449
    16  O   -0.396765
    17  N   -0.513208
    18  C    0.199906
    19  C   -0.169874
    20  C   -0.058347
    21  C    0.188065
    22  C    0.044902
    23  C    0.030221
    24  O   -0.225035
    25  C   -0.015463
    26  N   -0.309086
    27  C    0.025081
    28  C   -0.099387
    29  C   -0.065278
    30  C    0.081020
    31  C    0.009420
    32  C   -0.016142
    33  C   -0.048027
    34  N   -0.381258
    35  C    0.064196
    36  C   -0.214203
    37  C   -0.032965
    38  C    0.157163
    39  C    0.063945
    40  C    0.123384
    41  O   -0.189101
    42  C   -0.083711
    43  C    0.262989
    44  O   -0.246542
    45  O   -0.357020
    46  C    0.131998
    47  C    0.251528
    48  C   -0.170509
    49  C   -0.192496
    50  C    0.017182
    51  C    0.051671
    52  C   -0.001688
    53  C   -0.042452
    54  C   -0.161814
    55  C   -0.017185
    56  C    0.001916
    57  C   -0.031103
    58  C    0.039634
    59  C   -0.183111
    60  C    0.008342
    61  C   -0.035744
    62  C   -0.006424
    63  C    0.008573
    64  C   -0.215237
    65  C    0.001146
    66  C   -0.008811
    67  H   -0.016846
    68  H    0.011816
    69  H    0.000119
    70  H    0.043750
    71  H    0.044708
    72  H    0.035935
    73  H    0.041827
    74  H    0.037114
    75  H    0.024572
    76  H    0.033636
    77  H    0.059169
    78  H    0.067361
    79  H    0.061283
    80  H    0.067090
    81  H    0.057801
    82  H    0.058802
    83  H    0.041008
    84  H    0.070693
    85  H    0.048871
    86  H    0.030766
    87  H    0.049555
    88  H    0.045555
    89  H    0.036505
    90  H    0.033978
    91  H    0.025394
    92  H    0.043968
    93  H    0.032717
    94  H    0.035348
    95  H    0.017700
    96  H    0.055743
    97  H    0.051944
    98  H    0.060898
    99  H    0.059102
   100  H    0.075787
   101  H    0.073438
   102  H    0.042904
   103  H    0.074449
   104  H    0.021521
   105  H    0.046020
   106  H    0.004380
   107  H    0.052233
   108  H    0.021536
   109  H    0.027199
   110  H    0.035112
   111  H    0.031226
   112  H    0.023885
   113  H    0.024889
   114  H    0.011996
   115  H    0.012031
   116  H    0.027241
   117  H    0.037074
   118  H    0.014651
   119  H    0.015062
   120  H    0.022495
   121  H    0.013934
   122  H    0.018242
   123  H    0.013157
   124  H    0.023942
   125  H    0.019356
   126  H    0.026866
   127  H    0.023605
   128  H    0.000918
   129  H    0.003693
   130  H    0.023822
   131  H    0.025960
   132  H    0.020887
   133  H    0.016165
   134  H    0.024324
   135  H    0.032913
   136  H    0.022152
   137  H    0.031779
   138  H    0.024309
   139  H    0.017697
   140  H    0.034284
 Sum of Mulliken charges =  -0.00000

 Dipole moment (field-independent basis, Debye):
    X=             -3.4872    Y=              5.5380    Z=             -0.3410  Tot=              6.5533
 Quadrupole moment (field-independent basis, Debye-Ang):
   XX=           -385.2643   YY=           -415.6767   ZZ=           -410.7065
   XY=              3.6363   XZ=             19.7664   YZ=              9.8365

 Normal termination of Gaussian 16 at Thu May  5 08:41:19 2022.
