 Gaussian 16, Revision A.03,
 Gaussian 16:  ES64L-G16RevA.03 25-Dec-2016

 --------------------
 #p ZINDO=(nstates=5)
 --------------------

 -----------------------------
 step_751_chromophore_25 ZINDO
 -----------------------------
 Symbolic Z-matrix:
 Charge =  0 Multiplicity = 1

                         Standard orientation:
 ---------------------------------------------------------------------
 Center     Atomic      Atomic             Coordinates (Angstroms)
 Number     Number       Type             X           Y           Z
 ---------------------------------------------------------------------
      1         12           0        5.396606    0.446386    0.052629
      2          6           0        3.469129   -2.396852    0.276368
      3          6           0        2.664647    2.342765   -0.046493
      4          6           0        7.387349    3.091021   -0.505977
      5          6           0        8.323088   -1.628060    0.073681
      6          7           0        3.329656    0.007565    0.289659
      7          6           0        2.711740   -1.230758    0.430352
      8          6           0        1.162843   -1.113798    0.532142
      9          6           0        0.900796    0.443272    0.323325
     10          6           0        2.361725    0.952227    0.252919
     11          6           0        0.039804    0.712025   -0.934420
     12          6           0        0.579524   -1.676075    1.816324
     13          6           0       -0.492229   -2.802811    1.641605
     14          6           0       -1.950353   -2.445327    1.998312
     15          8           0       -2.608658   -2.805200    2.978239
     16          8           0       -2.431374   -1.581672    0.989123
     17          7           0        5.101373    2.395090   -0.168315
     18          6           0        3.873700    3.030296   -0.120924
     19          6           0        4.016245    4.448535   -0.271491
     20          6           0        5.439122    4.711634   -0.176813
     21          6           0        6.039920    3.399318   -0.315721
     22          6           0        2.847271    5.384381   -0.397752
     23          6           0        6.185793    6.029324   -0.112145
     24          8           0        7.390328    6.081972   -0.228206
     25          6           0        5.497705    7.369713    0.070136
     26          7           0        7.559711    0.662526   -0.541797
     27          6           0        8.127940    1.878482   -0.518064
     28          6           0        9.656067    1.855328   -0.391519
     29          6           0        9.902893    0.351494    0.007921
     30          6           0        8.513521   -0.263093   -0.198120
     31          6           0       10.438828    2.261852   -1.740697
     32          6           0       10.589767    0.051865    1.450132
     33          6           0       12.107032   -0.080209    1.332343
     34          7           0        5.833858   -1.623507    0.065703
     35          6           0        7.028198   -2.257754    0.176622
     36          6           0        6.739224   -3.692929    0.266241
     37          6           0        5.329923   -3.806707    0.217866
     38          6           0        4.863768   -2.493175    0.190056
     39          6           0        7.762755   -4.818573    0.315823
     40          6           0        4.153534   -4.707772    0.327795
     41          8           0        4.100429   -5.895224    0.528106
     42          6           0        2.871226   -3.796526    0.224210
     43          6           0        2.109704   -4.100259   -1.070564
     44          8           0        2.554026   -4.052314   -2.205935
     45          8           0        0.910935   -4.545215   -0.707774
     46          6           0        0.037742   -5.121085   -1.794963
     47          6           0       -3.784769   -1.064690    1.196117
     48          6           0       -4.389014   -0.788154   -0.239452
     49          6           0       -5.397517   -0.034586   -0.732052
     50          6           0       -6.345218    0.762387    0.146609
     51          6           0       -5.746856    0.208821   -2.199347
     52          6           0       -6.966640   -0.609043   -2.715603
     53          6           0       -7.910666    0.403902   -3.462304
     54          6           0       -9.437871    0.082724   -3.665054
     55          6           0      -10.057160    0.934933   -4.832388
     56          6           0      -10.210439    0.411781   -2.408024
     57          6           0      -11.656847   -0.216822   -2.385935
     58          6           0      -12.687730    0.660739   -1.519131
     59          6           0      -13.050709    0.132268   -0.112807
     60          6           0      -14.554567   -0.134736   -0.027379
     61          6           0      -12.632781    1.264126    0.963096
     62          6           0      -11.203460    1.180283    1.480316
     63          6           0      -11.117671    0.687769    2.924890
     64          6           0      -10.446936    1.788921    3.866741
     65          6           0       -8.906852    1.610313    4.045985
     66          6           0      -11.132546    1.746976    5.224792
     67          1           0        1.781035    2.984312   -0.055557
     68          1           0        8.114293    3.900029   -0.608326
     69          1           0        9.095004   -2.394230    0.179912
     70          1           0        0.859937   -1.716559   -0.323987
     71          1           0        0.423282    0.981953    1.142202
     72          1           0        0.562323    1.280910   -1.703441
     73          1           0       -0.882243    1.217339   -0.646310
     74          1           0       -0.249018   -0.173507   -1.501604
     75          1           0        0.217592   -0.898686    2.490091
     76          1           0        1.408378   -1.980029    2.454281
     77          1           0       -0.118129   -3.576143    2.312731
     78          1           0       -0.530398   -3.150396    0.610362
     79          1           0        3.090101    6.271700   -0.981854
     80          1           0        2.727936    5.583242    0.667485
     81          1           0        1.897710    4.969574   -0.736081
     82          1           0        6.267968    7.986914    0.534518
     83          1           0        4.617695    7.308136    0.710550
     84          1           0        5.275843    7.814563   -0.900638
     85          1           0        9.915387    2.593634    0.366998
     86          1           0       10.537730   -0.125664   -0.738035
     87          1           0       10.799031    3.282351   -1.609129
     88          1           0        9.877552    2.294087   -2.674322
     89          1           0       11.212188    1.506682   -1.890152
     90          1           0       10.153636   -0.812859    1.950986
     91          1           0       10.337584    0.857899    2.139115
     92          1           0       12.567063    0.525595    2.113520
     93          1           0       12.387025    0.167164    0.307919
     94          1           0       12.455595   -1.104384    1.459507
     95          1           0        8.770343   -4.523050    0.610413
     96          1           0        7.913029   -5.345096   -0.626019
     97          1           0        7.426402   -5.541823    1.057661
     98          1           0        2.241299   -3.996498    1.091494
     99          1           0       -0.374907   -4.268319   -2.332592
    100          1           0       -0.699634   -5.800505   -1.366387
    101          1           0        0.683184   -5.663815   -2.484698
    102          1           0       -3.694415   -0.073359    1.642178
    103          1           0       -4.495177   -1.620967    1.807252
    104          1           0       -3.706858   -1.319149   -0.903979
    105          1           0       -6.381871    1.804259   -0.170740
    106          1           0       -6.010656    0.780262    1.183435
    107          1           0       -7.291100    0.276276    0.387871
    108          1           0       -4.880361   -0.051208   -2.807885
    109          1           0       -5.960533    1.274906   -2.271644
    110          1           0       -7.432387   -1.187184   -1.916576
    111          1           0       -6.574700   -1.312268   -3.451059
    112          1           0       -7.420145    0.275268   -4.427716
    113          1           0       -7.938246    1.459562   -3.192353
    114          1           0       -9.571958   -0.929442   -4.045097
    115          1           0       -9.245271    1.540825   -5.233264
    116          1           0      -10.792040    1.688827   -4.550739
    117          1           0      -10.467338    0.337586   -5.646990
    118          1           0      -10.252725    1.487634   -2.240824
    119          1           0       -9.706924   -0.022641   -1.544435
    120          1           0      -11.632710   -1.243396   -2.022290
    121          1           0      -11.983315   -0.270573   -3.424314
    122          1           0      -13.563575    0.750052   -2.160255
    123          1           0      -12.314529    1.675446   -1.382415
    124          1           0      -12.614811   -0.839876    0.119488
    125          1           0      -15.031400    0.406409    0.789636
    126          1           0      -14.708326   -1.196535    0.168676
    127          1           0      -15.088814    0.148117   -0.934168
    128          1           0      -13.420529    1.382286    1.707583
    129          1           0      -12.716780    2.288902    0.598809
    130          1           0      -10.876249    2.203044    1.292278
    131          1           0      -10.679904    0.426496    0.893163
    132          1           0      -10.585881   -0.262934    2.950411
    133          1           0      -12.143892    0.502597    3.242354
    134          1           0      -10.599963    2.784018    3.450269
    135          1           0       -8.469989    2.526483    3.648966
    136          1           0       -8.587323    0.739207    3.473327
    137          1           0       -8.601628    1.433896    5.077584
    138          1           0      -11.495906    0.761212    5.514666
    139          1           0      -12.116521    2.205311    5.133638
    140          1           0      -10.486179    2.190913    5.982348
 ---------------------------------------------------------------------

 SCF Done:  E(RZINDO/S) =  -474.048233476     A.U. after   19 cycles

 Excitation energies and oscillator strengths:

 Excited State   1:      Singlet-A      1.2815 eV  967.53 nm  f=0.5164  <S**2>=0.000
     175 ->178         0.17695
     176 ->177         0.66776
 This state for optimization and/or second-order correction.
 Total Energy, E(CIS/TDA) =  -474.001140871
 Copying the excited state density for this state as the 1-particle RhoCI density.

 Excited State   2:      Singlet-A      1.9007 eV  652.32 nm  f=0.0326  <S**2>=0.000
     175 ->177         0.53623
     176 ->178        -0.43292

 Excited State   3:      Singlet-A      2.9171 eV  425.02 nm  f=0.0011  <S**2>=0.000
     168 ->177         0.29577
     168 ->179        -0.40829
     168 ->181         0.17678
     168 ->184         0.12346
     168 ->186        -0.23863
     171 ->177         0.14505
     171 ->179        -0.10470
     176 ->179        -0.12722

 Excited State   4:      Singlet-A      2.9971 eV  413.68 nm  f=1.2351  <S**2>=0.000
     171 ->177        -0.10443
     175 ->177         0.40707
     176 ->178         0.52402

 Excited State   5:      Singlet-A      3.0344 eV  408.59 nm  f=0.0738  <S**2>=0.000
     176 ->179         0.60946
     176 ->181         0.20660

 The electronic state is 1-A.
 Alpha  occ. eigenvalues --   -1.84494  -1.81695  -1.78978  -1.72873  -1.71117
 Alpha  occ. eigenvalues --   -1.69432  -1.63953  -1.61222  -1.60282  -1.58348
 Alpha  occ. eigenvalues --   -1.54389  -1.50923  -1.48069  -1.47613  -1.46249
 Alpha  occ. eigenvalues --   -1.45405  -1.43746  -1.40649  -1.37733  -1.37502
 Alpha  occ. eigenvalues --   -1.35568  -1.34082  -1.32635  -1.31398  -1.28167
 Alpha  occ. eigenvalues --   -1.27511  -1.24300  -1.21739  -1.20717  -1.17824
 Alpha  occ. eigenvalues --   -1.17182  -1.15712  -1.15196  -1.13635  -1.12388
 Alpha  occ. eigenvalues --   -1.11885  -1.11158  -1.10328  -1.05337  -1.03256
 Alpha  occ. eigenvalues --   -1.02417  -1.01973  -0.99675  -0.97441  -0.96141
 Alpha  occ. eigenvalues --   -0.95171  -0.94703  -0.93535  -0.92773  -0.92305
 Alpha  occ. eigenvalues --   -0.91736  -0.90446  -0.89510  -0.88744  -0.88224
 Alpha  occ. eigenvalues --   -0.86522  -0.85699  -0.83132  -0.81972  -0.80553
 Alpha  occ. eigenvalues --   -0.79773  -0.79188  -0.77160  -0.76625  -0.75616
 Alpha  occ. eigenvalues --   -0.74826  -0.74699  -0.74476  -0.73631  -0.73483
 Alpha  occ. eigenvalues --   -0.73007  -0.72788  -0.72306  -0.71309  -0.70517
 Alpha  occ. eigenvalues --   -0.70375  -0.69308  -0.68878  -0.68216  -0.67695
 Alpha  occ. eigenvalues --   -0.67272  -0.67073  -0.66952  -0.66284  -0.66084
 Alpha  occ. eigenvalues --   -0.65874  -0.65352  -0.64390  -0.63967  -0.63638
 Alpha  occ. eigenvalues --   -0.63341  -0.63025  -0.62590  -0.62218  -0.61599
 Alpha  occ. eigenvalues --   -0.61537  -0.61237  -0.60672  -0.60655  -0.60532
 Alpha  occ. eigenvalues --   -0.59433  -0.59036  -0.58631  -0.58473  -0.58112
 Alpha  occ. eigenvalues --   -0.57996  -0.57534  -0.57516  -0.56710  -0.56608
 Alpha  occ. eigenvalues --   -0.56352  -0.55960  -0.55650  -0.55010  -0.54849
 Alpha  occ. eigenvalues --   -0.54571  -0.54200  -0.53814  -0.53690  -0.52933
 Alpha  occ. eigenvalues --   -0.52856  -0.52670  -0.52398  -0.52250  -0.51667
 Alpha  occ. eigenvalues --   -0.51400  -0.51165  -0.50917  -0.50757  -0.50618
 Alpha  occ. eigenvalues --   -0.50313  -0.49925  -0.49538  -0.49282  -0.48832
 Alpha  occ. eigenvalues --   -0.48810  -0.48622  -0.48488  -0.47956  -0.47823
 Alpha  occ. eigenvalues --   -0.47666  -0.47226  -0.47145  -0.47014  -0.46708
 Alpha  occ. eigenvalues --   -0.46553  -0.46054  -0.45825  -0.45763  -0.45629
 Alpha  occ. eigenvalues --   -0.45412  -0.45193  -0.44900  -0.44757  -0.44051
 Alpha  occ. eigenvalues --   -0.43883  -0.43778  -0.42811  -0.42671  -0.42408
 Alpha  occ. eigenvalues --   -0.42186  -0.41833  -0.41695  -0.39662  -0.38898
 Alpha  occ. eigenvalues --   -0.38252  -0.36930  -0.36019  -0.34693  -0.34108
 Alpha  occ. eigenvalues --   -0.33601  -0.32852  -0.31955  -0.31357  -0.26406
 Alpha  occ. eigenvalues --   -0.21573
 Alpha virt. eigenvalues --   -0.08068  -0.01977  -0.00553   0.01027   0.01395
 Alpha virt. eigenvalues --    0.02864   0.03118   0.03149   0.04532   0.04675
 Alpha virt. eigenvalues --    0.06151   0.06411   0.07066   0.07510   0.07981

 Mulliken charges:
               1
     1  Mg   0.431472
     2  C   -0.023350
     3  C   -0.094019
     4  C   -0.085275
     5  C   -0.075983
     6  N   -0.261703
     7  C    0.059598
     8  C    0.007204
     9  C    0.009718
    10  C    0.151608
    11  C   -0.050050
    12  C   -0.019758
    13  C    0.005437
    14  C    0.462833
    15  O   -0.502907
    16  O   -0.274710
    17  N   -0.346273
    18  C    0.131082
    19  C    0.042768
    20  C   -0.050755
    21  C    0.167122
    22  C   -0.039494
    23  C    0.329062
    24  O   -0.513551
    25  C   -0.031018
    26  N   -0.274395
    27  C    0.180360
    28  C    0.006542
    29  C   -0.006237
    30  C    0.096715
    31  C   -0.054107
    32  C   -0.031125
    33  C   -0.057552
    34  N   -0.298047
    35  C    0.063144
    36  C    0.000185
    37  C   -0.064538
    38  C    0.106905
    39  C   -0.041954
    40  C    0.337388
    41  O   -0.513212
    42  C    0.046479
    43  C    0.493386
    44  O   -0.520153
    45  O   -0.269557
    46  C    0.070623
    47  C    0.104070
    48  C   -0.094381
    49  C   -0.006078
    50  C   -0.054121
    51  C   -0.018860
    52  C   -0.024734
    53  C   -0.046467
    54  C   -0.012083
    55  C   -0.065208
    56  C   -0.027203
    57  C   -0.047550
    58  C   -0.039398
    59  C   -0.009160
    60  C   -0.060401
    61  C   -0.046894
    62  C   -0.038548
    63  C   -0.034519
    64  C   -0.015403
    65  C   -0.059598
    66  C   -0.060341
    67  H    0.015129
    68  H    0.033033
    69  H    0.039345
    70  H    0.039358
    71  H    0.039424
    72  H    0.022705
    73  H    0.019881
    74  H    0.023715
    75  H    0.023292
    76  H    0.024757
    77  H    0.039409
    78  H    0.050451
    79  H    0.032673
    80  H    0.037952
    81  H    0.034984
    82  H    0.040347
    83  H    0.025980
    84  H    0.046190
    85  H    0.038333
    86  H    0.030872
    87  H    0.024736
    88  H    0.027936
    89  H    0.025433
    90  H    0.026646
    91  H    0.016838
    92  H    0.023235
    93  H    0.022785
    94  H    0.017975
    95  H    0.015076
    96  H    0.033125
    97  H    0.026543
    98  H    0.048778
    99  H    0.042213
   100  H    0.044089
   101  H    0.052237
   102  H    0.036483
   103  H    0.067532
   104  H    0.021541
   105  H    0.030927
   106  H    0.004531
   107  H    0.037357
   108  H    0.018203
   109  H    0.028260
   110  H    0.027505
   111  H    0.022570
   112  H    0.010311
   113  H    0.031965
   114  H    0.024133
   115  H    0.009045
   116  H    0.020252
   117  H    0.020531
   118  H    0.025109
   119  H    0.006479
   120  H    0.022882
   121  H    0.018000
   122  H    0.017160
   123  H    0.020963
   124  H    0.030686
   125  H    0.016453
   126  H    0.013293
   127  H    0.019501
   128  H    0.017875
   129  H    0.009348
   130  H    0.026125
   131  H    0.019034
   132  H    0.023096
   133  H    0.020166
   134  H    0.022988
   135  H    0.018289
   136  H    0.017511
   137  H    0.024785
   138  H    0.018363
   139  H    0.009900
   140  H    0.022341
 Sum of Mulliken charges =  -0.00000

 Dipole moment (field-independent basis, Debye):
    X=             -4.9309    Y=             10.3521    Z=              0.5710  Tot=             11.4807
 N-N= 4.327357478038D+03 E-N= 0.000000000000D+00  KE=-9.328484156447D+03
 Leave Link  601 at Thu May  5 08:54:28 2022, MaxMem=  6710886400 cpu:               0.9 elap:               0.1
 (Enter /sw/apps/gaussian-16.0/g16/l9999.exe)
 1\1\GINC-BP1-COMPUTE192\SP\RZINDO CIS\STO-3G\C55H74Mg1N4O6\OF15641\05-
 May-2022\0\\#p ZINDO=(nstates=5)\\step_751_chromophore_25 ZINDO\\0,1\M
 g,0,-2.59,34.454,27.228\C,0,-3.852,32.346,29.639\C,0,-0.998,36.227,29.
 55\C,0,-1.718,36.621,24.817\C,0,-4.387,32.577,24.755\N,0,-2.317,34.174
 ,29.318\C,0,-2.873,33.206,30.148\C,0,-2.448,33.383,31.635\C,0,-1.589,3
 4.724,31.611\C,0,-1.584,35.01,30.089\C,0,-2.226,35.824,32.494\C,0,-1.7
 18,32.187,32.22\C,0,-2.364,31.552,33.496\C,0,-1.611,31.738,34.83\O,0,-

 Normal termination of Gaussian 16 at Thu May  5 08:54:28 2022.
