 Gaussian 16, Revision A.03,
 Gaussian 16:  ES64L-G16RevA.03 25-Dec-2016

 ------------------------------
 #p blyp/Def2SVP td=(nstates=5)
 ------------------------------

 --------------------------------------------------
 step_201_chromophore_14 TDDFT with blyp functional
 --------------------------------------------------
 Symbolic Z-matrix:
 Charge =  0 Multiplicity = 1

                         Standard orientation:
 ---------------------------------------------------------------------
 Center     Atomic      Atomic             Coordinates (Angstroms)
 Number     Number       Type             X           Y           Z
 ---------------------------------------------------------------------
      1         12           0        4.826793    1.037598   -0.149144
      2          6           0        5.059780   -2.388095    0.425001
      3          6           0        3.885822    0.413451   -3.387668
      4          6           0        3.886582    4.349157   -0.384378
      5          6           0        5.549049    1.525190    3.271882
      6          7           0        4.509023   -0.761471   -1.334985
      7          6           0        4.644349   -2.032436   -0.890232
      8          6           0        4.255358   -3.082417   -1.951843
      9          6           0        4.225814   -2.210000   -3.175008
     10          6           0        4.108222   -0.745776   -2.643678
     11          6           0        5.429105   -2.308066   -4.134579
     12          6           0        2.917146   -3.811803   -1.624070
     13          6           0        1.761746   -2.941276   -1.133588
     14          6           0        0.376113   -3.640347   -1.152955
     15          8           0        0.085090   -4.798463   -1.487202
     16          8           0       -0.554531   -2.705416   -0.862340
     17          7           0        4.056866    2.179374   -1.648345
     18          6           0        3.856335    1.753652   -2.954185
     19          6           0        3.412494    2.882575   -3.820597
     20          6           0        3.567546    4.067416   -3.008932
     21          6           0        3.835755    3.551361   -1.592961
     22          6           0        3.005900    2.793820   -5.316839
     23          6           0        3.315383    5.389762   -3.586221
     24          8           0        3.037127    5.537384   -4.776639
     25          6           0        3.313283    6.609736   -2.671049
     26          7           0        4.630201    2.635458    1.285094
     27          6           0        4.222332    3.893414    0.903430
     28          6           0        4.424048    4.807814    2.063332
     29          6           0        4.983678    3.960094    3.169333
     30          6           0        5.086637    2.600197    2.559920
     31          6           0        5.332019    6.038874    1.713617
     32          6           0        4.094220    4.014584    4.440619
     33          6           0        4.813165    4.042044    5.775166
     34          7           0        5.324478   -0.135286    1.550773
     35          6           0        5.547469    0.195995    2.899910
     36          6           0        5.874478   -0.968481    3.658122
     37          6           0        5.692330   -2.058798    2.759738
     38          6           0        5.345102   -1.442456    1.469455
     39          6           0        6.171436   -0.978349    5.144533
     40          6           0        5.694354   -3.490606    2.559124
     41          8           0        5.985704   -4.406792    3.352685
     42          6           0        5.363090   -3.748021    1.030428
     43          6           0        6.393610   -4.485354    0.407549
     44          8           0        6.258571   -5.349684   -0.466347
     45          8           0        7.667949   -4.019099    0.747895
     46          6           0        8.730627   -4.536057   -0.072987
     47          6           0       -1.885622   -3.113227   -1.052948
     48          6           0       -2.729220   -1.965818   -0.598822
     49          6           0       -3.568494   -1.152746   -1.296632
     50          6           0       -3.984153   -1.459883   -2.789997
     51          6           0       -4.094222    0.132024   -0.712580
     52          6           0       -5.553725    0.289639   -0.695110
     53          6           0       -6.173848    0.487543    0.673044
     54          6           0       -7.771917    0.380488    0.738035
     55          6           0       -8.412794    1.377567    1.732452
     56          6           0       -8.150818   -1.122185    1.019158
     57          6           0       -9.257350   -1.573693   -0.011564
     58          6           0      -10.591575   -2.023428    0.681476
     59          6           0      -11.628124   -0.856251    0.982275
     60          6           0      -11.952681   -0.706482    2.483764
     61          6           0      -12.935954   -1.160679    0.128661
     62          6           0      -13.238544    0.070185   -0.764682
     63          6           0      -14.711000    0.476904   -0.839913
     64          6           0      -15.240477    1.093185    0.540618
     65          6           0      -16.238071    0.208959    1.267633
     66          6           0      -15.500181    2.580893    0.533188
     67          1           0        3.655811    0.242599   -4.441245
     68          1           0        3.803495    5.431814   -0.492433
     69          1           0        5.860172    1.727750    4.299334
     70          1           0        5.019096   -3.856154   -1.873381
     71          1           0        3.305422   -2.349203   -3.741363
     72          1           0        5.952187   -1.407678   -4.456728
     73          1           0        4.990378   -2.757722   -5.025809
     74          1           0        6.204868   -2.940658   -3.703512
     75          1           0        3.158363   -4.668492   -0.994632
     76          1           0        2.659788   -4.275278   -2.576282
     77          1           0        1.598344   -2.057399   -1.751592
     78          1           0        1.902798   -2.563767   -0.120806
     79          1           0        2.214248    3.520976   -5.492496
     80          1           0        2.559259    1.805289   -5.429506
     81          1           0        3.868184    2.942055   -5.966929
     82          1           0        4.179424    6.629757   -2.010512
     83          1           0        2.388979    6.484322   -2.106620
     84          1           0        3.232951    7.475497   -3.329415
     85          1           0        3.417612    5.212269    2.166840
     86          1           0        5.965249    4.362405    3.419173
     87          1           0        4.592202    6.821190    1.545980
     88          1           0        5.891056    5.858358    0.795478
     89          1           0        6.034268    6.243867    2.521433
     90          1           0        3.438128    3.154019    4.570124
     91          1           0        3.472117    4.908505    4.482080
     92          1           0        4.405490    4.839128    6.397982
     93          1           0        5.896116    4.146133    5.845219
     94          1           0        4.564046    3.116689    6.292831
     95          1           0        7.030089   -1.586510    5.432673
     96          1           0        5.323576   -1.296179    5.751651
     97          1           0        6.535058   -0.034186    5.550303
     98          1           0        4.490126   -4.400205    1.011708
     99          1           0        8.878993   -3.934949   -0.970153
    100          1           0        8.628963   -5.598336   -0.295771
    101          1           0        9.635098   -4.385721    0.516207
    102          1           0       -2.049694   -3.954093   -0.378297
    103          1           0       -2.145499   -3.370619   -2.079252
    104          1           0       -2.483030   -1.710561    0.431242
    105          1           0       -5.067657   -1.546865   -2.859798
    106          1           0       -3.571706   -2.420840   -3.096726
    107          1           0       -3.760331   -0.603966   -3.426920
    108          1           0       -3.606874    0.919373   -1.288001
    109          1           0       -3.718698    0.349519    0.287552
    110          1           0       -5.988227   -0.656588   -1.017226
    111          1           0       -5.804000    1.211605   -1.220466
    112          1           0       -5.749046    1.425214    1.030793
    113          1           0       -5.865404   -0.389749    1.241605
    114          1           0       -8.139308    0.737968   -0.223661
    115          1           0       -9.030164    2.095396    1.192264
    116          1           0       -7.765101    1.905791    2.431562
    117          1           0       -9.000949    0.784961    2.434202
    118          1           0       -8.491402   -1.128208    2.054743
    119          1           0       -7.333244   -1.805846    0.788606
    120          1           0       -8.899242   -2.479963   -0.498328
    121          1           0       -9.549212   -0.884052   -0.804743
    122          1           0      -10.288550   -2.543137    1.590202
    123          1           0      -11.095012   -2.832556    0.152230
    124          1           0      -11.054695   -0.032399    0.557651
    125          1           0      -11.369314    0.042596    3.018524
    126          1           0      -11.862207   -1.627404    3.059969
    127          1           0      -12.932581   -0.238946    2.577650
    128          1           0      -13.812288   -1.349076    0.748163
    129          1           0      -12.845252   -2.031971   -0.520607
    130          1           0      -12.883629   -0.161129   -1.768996
    131          1           0      -12.727047    0.941097   -0.355864
    132          1           0      -15.214536   -0.433461   -1.164493
    133          1           0      -14.880495    1.207408   -1.630718
    134          1           0      -14.374963    0.969624    1.192634
    135          1           0      -16.812470    0.854769    1.932557
    136          1           0      -15.726617   -0.582415    1.814061
    137          1           0      -16.819361   -0.304569    0.502344
    138          1           0      -14.714144    3.092199    1.089289
    139          1           0      -16.430818    2.894913    1.004067
    140          1           0      -15.627612    3.001900   -0.464761
 ---------------------------------------------------------------------

 SCF Done:  E(RB-LYP) =  -3007.39389023     A.U. after   21 cycles

 Excitation energies and oscillator strengths:

 Excited State   1:      Singlet-A      1.7516 eV  707.82 nm  f=0.0427  <S**2>=0.000
     244 -> 247        0.54518
     245 -> 247        0.34828
     246 -> 247        0.26500
 This state for optimization and/or second-order correction.
 Total Energy, E(TD-HF/TD-DFT) =  -3007.32951891
 Copying the excited state density for this state as the 1-particle RhoCI density.

 Excited State   2:      Singlet-A      1.7734 eV  699.15 nm  f=0.2497  <S**2>=0.000
     243 -> 247       -0.15517
     244 -> 247       -0.26684
     245 -> 247       -0.10206
     245 -> 248       -0.15144
     246 -> 247        0.61674
     246 <- 247       -0.14110

 Excited State   3:      Singlet-A      1.8201 eV  681.21 nm  f=0.0235  <S**2>=0.000
     243 -> 247        0.68134
     246 -> 247        0.17443

 Excited State   4:      Singlet-A      2.0495 eV  604.96 nm  f=0.0684  <S**2>=0.000
     244 -> 247       -0.33973
     245 -> 247        0.54294
     246 -> 248        0.25521

 Excited State   5:      Singlet-A      2.2102 eV  560.96 nm  f=0.0002  <S**2>=0.000
     242 -> 247        0.70707

 The electronic state is 1-A.
 Alpha  occ. eigenvalues --  -46.27557 -18.82220 -18.81638 -18.76964 -18.76894
 Alpha  occ. eigenvalues --  -18.75512 -18.75430 -14.04030 -14.03474 -14.02486
 Alpha  occ. eigenvalues --  -14.01268 -10.04220 -10.03932  -9.99714  -9.99688
 Alpha  occ. eigenvalues --   -9.97933  -9.97234  -9.97231  -9.97061  -9.97043
 Alpha  occ. eigenvalues --   -9.97029  -9.96723  -9.96447  -9.95643  -9.95246
 Alpha  occ. eigenvalues --   -9.94678  -9.94597  -9.94414  -9.94234  -9.94075
 Alpha  occ. eigenvalues --   -9.93980  -9.93960  -9.93717  -9.93618  -9.93584
 Alpha  occ. eigenvalues --   -9.93572  -9.93564  -9.93253  -9.93149  -9.92983
 Alpha  occ. eigenvalues --   -9.92951  -9.92792  -9.92718  -9.92618  -9.92614
 Alpha  occ. eigenvalues --   -9.92380  -9.92206  -9.92185  -9.92173  -9.91935
 Alpha  occ. eigenvalues --   -9.91911  -9.91876  -9.91552  -9.91470  -9.91455
 Alpha  occ. eigenvalues --   -9.91381  -9.91042  -9.90998  -9.90975  -9.90960
 Alpha  occ. eigenvalues --   -9.90931  -9.90874  -9.90731  -9.90704  -9.90528
 Alpha  occ. eigenvalues --   -9.90519  -2.92211  -1.72641  -1.72064  -1.71946
 Alpha  occ. eigenvalues --   -0.99392  -0.97433  -0.91340  -0.89799  -0.89626
 Alpha  occ. eigenvalues --   -0.89306  -0.87246  -0.86799  -0.86048  -0.84656
 Alpha  occ. eigenvalues --   -0.75811  -0.73927  -0.73213  -0.73164  -0.72822
 Alpha  occ. eigenvalues --   -0.72510  -0.71691  -0.71365  -0.70588  -0.70466
 Alpha  occ. eigenvalues --   -0.69702  -0.69514  -0.68584  -0.68421  -0.67706
 Alpha  occ. eigenvalues --   -0.66600  -0.66257  -0.65535  -0.65366  -0.64705
 Alpha  occ. eigenvalues --   -0.64221  -0.62758  -0.62507  -0.61722  -0.61177
 Alpha  occ. eigenvalues --   -0.60701  -0.60496  -0.60482  -0.59636  -0.58837
 Alpha  occ. eigenvalues --   -0.58478  -0.58084  -0.57687  -0.56020  -0.54860
 Alpha  occ. eigenvalues --   -0.54262  -0.53459  -0.53202  -0.52478  -0.51822
 Alpha  occ. eigenvalues --   -0.51505  -0.51212  -0.50788  -0.50478  -0.49792
 Alpha  occ. eigenvalues --   -0.49713  -0.49217  -0.49104  -0.48522  -0.46871
 Alpha  occ. eigenvalues --   -0.46808  -0.46486  -0.46044  -0.45319  -0.44804
 Alpha  occ. eigenvalues --   -0.44540  -0.44221  -0.43743  -0.43239  -0.42656
 Alpha  occ. eigenvalues --   -0.42463  -0.42301  -0.41814  -0.41423  -0.41382
 Alpha  occ. eigenvalues --   -0.41129  -0.40833  -0.40664  -0.40523  -0.40163
 Alpha  occ. eigenvalues --   -0.39972  -0.39914  -0.39495  -0.39467  -0.39216
 Alpha  occ. eigenvalues --   -0.39076  -0.38920  -0.38840  -0.38577  -0.38290
 Alpha  occ. eigenvalues --   -0.38166  -0.37909  -0.37670  -0.37569  -0.37402
 Alpha  occ. eigenvalues --   -0.37246  -0.36919  -0.36880  -0.36715  -0.36617
 Alpha  occ. eigenvalues --   -0.36346  -0.36162  -0.36035  -0.35791  -0.35574
 Alpha  occ. eigenvalues --   -0.35436  -0.35292  -0.35237  -0.34906  -0.34731
 Alpha  occ. eigenvalues --   -0.34663  -0.34562  -0.34344  -0.34284  -0.34222
 Alpha  occ. eigenvalues --   -0.34106  -0.33875  -0.33736  -0.33624  -0.33495
 Alpha  occ. eigenvalues --   -0.33152  -0.32893  -0.32850  -0.32466  -0.32460
 Alpha  occ. eigenvalues --   -0.32395  -0.32248  -0.32175  -0.32034  -0.31599
 Alpha  occ. eigenvalues --   -0.31410  -0.31244  -0.31172  -0.30782  -0.30743
 Alpha  occ. eigenvalues --   -0.30571  -0.30540  -0.30313  -0.29950  -0.29743
 Alpha  occ. eigenvalues --   -0.29714  -0.29449  -0.29290  -0.29107  -0.29015
 Alpha  occ. eigenvalues --   -0.28614  -0.28385  -0.28346  -0.28232  -0.27965
 Alpha  occ. eigenvalues --   -0.27537  -0.27163  -0.26797  -0.26656  -0.26605
 Alpha  occ. eigenvalues --   -0.26434  -0.25861  -0.25690  -0.25429  -0.25286
 Alpha  occ. eigenvalues --   -0.25012  -0.24821  -0.24449  -0.24323  -0.23853
 Alpha  occ. eigenvalues --   -0.23723  -0.22701  -0.22346  -0.21991  -0.21280
 Alpha  occ. eigenvalues --   -0.20970  -0.20313  -0.18789  -0.18616  -0.18027
 Alpha  occ. eigenvalues --   -0.16282
 Alpha virt. eigenvalues --   -0.12192  -0.07610  -0.06580  -0.04986  -0.03878
 Alpha virt. eigenvalues --   -0.02991  -0.02706  -0.01839  -0.01617  -0.00260
 Alpha virt. eigenvalues --    0.00907   0.01384   0.01997   0.02443   0.02722

 Mulliken charges:
               1
     1  Mg   0.701685
     2  C    0.028078
     3  C   -0.071028
     4  C   -0.059692
     5  C   -0.084073
     6  N   -0.211049
     7  C   -0.096612
     8  C    0.031003
     9  C    0.050321
    10  C    0.000449
    11  C    0.133459
    12  C    0.114300
    13  C    0.093049
    14  C    0.090174
    15  O   -0.205929
    16  O   -0.238337
    17  N   -0.316844
    18  C    0.160832
    19  C   -0.175432
    20  C    0.035291
    21  C    0.132198
    22  C    0.201698
    23  C   -0.116617
    24  O   -0.176289
    25  C    0.132865
    26  N   -0.221364
    27  C    0.019178
    28  C   -0.014691
    29  C    0.115375
    30  C    0.030743
    31  C    0.114029
    32  C    0.082031
    33  C    0.047113
    34  N   -0.234739
    35  C    0.127462
    36  C   -0.147393
    37  C    0.105533
    38  C    0.012878
    39  C    0.150566
    40  C   -0.051439
    41  O   -0.148603
    42  C    0.120874
    43  C    0.106104
    44  O   -0.197264
    45  O   -0.281234
    46  C    0.221135
    47  C    0.346143
    48  C   -0.120287
    49  C   -0.139260
    50  C    0.140509
    51  C    0.179932
    52  C    0.077732
    53  C    0.058518
    54  C   -0.090763
    55  C    0.112850
    56  C    0.133164
    57  C    0.049988
    58  C    0.063212
    59  C   -0.055904
    60  C    0.115706
    61  C    0.109358
    62  C    0.033588
    63  C    0.103144
    64  C   -0.104618
    65  C    0.115916
    66  C    0.118322
    67  H   -0.058926
    68  H   -0.078359
    69  H   -0.073767
    70  H   -0.020484
    71  H   -0.035763
    72  H   -0.003842
    73  H   -0.002151
    74  H   -0.002632
    75  H   -0.003035
    76  H   -0.017899
    77  H    0.008653
    78  H    0.011948
    79  H    0.015898
    80  H   -0.020122
    81  H    0.017919
    82  H    0.021889
    83  H    0.012421
    84  H   -0.007832
    85  H   -0.017482
    86  H   -0.029026
    87  H   -0.000669
    88  H   -0.000341
    89  H   -0.002185
    90  H   -0.013204
    91  H   -0.020262
    92  H   -0.017770
    93  H   -0.008597
    94  H   -0.013266
    95  H    0.000043
    96  H    0.016795
    97  H   -0.025588
    98  H   -0.006665
    99  H    0.001589
   100  H    0.025488
   101  H    0.002453
   102  H   -0.015584
   103  H   -0.020860
   104  H   -0.045253
   105  H   -0.006772
   106  H   -0.010290
   107  H   -0.003863
   108  H   -0.029513
   109  H   -0.048671
   110  H   -0.020981
   111  H   -0.035023
   112  H   -0.035092
   113  H   -0.034909
   114  H   -0.034678
   115  H   -0.004559
   116  H   -0.022882
   117  H   -0.029193
   118  H   -0.012503
   119  H   -0.015825
   120  H   -0.039205
   121  H   -0.017215
   122  H   -0.052651
   123  H   -0.046134
   124  H   -0.021625
   125  H   -0.024281
   126  H   -0.006407
   127  H   -0.024522
   128  H   -0.039293
   129  H   -0.030359
   130  H   -0.032412
   131  H   -0.024803
   132  H   -0.040208
   133  H   -0.041551
   134  H   -0.035638
   135  H   -0.019403
   136  H   -0.008769
   137  H   -0.019199
   138  H   -0.012380
   139  H   -0.030853
   140  H   -0.018910
 Sum of Mulliken charges =  -0.00000

 Dipole moment (field-independent basis, Debye):
    X=              0.2371    Y=              6.3600    Z=              1.0971  Tot=              6.4583
 Quadrupole moment (field-independent basis, Debye-Ang):
   XX=           -386.0593   YY=           -442.2492   ZZ=           -409.2940
   XY=             26.5880   XZ=             -1.5989   YZ=             37.4863

 Normal termination of Gaussian 16 at Wed May  4 18:01:48 2022.
