 Gaussian 16, Revision A.03,
 Gaussian 16:  ES64L-G16RevA.03 25-Dec-2016

 -----------------------------------
 #p cam-b3lyp/Def2SVP td=(nstates=5)
 -----------------------------------

 -------------------------------------------------------
 step_201_chromophore_14 TDDFT with cam-b3lyp functional
 -------------------------------------------------------
 Symbolic Z-matrix:
 Charge =  0 Multiplicity = 1

                         Standard orientation:
 ---------------------------------------------------------------------
 Center     Atomic      Atomic             Coordinates (Angstroms)
 Number     Number       Type             X           Y           Z
 ---------------------------------------------------------------------
      1         12           0        4.826793    1.037598   -0.149144
      2          6           0        5.059780   -2.388095    0.425001
      3          6           0        3.885822    0.413451   -3.387668
      4          6           0        3.886582    4.349157   -0.384378
      5          6           0        5.549049    1.525190    3.271882
      6          7           0        4.509023   -0.761471   -1.334985
      7          6           0        4.644349   -2.032436   -0.890232
      8          6           0        4.255358   -3.082417   -1.951843
      9          6           0        4.225814   -2.210000   -3.175008
     10          6           0        4.108222   -0.745776   -2.643678
     11          6           0        5.429105   -2.308066   -4.134579
     12          6           0        2.917146   -3.811803   -1.624070
     13          6           0        1.761746   -2.941276   -1.133588
     14          6           0        0.376113   -3.640347   -1.152955
     15          8           0        0.085090   -4.798463   -1.487202
     16          8           0       -0.554531   -2.705416   -0.862340
     17          7           0        4.056866    2.179374   -1.648345
     18          6           0        3.856335    1.753652   -2.954185
     19          6           0        3.412494    2.882575   -3.820597
     20          6           0        3.567546    4.067416   -3.008932
     21          6           0        3.835755    3.551361   -1.592961
     22          6           0        3.005900    2.793820   -5.316839
     23          6           0        3.315383    5.389762   -3.586221
     24          8           0        3.037127    5.537384   -4.776639
     25          6           0        3.313283    6.609736   -2.671049
     26          7           0        4.630201    2.635458    1.285094
     27          6           0        4.222332    3.893414    0.903430
     28          6           0        4.424048    4.807814    2.063332
     29          6           0        4.983678    3.960094    3.169333
     30          6           0        5.086637    2.600197    2.559920
     31          6           0        5.332019    6.038874    1.713617
     32          6           0        4.094220    4.014584    4.440619
     33          6           0        4.813165    4.042044    5.775166
     34          7           0        5.324478   -0.135286    1.550773
     35          6           0        5.547469    0.195995    2.899910
     36          6           0        5.874478   -0.968481    3.658122
     37          6           0        5.692330   -2.058798    2.759738
     38          6           0        5.345102   -1.442456    1.469455
     39          6           0        6.171436   -0.978349    5.144533
     40          6           0        5.694354   -3.490606    2.559124
     41          8           0        5.985704   -4.406792    3.352685
     42          6           0        5.363090   -3.748021    1.030428
     43          6           0        6.393610   -4.485354    0.407549
     44          8           0        6.258571   -5.349684   -0.466347
     45          8           0        7.667949   -4.019099    0.747895
     46          6           0        8.730627   -4.536057   -0.072987
     47          6           0       -1.885622   -3.113227   -1.052948
     48          6           0       -2.729220   -1.965818   -0.598822
     49          6           0       -3.568494   -1.152746   -1.296632
     50          6           0       -3.984153   -1.459883   -2.789997
     51          6           0       -4.094222    0.132024   -0.712580
     52          6           0       -5.553725    0.289639   -0.695110
     53          6           0       -6.173848    0.487543    0.673044
     54          6           0       -7.771917    0.380488    0.738035
     55          6           0       -8.412794    1.377567    1.732452
     56          6           0       -8.150818   -1.122185    1.019158
     57          6           0       -9.257350   -1.573693   -0.011564
     58          6           0      -10.591575   -2.023428    0.681476
     59          6           0      -11.628124   -0.856251    0.982275
     60          6           0      -11.952681   -0.706482    2.483764
     61          6           0      -12.935954   -1.160679    0.128661
     62          6           0      -13.238544    0.070185   -0.764682
     63          6           0      -14.711000    0.476904   -0.839913
     64          6           0      -15.240477    1.093185    0.540618
     65          6           0      -16.238071    0.208959    1.267633
     66          6           0      -15.500181    2.580893    0.533188
     67          1           0        3.655811    0.242599   -4.441245
     68          1           0        3.803495    5.431814   -0.492433
     69          1           0        5.860172    1.727750    4.299334
     70          1           0        5.019096   -3.856154   -1.873381
     71          1           0        3.305422   -2.349203   -3.741363
     72          1           0        5.952187   -1.407678   -4.456728
     73          1           0        4.990378   -2.757722   -5.025809
     74          1           0        6.204868   -2.940658   -3.703512
     75          1           0        3.158363   -4.668492   -0.994632
     76          1           0        2.659788   -4.275278   -2.576282
     77          1           0        1.598344   -2.057399   -1.751592
     78          1           0        1.902798   -2.563767   -0.120806
     79          1           0        2.214248    3.520976   -5.492496
     80          1           0        2.559259    1.805289   -5.429506
     81          1           0        3.868184    2.942055   -5.966929
     82          1           0        4.179424    6.629757   -2.010512
     83          1           0        2.388979    6.484322   -2.106620
     84          1           0        3.232951    7.475497   -3.329415
     85          1           0        3.417612    5.212269    2.166840
     86          1           0        5.965249    4.362405    3.419173
     87          1           0        4.592202    6.821190    1.545980
     88          1           0        5.891056    5.858358    0.795478
     89          1           0        6.034268    6.243867    2.521433
     90          1           0        3.438128    3.154019    4.570124
     91          1           0        3.472117    4.908505    4.482080
     92          1           0        4.405490    4.839128    6.397982
     93          1           0        5.896116    4.146133    5.845219
     94          1           0        4.564046    3.116689    6.292831
     95          1           0        7.030089   -1.586510    5.432673
     96          1           0        5.323576   -1.296179    5.751651
     97          1           0        6.535058   -0.034186    5.550303
     98          1           0        4.490126   -4.400205    1.011708
     99          1           0        8.878993   -3.934949   -0.970153
    100          1           0        8.628963   -5.598336   -0.295771
    101          1           0        9.635098   -4.385721    0.516207
    102          1           0       -2.049694   -3.954093   -0.378297
    103          1           0       -2.145499   -3.370619   -2.079252
    104          1           0       -2.483030   -1.710561    0.431242
    105          1           0       -5.067657   -1.546865   -2.859798
    106          1           0       -3.571706   -2.420840   -3.096726
    107          1           0       -3.760331   -0.603966   -3.426920
    108          1           0       -3.606874    0.919373   -1.288001
    109          1           0       -3.718698    0.349519    0.287552
    110          1           0       -5.988227   -0.656588   -1.017226
    111          1           0       -5.804000    1.211605   -1.220466
    112          1           0       -5.749046    1.425214    1.030793
    113          1           0       -5.865404   -0.389749    1.241605
    114          1           0       -8.139308    0.737968   -0.223661
    115          1           0       -9.030164    2.095396    1.192264
    116          1           0       -7.765101    1.905791    2.431562
    117          1           0       -9.000949    0.784961    2.434202
    118          1           0       -8.491402   -1.128208    2.054743
    119          1           0       -7.333244   -1.805846    0.788606
    120          1           0       -8.899242   -2.479963   -0.498328
    121          1           0       -9.549212   -0.884052   -0.804743
    122          1           0      -10.288550   -2.543137    1.590202
    123          1           0      -11.095012   -2.832556    0.152230
    124          1           0      -11.054695   -0.032399    0.557651
    125          1           0      -11.369314    0.042596    3.018524
    126          1           0      -11.862207   -1.627404    3.059969
    127          1           0      -12.932581   -0.238946    2.577650
    128          1           0      -13.812288   -1.349076    0.748163
    129          1           0      -12.845252   -2.031971   -0.520607
    130          1           0      -12.883629   -0.161129   -1.768996
    131          1           0      -12.727047    0.941097   -0.355864
    132          1           0      -15.214536   -0.433461   -1.164493
    133          1           0      -14.880495    1.207408   -1.630718
    134          1           0      -14.374963    0.969624    1.192634
    135          1           0      -16.812470    0.854769    1.932557
    136          1           0      -15.726617   -0.582415    1.814061
    137          1           0      -16.819361   -0.304569    0.502344
    138          1           0      -14.714144    3.092199    1.089289
    139          1           0      -16.430818    2.894913    1.004067
    140          1           0      -15.627612    3.001900   -0.464761
 ---------------------------------------------------------------------

 SCF Done:  E(RCAM-B3LYP) =  -3007.18948040     A.U. after   19 cycles

 Excitation energies and oscillator strengths:

 Excited State   1:      Singlet-A      1.6589 eV  747.37 nm  f=0.3843  <S**2>=0.000
     245 -> 248       -0.17145
     246 -> 247        0.68804
     245 <- 248       -0.10765
 This state for optimization and/or second-order correction.
 Total Energy, E(TD-HF/TD-DFT) =  -3007.12851584
 Copying the excited state density for this state as the 1-particle RhoCI density.

 Excited State   2:      Singlet-A      2.2666 eV  547.01 nm  f=0.0837  <S**2>=0.000
     245 -> 247        0.62396
     246 -> 248        0.31967

 Excited State   3:      Singlet-A      3.3136 eV  374.16 nm  f=0.0140  <S**2>=0.000
     242 -> 247        0.55723
     242 -> 249       -0.24355
     242 -> 250       -0.17912
     242 -> 251        0.12201
     243 -> 247        0.17570
     246 -> 248       -0.13862

 Excited State   4:      Singlet-A      3.4173 eV  362.82 nm  f=0.1262  <S**2>=0.000
     241 -> 247       -0.15595
     242 -> 247       -0.17944
     243 -> 247        0.52492
     245 -> 247        0.14742
     246 -> 248       -0.33231

 Excited State   5:      Singlet-A      3.4643 eV  357.89 nm  f=0.1379  <S**2>=0.000
     240 -> 247       -0.26596
     240 -> 248        0.11548
     240 -> 249       -0.20354
     240 -> 251       -0.11794
     241 -> 247        0.43786
     241 -> 249        0.11435
     243 -> 247       -0.11184
     245 -> 247        0.13861
     246 -> 248       -0.31174

 The electronic state is 1-A.
 Alpha  occ. eigenvalues --  -46.89161 -19.25044 -19.24492 -19.20118 -19.19784
 Alpha  occ. eigenvalues --  -19.18857 -19.18504 -14.42981 -14.42328 -14.41236
 Alpha  occ. eigenvalues --  -14.39626 -10.39473 -10.39428 -10.35065 -10.35024
 Alpha  occ. eigenvalues --  -10.32857 -10.31774 -10.31726 -10.31667 -10.31435
 Alpha  occ. eigenvalues --  -10.31172 -10.30869 -10.30608 -10.29711 -10.29639
 Alpha  occ. eigenvalues --  -10.29486 -10.28883 -10.28733 -10.28415 -10.28281
 Alpha  occ. eigenvalues --  -10.28216 -10.27946 -10.27868 -10.27845 -10.27736
 Alpha  occ. eigenvalues --  -10.27624 -10.27497 -10.27456 -10.26909 -10.26811
 Alpha  occ. eigenvalues --  -10.26685 -10.26621 -10.26423 -10.26422 -10.26412
 Alpha  occ. eigenvalues --  -10.26336 -10.26317 -10.25979 -10.25943 -10.25913
 Alpha  occ. eigenvalues --  -10.25568 -10.25514 -10.25369 -10.25176 -10.25167
 Alpha  occ. eigenvalues --  -10.25055 -10.24693 -10.24644 -10.24599 -10.24565
 Alpha  occ. eigenvalues --  -10.24560 -10.24535 -10.24333 -10.24304 -10.24212
 Alpha  occ. eigenvalues --  -10.24119  -3.17717  -1.92624  -1.92144  -1.92045
 Alpha  occ. eigenvalues --   -1.17808  -1.15941  -1.09878  -1.08042  -1.07452
 Alpha  occ. eigenvalues --   -1.07206  -1.04997  -1.04539  -1.03550  -1.02370
 Alpha  occ. eigenvalues --   -0.92945  -0.90783  -0.89954  -0.89858  -0.89558
 Alpha  occ. eigenvalues --   -0.89290  -0.88346  -0.88036  -0.87076  -0.86933
 Alpha  occ. eigenvalues --   -0.86396  -0.86095  -0.84904  -0.84601  -0.83938
 Alpha  occ. eigenvalues --   -0.82695  -0.82518  -0.81533  -0.81183  -0.80592
 Alpha  occ. eigenvalues --   -0.80019  -0.78330  -0.78055  -0.77445  -0.76574
 Alpha  occ. eigenvalues --   -0.76059  -0.75881  -0.75839  -0.74923  -0.74015
 Alpha  occ. eigenvalues --   -0.73580  -0.73120  -0.72686  -0.70866  -0.69408
 Alpha  occ. eigenvalues --   -0.68918  -0.68108  -0.67731  -0.66588  -0.65979
 Alpha  occ. eigenvalues --   -0.65538  -0.65421  -0.64953  -0.64551  -0.63803
 Alpha  occ. eigenvalues --   -0.63570  -0.63055  -0.62918  -0.62423  -0.60507
 Alpha  occ. eigenvalues --   -0.60368  -0.59987  -0.59526  -0.58833  -0.58302
 Alpha  occ. eigenvalues --   -0.57925  -0.57625  -0.57027  -0.56426  -0.55773
 Alpha  occ. eigenvalues --   -0.55694  -0.55359  -0.55000  -0.54536  -0.54295
 Alpha  occ. eigenvalues --   -0.53917  -0.53552  -0.53405  -0.53311  -0.53098
 Alpha  occ. eigenvalues --   -0.52894  -0.52376  -0.52325  -0.51901  -0.51827
 Alpha  occ. eigenvalues --   -0.51691  -0.51617  -0.51329  -0.51003  -0.50592
 Alpha  occ. eigenvalues --   -0.50541  -0.50161  -0.50079  -0.49792  -0.49644
 Alpha  occ. eigenvalues --   -0.49489  -0.49295  -0.49242  -0.49026  -0.48889
 Alpha  occ. eigenvalues --   -0.48663  -0.48538  -0.48159  -0.48034  -0.47825
 Alpha  occ. eigenvalues --   -0.47736  -0.47378  -0.47323  -0.47150  -0.46736
 Alpha  occ. eigenvalues --   -0.46551  -0.46388  -0.46348  -0.46137  -0.46033
 Alpha  occ. eigenvalues --   -0.45907  -0.45631  -0.45472  -0.45389  -0.45228
 Alpha  occ. eigenvalues --   -0.44771  -0.44626  -0.44470  -0.44385  -0.44240
 Alpha  occ. eigenvalues --   -0.43954  -0.43773  -0.43671  -0.43541  -0.43285
 Alpha  occ. eigenvalues --   -0.42939  -0.42795  -0.42552  -0.42393  -0.42223
 Alpha  occ. eigenvalues --   -0.42071  -0.41780  -0.41729  -0.41476  -0.41236
 Alpha  occ. eigenvalues --   -0.40997  -0.40891  -0.40634  -0.40202  -0.40097
 Alpha  occ. eigenvalues --   -0.39635  -0.39604  -0.39280  -0.39222  -0.38890
 Alpha  occ. eigenvalues --   -0.38388  -0.38003  -0.37900  -0.37451  -0.37401
 Alpha  occ. eigenvalues --   -0.37159  -0.36935  -0.36616  -0.36349  -0.36203
 Alpha  occ. eigenvalues --   -0.35984  -0.35664  -0.34978  -0.34896  -0.34509
 Alpha  occ. eigenvalues --   -0.34354  -0.34194  -0.33768  -0.31700  -0.31247
 Alpha  occ. eigenvalues --   -0.30847  -0.30557  -0.30159  -0.30077  -0.24999
 Alpha  occ. eigenvalues --   -0.21476
 Alpha virt. eigenvalues --   -0.09378  -0.02515  -0.00258   0.01785   0.02075
 Alpha virt. eigenvalues --    0.03920   0.05169   0.05339   0.05907   0.06020
 Alpha virt. eigenvalues --    0.07736   0.08196   0.08607   0.08726   0.09047

 Mulliken charges:
               1
     1  Mg   0.834925
     2  C   -0.002834
     3  C   -0.088429
     4  C   -0.082888
     5  C   -0.089729
     6  N   -0.281156
     7  C   -0.053462
     8  C   -0.021801
     9  C   -0.007963
    10  C    0.019891
    11  C    0.075456
    12  C    0.065869
    13  C    0.020341
    14  C    0.174515
    15  O   -0.248562
    16  O   -0.300604
    17  N   -0.404074
    18  C    0.169986
    19  C   -0.173811
    20  C   -0.038310
    21  C    0.167939
    22  C    0.147785
    23  C   -0.038727
    24  O   -0.218377
    25  C    0.050758
    26  N   -0.295734
    27  C    0.051952
    28  C   -0.073922
    29  C    0.047740
    30  C    0.052914
    31  C    0.055433
    32  C    0.027817
    33  C   -0.017166
    34  N   -0.323416
    35  C    0.125864
    36  C   -0.143728
    37  C    0.027783
    38  C    0.054000
    39  C    0.103300
    40  C    0.052463
    41  O   -0.188973
    42  C    0.033032
    43  C    0.201207
    44  O   -0.238220
    45  O   -0.343214
    46  C    0.180736
    47  C    0.304589
    48  C   -0.136952
    49  C   -0.165298
    50  C    0.084874
    51  C    0.118516
    52  C    0.019049
    53  C    0.012822
    54  C   -0.144968
    55  C    0.057481
    56  C    0.075903
    57  C   -0.004411
    58  C    0.018516
    59  C   -0.115524
    60  C    0.063016
    61  C    0.054913
    62  C   -0.015462
    63  C    0.050522
    64  C   -0.169301
    65  C    0.061989
    66  C    0.058908
    67  H   -0.021830
    68  H   -0.041803
    69  H   -0.038649
    70  H    0.019105
    71  H    0.000473
    72  H    0.022521
    73  H    0.021781
    74  H    0.021938
    75  H    0.026539
    76  H    0.014740
    77  H    0.039427
    78  H    0.043760
    79  H    0.046089
    80  H    0.005173
    81  H    0.045778
    82  H    0.045879
    83  H    0.040339
    84  H    0.029295
    85  H    0.017235
    86  H    0.006345
    87  H    0.021567
    88  H    0.024389
    89  H    0.022799
    90  H    0.017208
    91  H    0.008412
    92  H    0.007894
    93  H    0.014367
    94  H    0.009609
    95  H    0.027025
    96  H    0.041593
    97  H   -0.001053
    98  H    0.036165
    99  H    0.022288
   100  H    0.049895
   101  H    0.026220
   102  H    0.016043
   103  H    0.006842
   104  H   -0.010449
   105  H    0.017470
   106  H    0.012758
   107  H    0.020372
   108  H    0.002024
   109  H   -0.014503
   110  H    0.001629
   111  H   -0.005129
   112  H   -0.007675
   113  H   -0.007844
   114  H   -0.003313
   115  H    0.017992
   116  H    0.003375
   117  H   -0.009687
   118  H    0.014134
   119  H    0.012715
   120  H   -0.008618
   121  H    0.007565
   122  H   -0.023874
   123  H   -0.016197
   124  H    0.006694
   125  H   -0.000551
   126  H    0.017539
   127  H   -0.003958
   128  H   -0.012937
   129  H   -0.000630
   130  H   -0.003606
   131  H    0.001275
   132  H   -0.012265
   133  H   -0.011396
   134  H   -0.007405
   135  H    0.005431
   136  H    0.012019
   137  H    0.004371
   138  H    0.011582
   139  H   -0.005178
   140  H    0.005084
 Sum of Mulliken charges =  -0.00000

 Dipole moment (field-independent basis, Debye):
    X=              0.1622    Y=              7.0295    Z=              0.6543  Tot=              7.0618
 Quadrupole moment (field-independent basis, Debye-Ang):
   XX=           -386.5006   YY=           -439.6060   ZZ=           -407.1809
   XY=             28.6729   XZ=             -3.3740   YZ=             37.6678

 Normal termination of Gaussian 16 at Wed May  4 16:24:45 2022.
