 Gaussian 16, Revision A.03,
 Gaussian 16:  ES64L-G16RevA.03 25-Dec-2016

 ---------------------------------
 #p PBE1PBE/Def2SVP td=(nstates=5)
 ---------------------------------

 -----------------------------------------------------
 step_201_chromophore_14 TDDFT with PBE1PBE functional
 -----------------------------------------------------
 Symbolic Z-matrix:
 Charge =  0 Multiplicity = 1

                         Standard orientation:
 ---------------------------------------------------------------------
 Center     Atomic      Atomic             Coordinates (Angstroms)
 Number     Number       Type             X           Y           Z
 ---------------------------------------------------------------------
      1         12           0        4.826793    1.037598   -0.149144
      2          6           0        5.059780   -2.388095    0.425001
      3          6           0        3.885822    0.413451   -3.387668
      4          6           0        3.886582    4.349157   -0.384378
      5          6           0        5.549049    1.525190    3.271882
      6          7           0        4.509023   -0.761471   -1.334985
      7          6           0        4.644349   -2.032436   -0.890232
      8          6           0        4.255358   -3.082417   -1.951843
      9          6           0        4.225814   -2.210000   -3.175008
     10          6           0        4.108222   -0.745776   -2.643678
     11          6           0        5.429105   -2.308066   -4.134579
     12          6           0        2.917146   -3.811803   -1.624070
     13          6           0        1.761746   -2.941276   -1.133588
     14          6           0        0.376113   -3.640347   -1.152955
     15          8           0        0.085090   -4.798463   -1.487202
     16          8           0       -0.554531   -2.705416   -0.862340
     17          7           0        4.056866    2.179374   -1.648345
     18          6           0        3.856335    1.753652   -2.954185
     19          6           0        3.412494    2.882575   -3.820597
     20          6           0        3.567546    4.067416   -3.008932
     21          6           0        3.835755    3.551361   -1.592961
     22          6           0        3.005900    2.793820   -5.316839
     23          6           0        3.315383    5.389762   -3.586221
     24          8           0        3.037127    5.537384   -4.776639
     25          6           0        3.313283    6.609736   -2.671049
     26          7           0        4.630201    2.635458    1.285094
     27          6           0        4.222332    3.893414    0.903430
     28          6           0        4.424048    4.807814    2.063332
     29          6           0        4.983678    3.960094    3.169333
     30          6           0        5.086637    2.600197    2.559920
     31          6           0        5.332019    6.038874    1.713617
     32          6           0        4.094220    4.014584    4.440619
     33          6           0        4.813165    4.042044    5.775166
     34          7           0        5.324478   -0.135286    1.550773
     35          6           0        5.547469    0.195995    2.899910
     36          6           0        5.874478   -0.968481    3.658122
     37          6           0        5.692330   -2.058798    2.759738
     38          6           0        5.345102   -1.442456    1.469455
     39          6           0        6.171436   -0.978349    5.144533
     40          6           0        5.694354   -3.490606    2.559124
     41          8           0        5.985704   -4.406792    3.352685
     42          6           0        5.363090   -3.748021    1.030428
     43          6           0        6.393610   -4.485354    0.407549
     44          8           0        6.258571   -5.349684   -0.466347
     45          8           0        7.667949   -4.019099    0.747895
     46          6           0        8.730627   -4.536057   -0.072987
     47          6           0       -1.885622   -3.113227   -1.052948
     48          6           0       -2.729220   -1.965818   -0.598822
     49          6           0       -3.568494   -1.152746   -1.296632
     50          6           0       -3.984153   -1.459883   -2.789997
     51          6           0       -4.094222    0.132024   -0.712580
     52          6           0       -5.553725    0.289639   -0.695110
     53          6           0       -6.173848    0.487543    0.673044
     54          6           0       -7.771917    0.380488    0.738035
     55          6           0       -8.412794    1.377567    1.732452
     56          6           0       -8.150818   -1.122185    1.019158
     57          6           0       -9.257350   -1.573693   -0.011564
     58          6           0      -10.591575   -2.023428    0.681476
     59          6           0      -11.628124   -0.856251    0.982275
     60          6           0      -11.952681   -0.706482    2.483764
     61          6           0      -12.935954   -1.160679    0.128661
     62          6           0      -13.238544    0.070185   -0.764682
     63          6           0      -14.711000    0.476904   -0.839913
     64          6           0      -15.240477    1.093185    0.540618
     65          6           0      -16.238071    0.208959    1.267633
     66          6           0      -15.500181    2.580893    0.533188
     67          1           0        3.655811    0.242599   -4.441245
     68          1           0        3.803495    5.431814   -0.492433
     69          1           0        5.860172    1.727750    4.299334
     70          1           0        5.019096   -3.856154   -1.873381
     71          1           0        3.305422   -2.349203   -3.741363
     72          1           0        5.952187   -1.407678   -4.456728
     73          1           0        4.990378   -2.757722   -5.025809
     74          1           0        6.204868   -2.940658   -3.703512
     75          1           0        3.158363   -4.668492   -0.994632
     76          1           0        2.659788   -4.275278   -2.576282
     77          1           0        1.598344   -2.057399   -1.751592
     78          1           0        1.902798   -2.563767   -0.120806
     79          1           0        2.214248    3.520976   -5.492496
     80          1           0        2.559259    1.805289   -5.429506
     81          1           0        3.868184    2.942055   -5.966929
     82          1           0        4.179424    6.629757   -2.010512
     83          1           0        2.388979    6.484322   -2.106620
     84          1           0        3.232951    7.475497   -3.329415
     85          1           0        3.417612    5.212269    2.166840
     86          1           0        5.965249    4.362405    3.419173
     87          1           0        4.592202    6.821190    1.545980
     88          1           0        5.891056    5.858358    0.795478
     89          1           0        6.034268    6.243867    2.521433
     90          1           0        3.438128    3.154019    4.570124
     91          1           0        3.472117    4.908505    4.482080
     92          1           0        4.405490    4.839128    6.397982
     93          1           0        5.896116    4.146133    5.845219
     94          1           0        4.564046    3.116689    6.292831
     95          1           0        7.030089   -1.586510    5.432673
     96          1           0        5.323576   -1.296179    5.751651
     97          1           0        6.535058   -0.034186    5.550303
     98          1           0        4.490126   -4.400205    1.011708
     99          1           0        8.878993   -3.934949   -0.970153
    100          1           0        8.628963   -5.598336   -0.295771
    101          1           0        9.635098   -4.385721    0.516207
    102          1           0       -2.049694   -3.954093   -0.378297
    103          1           0       -2.145499   -3.370619   -2.079252
    104          1           0       -2.483030   -1.710561    0.431242
    105          1           0       -5.067657   -1.546865   -2.859798
    106          1           0       -3.571706   -2.420840   -3.096726
    107          1           0       -3.760331   -0.603966   -3.426920
    108          1           0       -3.606874    0.919373   -1.288001
    109          1           0       -3.718698    0.349519    0.287552
    110          1           0       -5.988227   -0.656588   -1.017226
    111          1           0       -5.804000    1.211605   -1.220466
    112          1           0       -5.749046    1.425214    1.030793
    113          1           0       -5.865404   -0.389749    1.241605
    114          1           0       -8.139308    0.737968   -0.223661
    115          1           0       -9.030164    2.095396    1.192264
    116          1           0       -7.765101    1.905791    2.431562
    117          1           0       -9.000949    0.784961    2.434202
    118          1           0       -8.491402   -1.128208    2.054743
    119          1           0       -7.333244   -1.805846    0.788606
    120          1           0       -8.899242   -2.479963   -0.498328
    121          1           0       -9.549212   -0.884052   -0.804743
    122          1           0      -10.288550   -2.543137    1.590202
    123          1           0      -11.095012   -2.832556    0.152230
    124          1           0      -11.054695   -0.032399    0.557651
    125          1           0      -11.369314    0.042596    3.018524
    126          1           0      -11.862207   -1.627404    3.059969
    127          1           0      -12.932581   -0.238946    2.577650
    128          1           0      -13.812288   -1.349076    0.748163
    129          1           0      -12.845252   -2.031971   -0.520607
    130          1           0      -12.883629   -0.161129   -1.768996
    131          1           0      -12.727047    0.941097   -0.355864
    132          1           0      -15.214536   -0.433461   -1.164493
    133          1           0      -14.880495    1.207408   -1.630718
    134          1           0      -14.374963    0.969624    1.192634
    135          1           0      -16.812470    0.854769    1.932557
    136          1           0      -15.726617   -0.582415    1.814061
    137          1           0      -16.819361   -0.304569    0.502344
    138          1           0      -14.714144    3.092199    1.089289
    139          1           0      -16.430818    2.894913    1.004067
    140          1           0      -15.627612    3.001900   -0.464761
 ---------------------------------------------------------------------

 SCF Done:  E(RPBE1PBE) =  -3005.37907685     A.U. after   15 cycles

 Excitation energies and oscillator strengths:

 Excited State   1:      Singlet-A      1.8142 eV  683.40 nm  f=0.3695  <S**2>=0.000
     245 -> 248       -0.16399
     246 -> 247        0.69565
     246 <- 247       -0.11529
 This state for optimization and/or second-order correction.
 Total Energy, E(TD-HF/TD-DFT) =  -3005.31240549
 Copying the excited state density for this state as the 1-particle RhoCI density.

 Excited State   2:      Singlet-A      2.2628 eV  547.91 nm  f=0.0880  <S**2>=0.000
     245 -> 247        0.63962
     246 -> 248        0.28467

 Excited State   3:      Singlet-A      2.7942 eV  443.71 nm  f=0.0001  <S**2>=0.000
     243 -> 247        0.67489
     243 -> 249       -0.14700
     243 -> 250        0.10836

 Excited State   4:      Singlet-A      2.9501 eV  420.27 nm  f=0.0002  <S**2>=0.000
     241 -> 247       -0.15181
     242 -> 247        0.65109
     242 -> 249        0.15078

 Excited State   5:      Singlet-A      3.0831 eV  402.13 nm  f=0.0047  <S**2>=0.000
     240 -> 247       -0.16996
     241 -> 247        0.63038
     242 -> 247        0.17181
     246 -> 248       -0.17461

 The electronic state is 1-A.
 Alpha  occ. eigenvalues --  -46.92539 -19.25718 -19.25130 -19.20385 -19.20097
 Alpha  occ. eigenvalues --  -19.19007 -19.18872 -14.42470 -14.41865 -14.40794
 Alpha  occ. eigenvalues --  -14.39329 -10.36530 -10.36419 -10.32268 -10.32088
 Alpha  occ. eigenvalues --  -10.30410 -10.29533 -10.29391 -10.29292 -10.28955
 Alpha  occ. eigenvalues --  -10.28529 -10.28443 -10.28082 -10.27526 -10.27284
 Alpha  occ. eigenvalues --  -10.27237 -10.26757 -10.26545 -10.26042 -10.26030
 Alpha  occ. eigenvalues --  -10.25847 -10.25474 -10.25453 -10.25421 -10.25421
 Alpha  occ. eigenvalues --  -10.25391 -10.25360 -10.25260 -10.24462 -10.24419
 Alpha  occ. eigenvalues --  -10.24339 -10.24303 -10.23943 -10.23819 -10.23787
 Alpha  occ. eigenvalues --  -10.23761 -10.23716 -10.23712 -10.23666 -10.23636
 Alpha  occ. eigenvalues --  -10.23161 -10.22990 -10.22902 -10.22845 -10.22678
 Alpha  occ. eigenvalues --  -10.22632 -10.22281 -10.22165 -10.22122 -10.22034
 Alpha  occ. eigenvalues --  -10.22024 -10.21958 -10.21864 -10.21808 -10.21674
 Alpha  occ. eigenvalues --  -10.21488  -3.14675  -1.87523  -1.87021  -1.86925
 Alpha  occ. eigenvalues --   -1.12660  -1.10685  -1.04508  -1.02871  -1.02311
 Alpha  occ. eigenvalues --   -1.02033  -0.99618  -0.99130  -0.98300  -0.96900
 Alpha  occ. eigenvalues --   -0.87310  -0.84902  -0.84199  -0.84192  -0.83894
 Alpha  occ. eigenvalues --   -0.83351  -0.82463  -0.82322  -0.81427  -0.81140
 Alpha  occ. eigenvalues --   -0.80559  -0.80284  -0.79152  -0.78926  -0.78153
 Alpha  occ. eigenvalues --   -0.76894  -0.76641  -0.75742  -0.75558  -0.74853
 Alpha  occ. eigenvalues --   -0.74174  -0.72676  -0.72335  -0.71630  -0.70847
 Alpha  occ. eigenvalues --   -0.70240  -0.70131  -0.69968  -0.69053  -0.68250
 Alpha  occ. eigenvalues --   -0.67957  -0.67444  -0.67115  -0.65158  -0.63862
 Alpha  occ. eigenvalues --   -0.63372  -0.62510  -0.61994  -0.61002  -0.60390
 Alpha  occ. eigenvalues --   -0.60105  -0.59749  -0.59266  -0.58965  -0.58051
 Alpha  occ. eigenvalues --   -0.57893  -0.57439  -0.57201  -0.56610  -0.55028
 Alpha  occ. eigenvalues --   -0.54769  -0.54597  -0.54139  -0.53387  -0.52844
 Alpha  occ. eigenvalues --   -0.52283  -0.52114  -0.51500  -0.50994  -0.50307
 Alpha  occ. eigenvalues --   -0.50239  -0.49733  -0.49520  -0.49111  -0.48877
 Alpha  occ. eigenvalues --   -0.48360  -0.48008  -0.48002  -0.47801  -0.47657
 Alpha  occ. eigenvalues --   -0.47406  -0.46955  -0.46677  -0.46460  -0.46385
 Alpha  occ. eigenvalues --   -0.46301  -0.46149  -0.45884  -0.45592  -0.45184
 Alpha  occ. eigenvalues --   -0.45104  -0.44685  -0.44527  -0.44430  -0.44269
 Alpha  occ. eigenvalues --   -0.44038  -0.43928  -0.43854  -0.43616  -0.43473
 Alpha  occ. eigenvalues --   -0.43278  -0.43132  -0.42753  -0.42696  -0.42538
 Alpha  occ. eigenvalues --   -0.42441  -0.42038  -0.41924  -0.41736  -0.41436
 Alpha  occ. eigenvalues --   -0.41316  -0.41111  -0.40946  -0.40801  -0.40591
 Alpha  occ. eigenvalues --   -0.40536  -0.40293  -0.40140  -0.40059  -0.39976
 Alpha  occ. eigenvalues --   -0.39518  -0.39320  -0.39227  -0.39114  -0.39101
 Alpha  occ. eigenvalues --   -0.38770  -0.38529  -0.38431  -0.38367  -0.38099
 Alpha  occ. eigenvalues --   -0.37720  -0.37663  -0.37398  -0.37129  -0.37014
 Alpha  occ. eigenvalues --   -0.36809  -0.36619  -0.36495  -0.36309  -0.36192
 Alpha  occ. eigenvalues --   -0.35833  -0.35649  -0.35474  -0.35154  -0.34845
 Alpha  occ. eigenvalues --   -0.34503  -0.34405  -0.34173  -0.34118  -0.33692
 Alpha  occ. eigenvalues --   -0.33180  -0.32883  -0.32733  -0.32513  -0.32247
 Alpha  occ. eigenvalues --   -0.32017  -0.31934  -0.31569  -0.31155  -0.31152
 Alpha  occ. eigenvalues --   -0.30869  -0.30461  -0.30006  -0.29813  -0.29540
 Alpha  occ. eigenvalues --   -0.29289  -0.29225  -0.29081  -0.27357  -0.26385
 Alpha  occ. eigenvalues --   -0.25938  -0.25827  -0.25503  -0.25370  -0.21875
 Alpha  occ. eigenvalues --   -0.19180
 Alpha virt. eigenvalues --   -0.11835  -0.05997  -0.04407  -0.02487  -0.01003
 Alpha virt. eigenvalues --   -0.00556   0.00671   0.01103   0.01350   0.02429
 Alpha virt. eigenvalues --    0.03662   0.04494   0.04790   0.05410   0.05637

 Mulliken charges:
               1
     1  Mg   0.981350
     2  C   -0.009199
     3  C   -0.083522
     4  C   -0.077583
     5  C   -0.083049
     6  N   -0.388638
     7  C    0.023627
     8  C   -0.092947
     9  C   -0.091386
    10  C    0.058593
    11  C    0.023532
    12  C    0.018149
    13  C   -0.060608
    14  C    0.242999
    15  O   -0.281169
    16  O   -0.332131
    17  N   -0.518740
    18  C    0.187750
    19  C   -0.188912
    20  C   -0.081480
    21  C    0.195775
    22  C    0.083637
    23  C    0.006486
    24  O   -0.254399
    25  C   -0.027055
    26  N   -0.406090
    27  C    0.097457
    28  C   -0.151421
    29  C   -0.041946
    30  C    0.093909
    31  C   -0.004252
    32  C   -0.028642
    33  C   -0.087367
    34  N   -0.448944
    35  C    0.143717
    36  C   -0.156323
    37  C   -0.024867
    38  C    0.116317
    39  C    0.056654
    40  C    0.148311
    41  O   -0.233190
    42  C   -0.084387
    43  C    0.292033
    44  O   -0.275126
    45  O   -0.372643
    46  C    0.126086
    47  C    0.257323
    48  C   -0.145139
    49  C   -0.213631
    50  C    0.024037
    51  C    0.064720
    52  C   -0.052748
    53  C   -0.045618
    54  C   -0.223840
    55  C   -0.000513
    56  C    0.018853
    57  C   -0.072964
    58  C   -0.025492
    59  C   -0.205304
    60  C    0.000129
    61  C    0.001223
    62  C   -0.086498
    63  C   -0.000911
    64  C   -0.271283
    65  C   -0.000173
    66  C    0.002410
    67  H    0.009336
    68  H   -0.008562
    69  H   -0.002109
    70  H    0.060683
    71  H    0.037279
    72  H    0.049651
    73  H    0.048722
    74  H    0.048731
    75  H    0.057623
    76  H    0.048752
    77  H    0.073751
    78  H    0.076731
    79  H    0.072834
    80  H    0.032110
    81  H    0.072875
    82  H    0.070671
    83  H    0.068287
    84  H    0.057071
    85  H    0.054350
    86  H    0.044288
    87  H    0.048543
    88  H    0.053129
    89  H    0.050104
    90  H    0.049593
    91  H    0.041486
    92  H    0.036523
    93  H    0.040459
    94  H    0.036800
    95  H    0.054523
    96  H    0.068864
    97  H    0.024917
    98  H    0.074487
    99  H    0.044943
   100  H    0.070915
   101  H    0.048743
   102  H    0.044677
   103  H    0.034573
   104  H    0.020002
   105  H    0.044562
   106  H    0.039903
   107  H    0.047750
   108  H    0.036333
   109  H    0.016517
   110  H    0.037493
   111  H    0.028418
   112  H    0.024415
   113  H    0.027499
   114  H    0.033724
   115  H    0.043923
   116  H    0.030284
   117  H    0.019734
   118  H    0.045016
   119  H    0.044067
   120  H    0.025361
   121  H    0.038447
   122  H    0.009256
   123  H    0.015433
   124  H    0.047615
   125  H    0.027502
   126  H    0.043909
   127  H    0.025585
   128  H    0.023383
   129  H    0.030777
   130  H    0.029787
   131  H    0.035128
   132  H    0.020401
   133  H    0.021189
   134  H    0.040117
   135  H    0.032937
   136  H    0.038527
   137  H    0.032401
   138  H    0.038053
   139  H    0.021831
   140  H    0.031418
 Sum of Mulliken charges =  -0.00000

 Dipole moment (field-independent basis, Debye):
    X=              0.2353    Y=              6.9455    Z=              0.9448  Tot=              7.0135
 Quadrupole moment (field-independent basis, Debye-Ang):
   XX=           -383.2659   YY=           -436.5315   ZZ=           -402.7990
   XY=             28.2946   XZ=             -1.6547   YZ=             39.3052

 Normal termination of Gaussian 16 at Wed May  4 16:56:58 2022.
