 Gaussian 16, Revision A.03,
 Gaussian 16:  ES64L-G16RevA.03 25-Dec-2016

 --------------------------------
 #p wB97XD/Def2SVP td=(nstates=5)
 --------------------------------

 ----------------------------------------------------
 step_201_chromophore_14 TDDFT with wB97XD functional
 ----------------------------------------------------
 Symbolic Z-matrix:
 Charge =  0 Multiplicity = 1

                         Standard orientation:
 ---------------------------------------------------------------------
 Center     Atomic      Atomic             Coordinates (Angstroms)
 Number     Number       Type             X           Y           Z
 ---------------------------------------------------------------------
      1         12           0        4.826793    1.037598   -0.149144
      2          6           0        5.059780   -2.388095    0.425001
      3          6           0        3.885822    0.413451   -3.387668
      4          6           0        3.886582    4.349157   -0.384378
      5          6           0        5.549049    1.525190    3.271882
      6          7           0        4.509023   -0.761471   -1.334985
      7          6           0        4.644349   -2.032436   -0.890232
      8          6           0        4.255358   -3.082417   -1.951843
      9          6           0        4.225814   -2.210000   -3.175008
     10          6           0        4.108222   -0.745776   -2.643678
     11          6           0        5.429105   -2.308066   -4.134579
     12          6           0        2.917146   -3.811803   -1.624070
     13          6           0        1.761746   -2.941276   -1.133588
     14          6           0        0.376113   -3.640347   -1.152955
     15          8           0        0.085090   -4.798463   -1.487202
     16          8           0       -0.554531   -2.705416   -0.862340
     17          7           0        4.056866    2.179374   -1.648345
     18          6           0        3.856335    1.753652   -2.954185
     19          6           0        3.412494    2.882575   -3.820597
     20          6           0        3.567546    4.067416   -3.008932
     21          6           0        3.835755    3.551361   -1.592961
     22          6           0        3.005900    2.793820   -5.316839
     23          6           0        3.315383    5.389762   -3.586221
     24          8           0        3.037127    5.537384   -4.776639
     25          6           0        3.313283    6.609736   -2.671049
     26          7           0        4.630201    2.635458    1.285094
     27          6           0        4.222332    3.893414    0.903430
     28          6           0        4.424048    4.807814    2.063332
     29          6           0        4.983678    3.960094    3.169333
     30          6           0        5.086637    2.600197    2.559920
     31          6           0        5.332019    6.038874    1.713617
     32          6           0        4.094220    4.014584    4.440619
     33          6           0        4.813165    4.042044    5.775166
     34          7           0        5.324478   -0.135286    1.550773
     35          6           0        5.547469    0.195995    2.899910
     36          6           0        5.874478   -0.968481    3.658122
     37          6           0        5.692330   -2.058798    2.759738
     38          6           0        5.345102   -1.442456    1.469455
     39          6           0        6.171436   -0.978349    5.144533
     40          6           0        5.694354   -3.490606    2.559124
     41          8           0        5.985704   -4.406792    3.352685
     42          6           0        5.363090   -3.748021    1.030428
     43          6           0        6.393610   -4.485354    0.407549
     44          8           0        6.258571   -5.349684   -0.466347
     45          8           0        7.667949   -4.019099    0.747895
     46          6           0        8.730627   -4.536057   -0.072987
     47          6           0       -1.885622   -3.113227   -1.052948
     48          6           0       -2.729220   -1.965818   -0.598822
     49          6           0       -3.568494   -1.152746   -1.296632
     50          6           0       -3.984153   -1.459883   -2.789997
     51          6           0       -4.094222    0.132024   -0.712580
     52          6           0       -5.553725    0.289639   -0.695110
     53          6           0       -6.173848    0.487543    0.673044
     54          6           0       -7.771917    0.380488    0.738035
     55          6           0       -8.412794    1.377567    1.732452
     56          6           0       -8.150818   -1.122185    1.019158
     57          6           0       -9.257350   -1.573693   -0.011564
     58          6           0      -10.591575   -2.023428    0.681476
     59          6           0      -11.628124   -0.856251    0.982275
     60          6           0      -11.952681   -0.706482    2.483764
     61          6           0      -12.935954   -1.160679    0.128661
     62          6           0      -13.238544    0.070185   -0.764682
     63          6           0      -14.711000    0.476904   -0.839913
     64          6           0      -15.240477    1.093185    0.540618
     65          6           0      -16.238071    0.208959    1.267633
     66          6           0      -15.500181    2.580893    0.533188
     67          1           0        3.655811    0.242599   -4.441245
     68          1           0        3.803495    5.431814   -0.492433
     69          1           0        5.860172    1.727750    4.299334
     70          1           0        5.019096   -3.856154   -1.873381
     71          1           0        3.305422   -2.349203   -3.741363
     72          1           0        5.952187   -1.407678   -4.456728
     73          1           0        4.990378   -2.757722   -5.025809
     74          1           0        6.204868   -2.940658   -3.703512
     75          1           0        3.158363   -4.668492   -0.994632
     76          1           0        2.659788   -4.275278   -2.576282
     77          1           0        1.598344   -2.057399   -1.751592
     78          1           0        1.902798   -2.563767   -0.120806
     79          1           0        2.214248    3.520976   -5.492496
     80          1           0        2.559259    1.805289   -5.429506
     81          1           0        3.868184    2.942055   -5.966929
     82          1           0        4.179424    6.629757   -2.010512
     83          1           0        2.388979    6.484322   -2.106620
     84          1           0        3.232951    7.475497   -3.329415
     85          1           0        3.417612    5.212269    2.166840
     86          1           0        5.965249    4.362405    3.419173
     87          1           0        4.592202    6.821190    1.545980
     88          1           0        5.891056    5.858358    0.795478
     89          1           0        6.034268    6.243867    2.521433
     90          1           0        3.438128    3.154019    4.570124
     91          1           0        3.472117    4.908505    4.482080
     92          1           0        4.405490    4.839128    6.397982
     93          1           0        5.896116    4.146133    5.845219
     94          1           0        4.564046    3.116689    6.292831
     95          1           0        7.030089   -1.586510    5.432673
     96          1           0        5.323576   -1.296179    5.751651
     97          1           0        6.535058   -0.034186    5.550303
     98          1           0        4.490126   -4.400205    1.011708
     99          1           0        8.878993   -3.934949   -0.970153
    100          1           0        8.628963   -5.598336   -0.295771
    101          1           0        9.635098   -4.385721    0.516207
    102          1           0       -2.049694   -3.954093   -0.378297
    103          1           0       -2.145499   -3.370619   -2.079252
    104          1           0       -2.483030   -1.710561    0.431242
    105          1           0       -5.067657   -1.546865   -2.859798
    106          1           0       -3.571706   -2.420840   -3.096726
    107          1           0       -3.760331   -0.603966   -3.426920
    108          1           0       -3.606874    0.919373   -1.288001
    109          1           0       -3.718698    0.349519    0.287552
    110          1           0       -5.988227   -0.656588   -1.017226
    111          1           0       -5.804000    1.211605   -1.220466
    112          1           0       -5.749046    1.425214    1.030793
    113          1           0       -5.865404   -0.389749    1.241605
    114          1           0       -8.139308    0.737968   -0.223661
    115          1           0       -9.030164    2.095396    1.192264
    116          1           0       -7.765101    1.905791    2.431562
    117          1           0       -9.000949    0.784961    2.434202
    118          1           0       -8.491402   -1.128208    2.054743
    119          1           0       -7.333244   -1.805846    0.788606
    120          1           0       -8.899242   -2.479963   -0.498328
    121          1           0       -9.549212   -0.884052   -0.804743
    122          1           0      -10.288550   -2.543137    1.590202
    123          1           0      -11.095012   -2.832556    0.152230
    124          1           0      -11.054695   -0.032399    0.557651
    125          1           0      -11.369314    0.042596    3.018524
    126          1           0      -11.862207   -1.627404    3.059969
    127          1           0      -12.932581   -0.238946    2.577650
    128          1           0      -13.812288   -1.349076    0.748163
    129          1           0      -12.845252   -2.031971   -0.520607
    130          1           0      -12.883629   -0.161129   -1.768996
    131          1           0      -12.727047    0.941097   -0.355864
    132          1           0      -15.214536   -0.433461   -1.164493
    133          1           0      -14.880495    1.207408   -1.630718
    134          1           0      -14.374963    0.969624    1.192634
    135          1           0      -16.812470    0.854769    1.932557
    136          1           0      -15.726617   -0.582415    1.814061
    137          1           0      -16.819361   -0.304569    0.502344
    138          1           0      -14.714144    3.092199    1.089289
    139          1           0      -16.430818    2.894913    1.004067
    140          1           0      -15.627612    3.001900   -0.464761
 ---------------------------------------------------------------------

 SCF Done:  E(RwB97XD) =  -3007.88860502     A.U. after   20 cycles

 Excitation energies and oscillator strengths:

 Excited State   1:      Singlet-A      1.6011 eV  774.37 nm  f=0.3832  <S**2>=0.000
     245 -> 248       -0.17675
     246 -> 247        0.68572
     245 <- 248       -0.11696
 This state for optimization and/or second-order correction.
 Total Energy, E(TD-HF/TD-DFT) =  -3007.82976596
 Copying the excited state density for this state as the 1-particle RhoCI density.

 Excited State   2:      Singlet-A      2.2105 eV  560.88 nm  f=0.0806  <S**2>=0.000
     245 -> 247        0.62191
     246 -> 248        0.32181

 Excited State   3:      Singlet-A      3.3565 eV  369.38 nm  f=0.0275  <S**2>=0.000
     242 -> 247        0.50836
     242 -> 249       -0.25446
     242 -> 250        0.21894
     243 -> 247        0.24814
     246 -> 248       -0.17811

 Excited State   4:      Singlet-A      3.4451 eV  359.89 nm  f=0.1780  <S**2>=0.000
     241 -> 247        0.11107
     242 -> 247       -0.26285
     242 -> 249        0.12287
     242 -> 250       -0.10229
     243 -> 247        0.45094
     245 -> 247        0.16886
     246 -> 248       -0.36984

 Excited State   5:      Singlet-A      3.4742 eV  356.87 nm  f=0.0872  <S**2>=0.000
     240 -> 247        0.13280
     240 -> 248       -0.10544
     240 -> 249        0.18213
     240 -> 250        0.13871
     241 -> 247        0.50128
     241 -> 249        0.22004
     243 -> 247        0.11908
     245 -> 247       -0.10625
     246 -> 248        0.24440

 The electronic state is 1-A.
 Alpha  occ. eigenvalues --  -46.95505 -19.30271 -19.29696 -19.25067 -19.24727
 Alpha  occ. eigenvalues --  -19.23918 -19.23566 -14.47588 -14.46920 -14.45884
 Alpha  occ. eigenvalues --  -14.44199 -10.43280 -10.43249 -10.39050 -10.39048
 Alpha  occ. eigenvalues --  -10.36997 -10.35853 -10.35738 -10.35708 -10.35548
 Alpha  occ. eigenvalues --  -10.35030 -10.34568 -10.34551 -10.33944 -10.33592
 Alpha  occ. eigenvalues --  -10.33446 -10.33039 -10.32828 -10.32426 -10.32334
 Alpha  occ. eigenvalues --  -10.32313 -10.32026 -10.31918 -10.31854 -10.31761
 Alpha  occ. eigenvalues --  -10.31693 -10.31515 -10.31475 -10.30799 -10.30795
 Alpha  occ. eigenvalues --  -10.30662 -10.30536 -10.30404 -10.30307 -10.30280
 Alpha  occ. eigenvalues --  -10.30209 -10.30170 -10.29982 -10.29945 -10.29944
 Alpha  occ. eigenvalues --  -10.29510 -10.29321 -10.29289 -10.29124 -10.29073
 Alpha  occ. eigenvalues --  -10.28979 -10.28637 -10.28531 -10.28481 -10.28477
 Alpha  occ. eigenvalues --  -10.28427 -10.28388 -10.28227 -10.28147 -10.28103
 Alpha  occ. eigenvalues --  -10.27933  -3.21494  -1.95092  -1.94589  -1.94492
 Alpha  occ. eigenvalues --   -1.20005  -1.18082  -1.12118  -1.10266  -1.09633
 Alpha  occ. eigenvalues --   -1.09396  -1.06984  -1.06532  -1.05563  -1.04450
 Alpha  occ. eigenvalues --   -0.94897  -0.92573  -0.91813  -0.91718  -0.91483
 Alpha  occ. eigenvalues --   -0.91031  -0.90130  -0.89982  -0.88966  -0.88776
 Alpha  occ. eigenvalues --   -0.88419  -0.87939  -0.86795  -0.86486  -0.85817
 Alpha  occ. eigenvalues --   -0.84581  -0.84382  -0.83431  -0.83148  -0.82488
 Alpha  occ. eigenvalues --   -0.81843  -0.80249  -0.79952  -0.79404  -0.78489
 Alpha  occ. eigenvalues --   -0.77899  -0.77766  -0.77666  -0.76736  -0.75882
 Alpha  occ. eigenvalues --   -0.75529  -0.75046  -0.74670  -0.72788  -0.71326
 Alpha  occ. eigenvalues --   -0.70914  -0.70126  -0.69617  -0.68489  -0.67921
 Alpha  occ. eigenvalues --   -0.67546  -0.67328  -0.66835  -0.66508  -0.65590
 Alpha  occ. eigenvalues --   -0.65521  -0.64883  -0.64867  -0.64244  -0.62474
 Alpha  occ. eigenvalues --   -0.62278  -0.61981  -0.61523  -0.60798  -0.60254
 Alpha  occ. eigenvalues --   -0.59805  -0.59556  -0.58957  -0.58426  -0.57747
 Alpha  occ. eigenvalues --   -0.57651  -0.57223  -0.56919  -0.56467  -0.56232
 Alpha  occ. eigenvalues --   -0.55791  -0.55432  -0.55284  -0.55244  -0.55060
 Alpha  occ. eigenvalues --   -0.54834  -0.54308  -0.54221  -0.53756  -0.53741
 Alpha  occ. eigenvalues --   -0.53642  -0.53528  -0.53215  -0.52905  -0.52491
 Alpha  occ. eigenvalues --   -0.52441  -0.52096  -0.51985  -0.51695  -0.51579
 Alpha  occ. eigenvalues --   -0.51369  -0.51248  -0.51138  -0.50921  -0.50778
 Alpha  occ. eigenvalues --   -0.50594  -0.50485  -0.50043  -0.49939  -0.49738
 Alpha  occ. eigenvalues --   -0.49660  -0.49280  -0.49237  -0.49099  -0.48663
 Alpha  occ. eigenvalues --   -0.48494  -0.48285  -0.48204  -0.48080  -0.47864
 Alpha  occ. eigenvalues --   -0.47800  -0.47518  -0.47356  -0.47265  -0.47178
 Alpha  occ. eigenvalues --   -0.46680  -0.46508  -0.46374  -0.46306  -0.46147
 Alpha  occ. eigenvalues --   -0.45866  -0.45640  -0.45594  -0.45474  -0.45242
 Alpha  occ. eigenvalues --   -0.44859  -0.44748  -0.44518  -0.44358  -0.44192
 Alpha  occ. eigenvalues --   -0.43932  -0.43651  -0.43620  -0.43427  -0.43183
 Alpha  occ. eigenvalues --   -0.42897  -0.42752  -0.42528  -0.42073  -0.41924
 Alpha  occ. eigenvalues --   -0.41526  -0.41482  -0.41136  -0.41111  -0.40738
 Alpha  occ. eigenvalues --   -0.40233  -0.39825  -0.39819  -0.39567  -0.39247
 Alpha  occ. eigenvalues --   -0.39013  -0.38873  -0.38606  -0.38211  -0.38191
 Alpha  occ. eigenvalues --   -0.37823  -0.37489  -0.36947  -0.36747  -0.36461
 Alpha  occ. eigenvalues --   -0.36255  -0.36048  -0.36011  -0.33923  -0.33269
 Alpha  occ. eigenvalues --   -0.33019  -0.32520  -0.32306  -0.32087  -0.26923
 Alpha  occ. eigenvalues --   -0.23266
 Alpha virt. eigenvalues --   -0.07740  -0.00613   0.01802   0.03998   0.05069
 Alpha virt. eigenvalues --    0.06094   0.07521   0.07773   0.08142   0.08705
 Alpha virt. eigenvalues --    0.10317   0.11391   0.11433   0.12034   0.12411

 Mulliken charges:
               1
     1  Mg   0.971766
     2  C   -0.016442
     3  C   -0.099928
     4  C   -0.091959
     5  C   -0.094710
     6  N   -0.353701
     7  C   -0.012148
     8  C   -0.062706
     9  C   -0.063880
    10  C    0.044483
    11  C    0.029610
    12  C    0.026001
    13  C   -0.038792
    14  C    0.232875
    15  O   -0.278656
    16  O   -0.330872
    17  N   -0.487550
    18  C    0.184242
    19  C   -0.184541
    20  C   -0.079994
    21  C    0.193293
    22  C    0.100027
    23  C    0.005362
    24  O   -0.249035
    25  C   -0.012023
    26  N   -0.370304
    27  C    0.083857
    28  C   -0.126957
    29  C   -0.009236
    30  C    0.078402
    31  C    0.008147
    32  C   -0.015570
    33  C   -0.074354
    34  N   -0.410747
    35  C    0.135843
    36  C   -0.156295
    37  C   -0.020918
    38  C    0.094752
    39  C    0.066169
    40  C    0.131348
    41  O   -0.224891
    42  C   -0.042095
    43  C    0.270114
    44  O   -0.269597
    45  O   -0.372864
    46  C    0.141219
    47  C    0.272657
    48  C   -0.153641
    49  C   -0.198705
    50  C    0.038034
    51  C    0.075270
    52  C   -0.029607
    53  C   -0.023251
    54  C   -0.198812
    55  C    0.013946
    56  C    0.033876
    57  C   -0.051334
    58  C   -0.013559
    59  C   -0.172041
    60  C    0.017164
    61  C    0.017605
    62  C   -0.060618
    63  C    0.009515
    64  C   -0.230766
    65  C    0.013932
    66  C    0.012299
    67  H    0.004091
    68  H   -0.021216
    69  H   -0.014511
    70  H    0.046389
    71  H    0.026966
    72  H    0.043857
    73  H    0.043817
    74  H    0.043908
    75  H    0.051143
    76  H    0.040736
    77  H    0.063619
    78  H    0.069021
    79  H    0.069200
    80  H    0.026399
    81  H    0.070040
    82  H    0.065150
    83  H    0.062659
    84  H    0.056360
    85  H    0.043369
    86  H    0.031091
    87  H    0.043088
    88  H    0.045344
    89  H    0.045225
    90  H    0.041846
    91  H    0.032915
    92  H    0.031292
    93  H    0.034859
    94  H    0.030592
    95  H    0.049744
    96  H    0.064065
    97  H    0.019297
    98  H    0.067139
    99  H    0.040445
   100  H    0.066742
   101  H    0.045001
   102  H    0.039989
   103  H    0.027558
   104  H    0.017008
   105  H    0.038761
   106  H    0.033900
   107  H    0.042505
   108  H    0.029040
   109  H    0.009039
   110  H    0.020179
   111  H    0.021304
   112  H    0.016249
   113  H    0.013824
   114  H    0.019969
   115  H    0.039679
   116  H    0.025748
   117  H    0.006532
   118  H    0.034604
   119  H    0.036084
   120  H    0.018358
   121  H    0.028332
   122  H   -0.001198
   123  H    0.007169
   124  H    0.025880
   125  H    0.021339
   126  H    0.038899
   127  H    0.016334
   128  H    0.006611
   129  H    0.023176
   130  H    0.022838
   131  H    0.022530
   132  H    0.011221
   133  H    0.013622
   134  H    0.014879
   135  H    0.027410
   136  H    0.032259
   137  H    0.025520
   138  H    0.033259
   139  H    0.015814
   140  H    0.025380
 Sum of Mulliken charges =  -0.00000

 Dipole moment (field-independent basis, Debye):
    X=              0.1623    Y=              7.1988    Z=              0.5395  Tot=              7.2208
 Quadrupole moment (field-independent basis, Debye-Ang):
   XX=           -382.9433   YY=           -435.6841   ZZ=           -402.5556
   XY=             28.9407   XZ=             -3.5264   YZ=             37.9819

 Normal termination of Gaussian 16 at Wed May  4 17:39:41 2022.
