 Gaussian 16, Revision A.03,
 Gaussian 16:  ES64L-G16RevA.03 25-Dec-2016

 --------------------
 #p ZINDO=(nstates=5)
 --------------------

 -----------------------------
 step_201_chromophore_14 ZINDO
 -----------------------------
 Symbolic Z-matrix:
 Charge =  0 Multiplicity = 1

                         Standard orientation:
 ---------------------------------------------------------------------
 Center     Atomic      Atomic             Coordinates (Angstroms)
 Number     Number       Type             X           Y           Z
 ---------------------------------------------------------------------
      1         12           0        4.826793    1.037598   -0.149144
      2          6           0        5.059780   -2.388095    0.425001
      3          6           0        3.885822    0.413451   -3.387668
      4          6           0        3.886582    4.349157   -0.384378
      5          6           0        5.549049    1.525190    3.271882
      6          7           0        4.509023   -0.761471   -1.334985
      7          6           0        4.644349   -2.032436   -0.890232
      8          6           0        4.255358   -3.082417   -1.951843
      9          6           0        4.225814   -2.210000   -3.175008
     10          6           0        4.108222   -0.745776   -2.643678
     11          6           0        5.429105   -2.308066   -4.134579
     12          6           0        2.917146   -3.811803   -1.624070
     13          6           0        1.761746   -2.941276   -1.133588
     14          6           0        0.376113   -3.640347   -1.152955
     15          8           0        0.085090   -4.798463   -1.487202
     16          8           0       -0.554531   -2.705416   -0.862340
     17          7           0        4.056866    2.179374   -1.648345
     18          6           0        3.856335    1.753652   -2.954185
     19          6           0        3.412494    2.882575   -3.820597
     20          6           0        3.567546    4.067416   -3.008932
     21          6           0        3.835755    3.551361   -1.592961
     22          6           0        3.005900    2.793820   -5.316839
     23          6           0        3.315383    5.389762   -3.586221
     24          8           0        3.037127    5.537384   -4.776639
     25          6           0        3.313283    6.609736   -2.671049
     26          7           0        4.630201    2.635458    1.285094
     27          6           0        4.222332    3.893414    0.903430
     28          6           0        4.424048    4.807814    2.063332
     29          6           0        4.983678    3.960094    3.169333
     30          6           0        5.086637    2.600197    2.559920
     31          6           0        5.332019    6.038874    1.713617
     32          6           0        4.094220    4.014584    4.440619
     33          6           0        4.813165    4.042044    5.775166
     34          7           0        5.324478   -0.135286    1.550773
     35          6           0        5.547469    0.195995    2.899910
     36          6           0        5.874478   -0.968481    3.658122
     37          6           0        5.692330   -2.058798    2.759738
     38          6           0        5.345102   -1.442456    1.469455
     39          6           0        6.171436   -0.978349    5.144533
     40          6           0        5.694354   -3.490606    2.559124
     41          8           0        5.985704   -4.406792    3.352685
     42          6           0        5.363090   -3.748021    1.030428
     43          6           0        6.393610   -4.485354    0.407549
     44          8           0        6.258571   -5.349684   -0.466347
     45          8           0        7.667949   -4.019099    0.747895
     46          6           0        8.730627   -4.536057   -0.072987
     47          6           0       -1.885622   -3.113227   -1.052948
     48          6           0       -2.729220   -1.965818   -0.598822
     49          6           0       -3.568494   -1.152746   -1.296632
     50          6           0       -3.984153   -1.459883   -2.789997
     51          6           0       -4.094222    0.132024   -0.712580
     52          6           0       -5.553725    0.289639   -0.695110
     53          6           0       -6.173848    0.487543    0.673044
     54          6           0       -7.771917    0.380488    0.738035
     55          6           0       -8.412794    1.377567    1.732452
     56          6           0       -8.150818   -1.122185    1.019158
     57          6           0       -9.257350   -1.573693   -0.011564
     58          6           0      -10.591575   -2.023428    0.681476
     59          6           0      -11.628124   -0.856251    0.982275
     60          6           0      -11.952681   -0.706482    2.483764
     61          6           0      -12.935954   -1.160679    0.128661
     62          6           0      -13.238544    0.070185   -0.764682
     63          6           0      -14.711000    0.476904   -0.839913
     64          6           0      -15.240477    1.093185    0.540618
     65          6           0      -16.238071    0.208959    1.267633
     66          6           0      -15.500181    2.580893    0.533188
     67          1           0        3.655811    0.242599   -4.441245
     68          1           0        3.803495    5.431814   -0.492433
     69          1           0        5.860172    1.727750    4.299334
     70          1           0        5.019096   -3.856154   -1.873381
     71          1           0        3.305422   -2.349203   -3.741363
     72          1           0        5.952187   -1.407678   -4.456728
     73          1           0        4.990378   -2.757722   -5.025809
     74          1           0        6.204868   -2.940658   -3.703512
     75          1           0        3.158363   -4.668492   -0.994632
     76          1           0        2.659788   -4.275278   -2.576282
     77          1           0        1.598344   -2.057399   -1.751592
     78          1           0        1.902798   -2.563767   -0.120806
     79          1           0        2.214248    3.520976   -5.492496
     80          1           0        2.559259    1.805289   -5.429506
     81          1           0        3.868184    2.942055   -5.966929
     82          1           0        4.179424    6.629757   -2.010512
     83          1           0        2.388979    6.484322   -2.106620
     84          1           0        3.232951    7.475497   -3.329415
     85          1           0        3.417612    5.212269    2.166840
     86          1           0        5.965249    4.362405    3.419173
     87          1           0        4.592202    6.821190    1.545980
     88          1           0        5.891056    5.858358    0.795478
     89          1           0        6.034268    6.243867    2.521433
     90          1           0        3.438128    3.154019    4.570124
     91          1           0        3.472117    4.908505    4.482080
     92          1           0        4.405490    4.839128    6.397982
     93          1           0        5.896116    4.146133    5.845219
     94          1           0        4.564046    3.116689    6.292831
     95          1           0        7.030089   -1.586510    5.432673
     96          1           0        5.323576   -1.296179    5.751651
     97          1           0        6.535058   -0.034186    5.550303
     98          1           0        4.490126   -4.400205    1.011708
     99          1           0        8.878993   -3.934949   -0.970153
    100          1           0        8.628963   -5.598336   -0.295771
    101          1           0        9.635098   -4.385721    0.516207
    102          1           0       -2.049694   -3.954093   -0.378297
    103          1           0       -2.145499   -3.370619   -2.079252
    104          1           0       -2.483030   -1.710561    0.431242
    105          1           0       -5.067657   -1.546865   -2.859798
    106          1           0       -3.571706   -2.420840   -3.096726
    107          1           0       -3.760331   -0.603966   -3.426920
    108          1           0       -3.606874    0.919373   -1.288001
    109          1           0       -3.718698    0.349519    0.287552
    110          1           0       -5.988227   -0.656588   -1.017226
    111          1           0       -5.804000    1.211605   -1.220466
    112          1           0       -5.749046    1.425214    1.030793
    113          1           0       -5.865404   -0.389749    1.241605
    114          1           0       -8.139308    0.737968   -0.223661
    115          1           0       -9.030164    2.095396    1.192264
    116          1           0       -7.765101    1.905791    2.431562
    117          1           0       -9.000949    0.784961    2.434202
    118          1           0       -8.491402   -1.128208    2.054743
    119          1           0       -7.333244   -1.805846    0.788606
    120          1           0       -8.899242   -2.479963   -0.498328
    121          1           0       -9.549212   -0.884052   -0.804743
    122          1           0      -10.288550   -2.543137    1.590202
    123          1           0      -11.095012   -2.832556    0.152230
    124          1           0      -11.054695   -0.032399    0.557651
    125          1           0      -11.369314    0.042596    3.018524
    126          1           0      -11.862207   -1.627404    3.059969
    127          1           0      -12.932581   -0.238946    2.577650
    128          1           0      -13.812288   -1.349076    0.748163
    129          1           0      -12.845252   -2.031971   -0.520607
    130          1           0      -12.883629   -0.161129   -1.768996
    131          1           0      -12.727047    0.941097   -0.355864
    132          1           0      -15.214536   -0.433461   -1.164493
    133          1           0      -14.880495    1.207408   -1.630718
    134          1           0      -14.374963    0.969624    1.192634
    135          1           0      -16.812470    0.854769    1.932557
    136          1           0      -15.726617   -0.582415    1.814061
    137          1           0      -16.819361   -0.304569    0.502344
    138          1           0      -14.714144    3.092199    1.089289
    139          1           0      -16.430818    2.894913    1.004067
    140          1           0      -15.627612    3.001900   -0.464761
 ---------------------------------------------------------------------

 SCF Done:  E(RZINDO/S) =  -474.378663215     A.U. after   19 cycles

 Excitation energies and oscillator strengths:

 Excited State   1:      Singlet-A      1.2354 eV 1003.60 nm  f=0.6173  <S**2>=0.000
     175 ->178         0.17663
     176 ->177         0.66625
 This state for optimization and/or second-order correction.
 Total Energy, E(CIS/TDA) =  -474.333263467
 Copying the excited state density for this state as the 1-particle RhoCI density.

 Excited State   2:      Singlet-A      1.9297 eV  642.51 nm  f=0.0178  <S**2>=0.000
     175 ->177         0.51297
     176 ->178        -0.46038

 Excited State   3:      Singlet-A      2.8982 eV  427.79 nm  f=0.0239  <S**2>=0.000
     168 ->177         0.28782
     168 ->178        -0.15892
     168 ->179         0.35837
     168 ->180         0.24213
     168 ->185        -0.20094
     168 ->192         0.11069
     169 ->177        -0.10882
     169 ->179        -0.13276
     176 ->179         0.14236

 Excited State   4:      Singlet-A      2.9495 eV  420.35 nm  f=0.8111  <S**2>=0.000
     175 ->177         0.35638
     176 ->178         0.43779
     176 ->179        -0.29295

 Excited State   5:      Singlet-A      2.9757 eV  416.66 nm  f=0.2758  <S**2>=0.000
     173 ->177         0.11224
     175 ->177         0.23555
     176 ->178         0.22936
     176 ->179         0.52622
     176 ->180        -0.18644

 The electronic state is 1-A.
 Alpha  occ. eigenvalues --   -1.84732  -1.83463  -1.79817  -1.76669  -1.73405
 Alpha  occ. eigenvalues --   -1.71195  -1.65040  -1.61901  -1.60329  -1.56697
 Alpha  occ. eigenvalues --   -1.54757  -1.50416  -1.48400  -1.47384  -1.46518
 Alpha  occ. eigenvalues --   -1.45254  -1.42594  -1.41908  -1.38173  -1.37511
 Alpha  occ. eigenvalues --   -1.36264  -1.33359  -1.32983  -1.31319  -1.28532
 Alpha  occ. eigenvalues --   -1.28380  -1.28073  -1.24504  -1.22572  -1.18521
 Alpha  occ. eigenvalues --   -1.16882  -1.16444  -1.15288  -1.14710  -1.13823
 Alpha  occ. eigenvalues --   -1.12474  -1.10436  -1.09449  -1.06252  -1.05124
 Alpha  occ. eigenvalues --   -1.03283  -1.02362  -0.99870  -0.98542  -0.96795
 Alpha  occ. eigenvalues --   -0.95872  -0.94148  -0.93392  -0.92598  -0.92250
 Alpha  occ. eigenvalues --   -0.91975  -0.90103  -0.89052  -0.88680  -0.86520
 Alpha  occ. eigenvalues --   -0.86262  -0.84722  -0.84442  -0.82708  -0.81804
 Alpha  occ. eigenvalues --   -0.80603  -0.79313  -0.78679  -0.77466  -0.77237
 Alpha  occ. eigenvalues --   -0.76349  -0.75788  -0.75080  -0.74306  -0.73397
 Alpha  occ. eigenvalues --   -0.73336  -0.73037  -0.72204  -0.71852  -0.70773
 Alpha  occ. eigenvalues --   -0.70613  -0.69601  -0.68844  -0.68158  -0.68059
 Alpha  occ. eigenvalues --   -0.67516  -0.67126  -0.66513  -0.65913  -0.65448
 Alpha  occ. eigenvalues --   -0.65180  -0.65081  -0.64633  -0.64147  -0.64036
 Alpha  occ. eigenvalues --   -0.63261  -0.63135  -0.62648  -0.62542  -0.62388
 Alpha  occ. eigenvalues --   -0.61535  -0.61077  -0.60752  -0.60510  -0.60079
 Alpha  occ. eigenvalues --   -0.59667  -0.59296  -0.59188  -0.59112  -0.58808
 Alpha  occ. eigenvalues --   -0.58416  -0.57707  -0.57608  -0.57454  -0.56745
 Alpha  occ. eigenvalues --   -0.56638  -0.56010  -0.55688  -0.55283  -0.54904
 Alpha  occ. eigenvalues --   -0.54549  -0.54010  -0.53594  -0.53453  -0.53224
 Alpha  occ. eigenvalues --   -0.52758  -0.52488  -0.52357  -0.52068  -0.51939
 Alpha  occ. eigenvalues --   -0.51584  -0.51321  -0.51025  -0.50875  -0.50452
 Alpha  occ. eigenvalues --   -0.50108  -0.49828  -0.49482  -0.49131  -0.48785
 Alpha  occ. eigenvalues --   -0.48608  -0.48438  -0.48316  -0.47945  -0.47790
 Alpha  occ. eigenvalues --   -0.47482  -0.47234  -0.46833  -0.46430  -0.46358
 Alpha  occ. eigenvalues --   -0.46266  -0.45876  -0.45831  -0.45761  -0.45703
 Alpha  occ. eigenvalues --   -0.45167  -0.44841  -0.44417  -0.44357  -0.43943
 Alpha  occ. eigenvalues --   -0.43793  -0.43082  -0.42890  -0.42765  -0.42167
 Alpha  occ. eigenvalues --   -0.42100  -0.41974  -0.41255  -0.39513  -0.39262
 Alpha  occ. eigenvalues --   -0.38494  -0.37447  -0.35983  -0.35546  -0.34752
 Alpha  occ. eigenvalues --   -0.34341  -0.33094  -0.32648  -0.32318  -0.27663
 Alpha  occ. eigenvalues --   -0.22213
 Alpha virt. eigenvalues --   -0.09199  -0.03006  -0.01275   0.00732   0.01319
 Alpha virt. eigenvalues --    0.01685   0.02150   0.02210   0.04024   0.04583
 Alpha virt. eigenvalues --    0.05675   0.06535   0.06640   0.07253   0.07655

 Mulliken charges:
               1
     1  Mg   0.427543
     2  C   -0.057680
     3  C   -0.071984
     4  C   -0.099707
     5  C   -0.052139
     6  N   -0.280115
     7  C    0.116684
     8  C    0.001847
     9  C    0.022899
    10  C    0.138853
    11  C   -0.047690
    12  C   -0.019885
    13  C    0.014753
    14  C    0.456743
    15  O   -0.521103
    16  O   -0.256332
    17  N   -0.317859
    18  C    0.126100
    19  C    0.042325
    20  C   -0.057648
    21  C    0.133473
    22  C   -0.030446
    23  C    0.331104
    24  O   -0.531027
    25  C   -0.034516
    26  N   -0.280993
    27  C    0.152380
    28  C    0.001593
    29  C    0.014252
    30  C    0.109700
    31  C   -0.057186
    32  C   -0.028669
    33  C   -0.061401
    34  N   -0.317016
    35  C    0.073602
    36  C    0.031961
    37  C   -0.072562
    38  C    0.112240
    39  C   -0.039683
    40  C    0.324399
    41  O   -0.534575
    42  C    0.070179
    43  C    0.498799
    44  O   -0.539538
    45  O   -0.267657
    46  C    0.079192
    47  C    0.113704
    48  C   -0.092782
    49  C   -0.013575
    50  C   -0.050404
    51  C   -0.010508
    52  C   -0.030335
    53  C   -0.047203
    54  C   -0.020900
    55  C   -0.062148
    56  C   -0.031426
    57  C   -0.042857
    58  C   -0.052106
    59  C   -0.014775
    60  C   -0.055529
    61  C   -0.037144
    62  C   -0.036897
    63  C   -0.037094
    64  C   -0.015077
    65  C   -0.053624
    66  C   -0.049747
    67  H    0.028415
    68  H    0.036609
    69  H    0.023088
    70  H    0.049208
    71  H    0.023563
    72  H    0.027817
    73  H    0.019411
    74  H    0.027000
    75  H    0.037996
    76  H    0.023827
    77  H    0.042836
    78  H    0.046838
    79  H    0.049298
    80  H    0.018341
    81  H    0.049434
    82  H    0.039000
    83  H    0.040624
    84  H    0.040201
    85  H    0.032358
    86  H    0.032999
    87  H    0.020157
    88  H    0.024780
    89  H    0.027515
    90  H    0.026544
    91  H    0.016634
    92  H    0.011983
    93  H    0.023018
    94  H    0.013180
    95  H    0.029974
    96  H    0.035966
    97  H    0.015232
    98  H    0.053250
    99  H    0.034653
   100  H    0.054639
   101  H    0.022924
   102  H    0.046281
   103  H    0.048408
   104  H    0.022668
   105  H    0.023406
   106  H    0.030448
   107  H    0.030537
   108  H    0.018307
   109  H    0.016253
   110  H    0.026018
   111  H    0.021433
   112  H    0.020450
   113  H    0.017117
   114  H    0.019668
   115  H    0.020900
   116  H    0.019957
   117  H    0.014871
   118  H    0.035603
   119  H    0.027873
   120  H    0.009524
   121  H    0.027215
   122  H    0.008271
   123  H    0.015580
   124  H    0.032648
   125  H    0.012785
   126  H    0.028116
   127  H    0.015061
   128  H    0.022694
   129  H    0.022116
   130  H    0.014067
   131  H    0.017799
   132  H    0.016577
   133  H    0.013926
   134  H    0.010010
   135  H    0.023414
   136  H    0.018871
   137  H    0.018782
   138  H    0.019137
   139  H    0.013104
   140  H    0.018006
 Sum of Mulliken charges =  -0.00000

 Dipole moment (field-independent basis, Debye):
    X=             -0.7040    Y=             10.2932    Z=             -0.5488  Tot=             10.3319
 N-N= 4.341246352448D+03 E-N= 0.000000000000D+00  KE=-9.356018196455D+03
 Leave Link  601 at Wed May  4 18:01:55 2022, MaxMem=  6710886400 cpu:               0.7 elap:               0.0
 (Enter /sw/apps/gaussian-16.0/g16/l9999.exe)
 1\1\GINC-BP1-COMPUTE155\SP\RZINDO CIS\STO-3G\C55H74Mg1N4O6\OF15641\04-
 May-2022\0\\#p ZINDO=(nstates=5)\\step_201_chromophore_14 ZINDO\\0,1\M
 g,0,45.85,44.769,43.14\C,0,42.43,44.165,43.381\C,0,46.389,41.419,42.64
 \C,0,49.062,45.558,42.157\C,0,45.125,48.214,43.403\N,0,44.571,43.01,43
 .022\C,0,43.222,43.008,43.13\C,0,42.606,41.611,42.907\C,0,43.844,40.76
 6,43.014\C,0,45.041,41.745,42.793\C,0,44.054,39.995,44.333\C,0,41.837,
 41.494,41.556\C,0,42.512,42.098,40.326\C,0,41.891,41.662,38.972\O,0,40

 Normal termination of Gaussian 16 at Wed May  4 18:01:55 2022.
