 Gaussian 16, Revision A.03,
 Gaussian 16:  ES64L-G16RevA.03 25-Dec-2016

 ------------------------------
 #p blyp/Def2SVP td=(nstates=5)
 ------------------------------

 ---------------------------------------------------
 step_1151_chromophore_15 TDDFT with blyp functional
 ---------------------------------------------------
 Symbolic Z-matrix:
 Charge =  0 Multiplicity = 1

                         Standard orientation:
 ---------------------------------------------------------------------
 Center     Atomic      Atomic             Coordinates (Angstroms)
 Number     Number       Type             X           Y           Z
 ---------------------------------------------------------------------
      1         12           0       -4.719942    1.066657    0.145745
      2          6           0       -4.324798   -2.360704    0.866874
      3          6           0       -1.298665    1.346253    0.015017
      4          6           0       -5.054549    4.392140   -0.151250
      5          6           0       -8.160882    0.861565    0.935349
      6          7           0       -3.094722   -0.340689    0.238748
      7          6           0       -3.100602   -1.722628    0.433797
      8          6           0       -1.770151   -2.408050    0.055742
      9          6           0       -0.786107   -1.249707    0.342215
     10          6           0       -1.783255    0.002714    0.123929
     11          6           0       -0.095026   -1.368878    1.717775
     12          6           0       -1.844150   -2.811225   -1.485652
     13          6           0       -1.084966   -4.094818   -1.930722
     14          6           0        0.213047   -4.465308   -1.205389
     15          8           0        0.347813   -5.248645   -0.260077
     16          8           0        1.360507   -3.921002   -1.799098
     17          7           0       -3.323489    2.669631   -0.086753
     18          6           0       -1.990661    2.592647   -0.182483
     19          6           0       -1.489152    3.836425   -0.671180
     20          6           0       -2.573048    4.689713   -0.778571
     21          6           0       -3.730701    3.961271   -0.286207
     22          6           0       -0.080257    4.246028   -0.866692
     23          6           0       -2.648353    6.087643   -1.295744
     24          8           0       -3.696399    6.682317   -1.312872
     25          6           0       -1.461735    6.716451   -1.893579
     26          7           0       -6.426631    2.465144    0.509539
     27          6           0       -6.277762    3.757946    0.198324
     28          6           0       -7.698537    4.464943    0.284309
     29          6           0       -8.707226    3.284242    0.550250
     30          6           0       -7.718848    2.142617    0.679337
     31          6           0       -7.854141    5.604752    1.242066
     32          6           0       -9.776351    3.053470   -0.493486
     33          6           0      -11.245834    2.664529    0.028459
     34          7           0       -6.006353   -0.438987    0.741291
     35          6           0       -7.394441   -0.381247    0.950727
     36          6           0       -7.874450   -1.776609    1.231335
     37          6           0       -6.693434   -2.549309    1.199768
     38          6           0       -5.556411   -1.715230    0.921666
     39          6           0       -9.291939   -2.258648    1.351083
     40          6           0       -6.208931   -3.889690    1.370095
     41          8           0       -6.762558   -4.920490    1.713668
     42          6           0       -4.701461   -3.730579    1.273195
     43          6           0       -4.306655   -4.835595    0.297671
     44          8           0       -4.260261   -4.853768   -0.956695
     45          8           0       -3.889948   -5.778855    1.201590
     46          6           0       -3.306435   -6.831562    0.491905
     47          6           0        2.642207   -4.160644   -1.111788
     48          6           0        3.737962   -3.284508   -1.700691
     49          6           0        5.083923   -3.491217   -1.500613
     50          6           0        5.674907   -4.501089   -0.590277
     51          6           0        6.144171   -2.493896   -2.050961
     52          6           0        5.806120   -0.984265   -2.103521
     53          6           0        6.435037   -0.240420   -3.372758
     54          6           0        7.676981    0.641140   -3.092116
     55          6           0        8.161851    1.364736   -4.401031
     56          6           0        8.876884   -0.136541   -2.388939
     57          6           0        9.326659    0.233909   -1.054558
     58          6           0       10.796910    0.539723   -0.968570
     59          6           0       11.157892    1.642736    0.055833
     60          6           0       11.231678    3.033058   -0.624205
     61          6           0       12.466512    1.156485    0.713602
     62          6           0       12.980605    2.107095    1.837173
     63          6           0       13.390109    1.394264    3.158513
     64          6           0       12.449037    1.684646    4.328222
     65          6           0       13.221847    1.439429    5.654600
     66          6           0       11.153196    0.864113    4.207941
     67          1           0       -0.248871    1.388202   -0.283346
     68          1           0       -5.273036    5.450992   -0.307821
     69          1           0       -9.224869    0.715318    1.130389
     70          1           0       -1.627224   -3.255395    0.726787
     71          1           0       -0.050902   -1.166823   -0.457865
     72          1           0       -0.322271   -2.307043    2.223347
     73          1           0       -0.298102   -0.505826    2.351738
     74          1           0        0.966076   -1.368433    1.467062
     75          1           0       -1.515447   -2.002972   -2.138864
     76          1           0       -2.904569   -2.869440   -1.732406
     77          1           0       -0.849168   -3.883436   -2.973297
     78          1           0       -1.739588   -4.964369   -1.988103
     79          1           0        0.074388    5.145093   -0.270610
     80          1           0        0.343968    4.443558   -1.850389
     81          1           0        0.583671    3.471449   -0.480974
     82          1           0       -0.777992    7.126180   -1.149819
     83          1           0       -1.842082    7.539058   -2.499005
     84          1           0       -1.047959    5.956032   -2.555868
     85          1           0       -7.722408    4.938501   -0.696325
     86          1           0       -9.237250    3.378234    1.498915
     87          1           0       -8.225244    6.468831    0.690338
     88          1           0       -6.862380    5.748895    1.671542
     89          1           0       -8.655616    5.366723    1.941750
     90          1           0       -9.423404    2.252826   -1.143178
     91          1           0       -9.963698    3.950130   -1.083125
     92          1           0      -11.999718    3.416024   -0.206010
     93          1           0      -11.254781    2.566826    1.113744
     94          1           0      -11.431686    1.648822   -0.320934
     95          1           0       -9.448433   -3.033552    0.600209
     96          1           0       -9.966085   -1.403744    1.300291
     97          1           0       -9.419394   -2.724205    2.327731
     98          1           0       -4.203610   -4.031318    2.195306
     99          1           0       -4.079238   -7.338393   -0.086948
    100          1           0       -2.869547   -7.584119    1.146629
    101          1           0       -2.452556   -6.465404   -0.078266
    102          1           0        2.942495   -5.201630   -1.224331
    103          1           0        2.555892   -3.823295   -0.078059
    104          1           0        3.458711   -2.493531   -2.397530
    105          1           0        5.171241   -4.334684    0.361334
    106          1           0        6.697578   -4.310396   -0.268219
    107          1           0        5.537576   -5.551661   -0.846402
    108          1           0        6.577987   -2.797955   -3.002897
    109          1           0        6.989494   -2.513621   -1.362902
    110          1           0        6.369034   -0.591110   -1.256942
    111          1           0        4.723464   -0.924160   -1.992791
    112          1           0        5.655945    0.395862   -3.790728
    113          1           0        6.733319   -0.886975   -4.197634
    114          1           0        7.356170    1.438564   -2.422005
    115          1           0        8.782859    0.785317   -5.084703
    116          1           0        8.731963    2.251593   -4.125648
    117          1           0        7.372710    1.821379   -4.997533
    118          1           0        9.721028   -0.206058   -3.074205
    119          1           0        8.626122   -1.188378   -2.252934
    120          1           0        9.121546   -0.622751   -0.411997
    121          1           0        8.698364    1.017032   -0.629752
    122          1           0       11.129562    0.770914   -1.980714
    123          1           0       11.370110   -0.377252   -0.839223
    124          1           0       10.317076    1.734034    0.744485
    125          1           0       12.228470    3.463458   -0.527739
    126          1           0       10.489906    3.665649   -0.137797
    127          1           0       10.842139    3.068695   -1.641732
    128          1           0       13.146636    1.260829   -0.131672
    129          1           0       12.407860    0.148162    1.124670
    130          1           0       12.208077    2.867071    1.956801
    131          1           0       13.885958    2.550387    1.423044
    132          1           0       14.406856    1.716496    3.384191
    133          1           0       13.455685    0.314410    3.018514
    134          1           0       12.219616    2.729955    4.122763
    135          1           0       12.500719    1.200811    6.437055
    136          1           0       13.711707    2.360667    5.969927
    137          1           0       13.986356    0.692814    5.439216
    138          1           0       10.745412    0.521119    5.159082
    139          1           0       11.096754    0.092339    3.440164
    140          1           0       10.375309    1.540759    3.856637
 ---------------------------------------------------------------------

 SCF Done:  E(RB-LYP) =  -3007.35877044     A.U. after   21 cycles

 Excitation energies and oscillator strengths:

 Excited State   1:      Singlet-A      1.8065 eV  686.31 nm  f=0.3020  <S**2>=0.000
     245 -> 248        0.20777
     246 -> 247        0.68615
     246 <- 247       -0.14610
 This state for optimization and/or second-order correction.
 Total Energy, E(TD-HF/TD-DFT) =  -3007.29238143
 Copying the excited state density for this state as the 1-particle RhoCI density.

 Excited State   2:      Singlet-A      1.9373 eV  639.99 nm  f=0.0120  <S**2>=0.000
     243 -> 247        0.39330
     244 -> 247        0.53713
     245 -> 247       -0.22258

 Excited State   3:      Singlet-A      1.9438 eV  637.86 nm  f=0.0006  <S**2>=0.000
     243 -> 247        0.56487
     244 -> 247       -0.42273

 Excited State   4:      Singlet-A      1.9881 eV  623.62 nm  f=0.0661  <S**2>=0.000
     243 -> 247        0.15794
     244 -> 247        0.17575
     245 -> 247        0.61141
     246 -> 248       -0.24526

 Excited State   5:      Singlet-A      2.3044 eV  538.02 nm  f=0.0000  <S**2>=0.000
     242 -> 247        0.70707

 The electronic state is 1-A.
 Alpha  occ. eigenvalues --  -46.27707 -18.82604 -18.82082 -18.77935 -18.77468
 Alpha  occ. eigenvalues --  -18.75298 -18.75234 -14.03866 -14.02898 -14.00897
 Alpha  occ. eigenvalues --  -14.00873 -10.04880 -10.04268  -9.99152  -9.98821
 Alpha  occ. eigenvalues --   -9.98538  -9.97351  -9.97088  -9.96366  -9.96307
 Alpha  occ. eigenvalues --   -9.96177  -9.95845  -9.95547  -9.95497  -9.94526
 Alpha  occ. eigenvalues --   -9.94471  -9.94384  -9.93999  -9.93922  -9.93625
 Alpha  occ. eigenvalues --   -9.93546  -9.93541  -9.93513  -9.93391  -9.93381
 Alpha  occ. eigenvalues --   -9.92982  -9.92942  -9.92934  -9.92860  -9.92798
 Alpha  occ. eigenvalues --   -9.92748  -9.92507  -9.92500  -9.92346  -9.92342
 Alpha  occ. eigenvalues --   -9.92339  -9.92108  -9.91986  -9.91916  -9.91811
 Alpha  occ. eigenvalues --   -9.91769  -9.91720  -9.91666  -9.91664  -9.91642
 Alpha  occ. eigenvalues --   -9.91264  -9.91084  -9.90988  -9.90934  -9.90812
 Alpha  occ. eigenvalues --   -9.90805  -9.90790  -9.90656  -9.90655  -9.90522
 Alpha  occ. eigenvalues --   -9.90335  -2.92198  -1.72627  -1.72084  -1.71901
 Alpha  occ. eigenvalues --   -0.99150  -0.97143  -0.92625  -0.91247  -0.89959
 Alpha  occ. eigenvalues --   -0.89211  -0.86784  -0.86242  -0.85672  -0.84194
 Alpha  occ. eigenvalues --   -0.75914  -0.73738  -0.73199  -0.72672  -0.72506
 Alpha  occ. eigenvalues --   -0.72164  -0.71676  -0.71082  -0.70910  -0.70059
 Alpha  occ. eigenvalues --   -0.69442  -0.69249  -0.68379  -0.67506  -0.67217
 Alpha  occ. eigenvalues --   -0.66549  -0.66077  -0.65574  -0.65100  -0.64626
 Alpha  occ. eigenvalues --   -0.64319  -0.62626  -0.62546  -0.61816  -0.60499
 Alpha  occ. eigenvalues --   -0.60151  -0.60068  -0.60001  -0.59571  -0.58862
 Alpha  occ. eigenvalues --   -0.58308  -0.57367  -0.56324  -0.55677  -0.54608
 Alpha  occ. eigenvalues --   -0.54018  -0.53750  -0.52799  -0.52596  -0.51661
 Alpha  occ. eigenvalues --   -0.51356  -0.51119  -0.50988  -0.50069  -0.49856
 Alpha  occ. eigenvalues --   -0.49533  -0.49187  -0.48514  -0.48367  -0.46671
 Alpha  occ. eigenvalues --   -0.46269  -0.45905  -0.45689  -0.45119  -0.44186
 Alpha  occ. eigenvalues --   -0.43891  -0.43277  -0.43013  -0.42954  -0.42736
 Alpha  occ. eigenvalues --   -0.42150  -0.42128  -0.41793  -0.41757  -0.41390
 Alpha  occ. eigenvalues --   -0.40989  -0.40820  -0.40647  -0.40367  -0.40163
 Alpha  occ. eigenvalues --   -0.40070  -0.39922  -0.39703  -0.39497  -0.39476
 Alpha  occ. eigenvalues --   -0.39217  -0.39013  -0.38649  -0.38437  -0.38240
 Alpha  occ. eigenvalues --   -0.37932  -0.37851  -0.37653  -0.37565  -0.37396
 Alpha  occ. eigenvalues --   -0.37252  -0.37083  -0.36885  -0.36676  -0.36494
 Alpha  occ. eigenvalues --   -0.36377  -0.36099  -0.35857  -0.35771  -0.35551
 Alpha  occ. eigenvalues --   -0.35485  -0.35242  -0.35151  -0.35042  -0.34585
 Alpha  occ. eigenvalues --   -0.34175  -0.34159  -0.33896  -0.33807  -0.33738
 Alpha  occ. eigenvalues --   -0.33543  -0.33516  -0.33490  -0.33396  -0.33113
 Alpha  occ. eigenvalues --   -0.32913  -0.32864  -0.32763  -0.32604  -0.32121
 Alpha  occ. eigenvalues --   -0.32090  -0.32052  -0.31799  -0.31679  -0.31574
 Alpha  occ. eigenvalues --   -0.31227  -0.31150  -0.31015  -0.30861  -0.30664
 Alpha  occ. eigenvalues --   -0.30535  -0.30483  -0.30227  -0.30071  -0.30015
 Alpha  occ. eigenvalues --   -0.29570  -0.29220  -0.29210  -0.28881  -0.28720
 Alpha  occ. eigenvalues --   -0.28566  -0.28340  -0.28186  -0.27970  -0.27882
 Alpha  occ. eigenvalues --   -0.27517  -0.27493  -0.27266  -0.26627  -0.26452
 Alpha  occ. eigenvalues --   -0.26446  -0.25905  -0.25837  -0.25574  -0.25515
 Alpha  occ. eigenvalues --   -0.25368  -0.25331  -0.24710  -0.23777  -0.23426
 Alpha  occ. eigenvalues --   -0.23393  -0.22446  -0.22107  -0.21804  -0.20780
 Alpha  occ. eigenvalues --   -0.20238  -0.19989  -0.18572  -0.18540  -0.17131
 Alpha  occ. eigenvalues --   -0.15828
 Alpha virt. eigenvalues --   -0.11520  -0.06919  -0.06237  -0.04398  -0.04021
 Alpha virt. eigenvalues --   -0.03202  -0.02659  -0.02566  -0.01662   0.00599
 Alpha virt. eigenvalues --    0.01171   0.01772   0.01869   0.02381   0.02675

 Mulliken charges:
               1
     1  Mg   0.686662
     2  C    0.113512
     3  C   -0.057907
     4  C   -0.025298
     5  C   -0.043573
     6  N   -0.219823
     7  C   -0.093914
     8  C   -0.007603
     9  C   -0.002413
    10  C    0.010833
    11  C    0.154596
    12  C    0.114370
    13  C    0.161000
    14  C    0.094131
    15  O   -0.209375
    16  O   -0.298974
    17  N   -0.257500
    18  C    0.093255
    19  C   -0.116708
    20  C    0.070504
    21  C    0.101063
    22  C    0.160068
    23  C   -0.125066
    24  O   -0.146742
    25  C    0.155851
    26  N   -0.165082
    27  C   -0.045660
    28  C   -0.012853
    29  C    0.064785
    30  C   -0.000875
    31  C    0.156329
    32  C    0.078600
    33  C    0.042525
    34  N   -0.292599
    35  C    0.086152
    36  C   -0.184719
    37  C    0.080666
    38  C    0.044732
    39  C    0.185615
    40  C   -0.041862
    41  O   -0.127927
    42  C   -0.003278
    43  C    0.130162
    44  O   -0.210865
    45  O   -0.231482
    46  C    0.223241
    47  C    0.328909
    48  C   -0.122309
    49  C   -0.150422
    50  C    0.143962
    51  C    0.091213
    52  C    0.083467
    53  C    0.082073
    54  C   -0.033644
    55  C    0.080579
    56  C    0.094845
    57  C    0.095533
    58  C    0.099304
    59  C   -0.093508
    60  C    0.118140
    61  C    0.075384
    62  C    0.093438
    63  C    0.073496
    64  C   -0.087516
    65  C    0.127288
    66  C    0.103497
    67  H   -0.057597
    68  H   -0.045453
    69  H   -0.077065
    70  H   -0.017287
    71  H   -0.030868
    72  H    0.004489
    73  H   -0.000964
    74  H   -0.008238
    75  H   -0.021892
    76  H    0.003769
    77  H   -0.014767
    78  H    0.019507
    79  H   -0.001411
    80  H    0.000966
    81  H   -0.025027
    82  H    0.014984
    83  H   -0.014927
    84  H    0.004137
    85  H   -0.018618
    86  H   -0.020227
    87  H   -0.012996
    88  H    0.004121
    89  H   -0.018275
    90  H   -0.014190
    91  H   -0.016704
    92  H    0.004896
    93  H   -0.015501
    94  H    0.002060
    95  H    0.020987
    96  H   -0.017898
    97  H    0.006277
    98  H    0.013559
    99  H    0.007504
   100  H   -0.006340
   101  H    0.006945
   102  H    0.012879
   103  H    0.010202
   104  H   -0.022225
   105  H   -0.010755
   106  H   -0.016952
   107  H    0.011764
   108  H   -0.009163
   109  H   -0.026128
   110  H   -0.027404
   111  H   -0.021508
   112  H   -0.040128
   113  H   -0.028479
   114  H   -0.040344
   115  H   -0.007282
   116  H   -0.022433
   117  H   -0.027107
   118  H   -0.041280
   119  H   -0.055377
   120  H   -0.041370
   121  H   -0.037175
   122  H   -0.045580
   123  H   -0.048821
   124  H   -0.034163
   125  H   -0.005497
   126  H   -0.026807
   127  H   -0.016321
   128  H   -0.032789
   129  H   -0.019400
   130  H   -0.023551
   131  H   -0.038411
   132  H   -0.042066
   133  H   -0.033910
   134  H   -0.035011
   135  H   -0.019407
   136  H   -0.018930
   137  H   -0.005003
   138  H   -0.019880
   139  H   -0.013557
   140  H   -0.028868
 Sum of Mulliken charges =  -0.00000

 Dipole moment (field-independent basis, Debye):
    X=              3.4067    Y=              3.0099    Z=             -1.0721  Tot=              4.6706
 Quadrupole moment (field-independent basis, Debye-Ang):
   XX=           -382.6940   YY=           -432.4770   ZZ=           -409.9755
   XY=            -25.6222   XZ=              1.3133   YZ=              6.4757

 Normal termination of Gaussian 16 at Wed Apr 27 11:14:03 2022.
