 Gaussian 16, Revision A.03,
 Gaussian 16:  ES64L-G16RevA.03 25-Dec-2016

 -----------------------------------
 #p cam-b3lyp/Def2SVP td=(nstates=5)
 -----------------------------------

 --------------------------------------------------------
 step_1151_chromophore_15 TDDFT with cam-b3lyp functional
 --------------------------------------------------------
 Symbolic Z-matrix:
 Charge =  0 Multiplicity = 1

                         Standard orientation:
 ---------------------------------------------------------------------
 Center     Atomic      Atomic             Coordinates (Angstroms)
 Number     Number       Type             X           Y           Z
 ---------------------------------------------------------------------
      1         12           0       -4.719942    1.066657    0.145745
      2          6           0       -4.324798   -2.360704    0.866874
      3          6           0       -1.298665    1.346253    0.015017
      4          6           0       -5.054549    4.392140   -0.151250
      5          6           0       -8.160882    0.861565    0.935349
      6          7           0       -3.094722   -0.340689    0.238748
      7          6           0       -3.100602   -1.722628    0.433797
      8          6           0       -1.770151   -2.408050    0.055742
      9          6           0       -0.786107   -1.249707    0.342215
     10          6           0       -1.783255    0.002714    0.123929
     11          6           0       -0.095026   -1.368878    1.717775
     12          6           0       -1.844150   -2.811225   -1.485652
     13          6           0       -1.084966   -4.094818   -1.930722
     14          6           0        0.213047   -4.465308   -1.205389
     15          8           0        0.347813   -5.248645   -0.260077
     16          8           0        1.360507   -3.921002   -1.799098
     17          7           0       -3.323489    2.669631   -0.086753
     18          6           0       -1.990661    2.592647   -0.182483
     19          6           0       -1.489152    3.836425   -0.671180
     20          6           0       -2.573048    4.689713   -0.778571
     21          6           0       -3.730701    3.961271   -0.286207
     22          6           0       -0.080257    4.246028   -0.866692
     23          6           0       -2.648353    6.087643   -1.295744
     24          8           0       -3.696399    6.682317   -1.312872
     25          6           0       -1.461735    6.716451   -1.893579
     26          7           0       -6.426631    2.465144    0.509539
     27          6           0       -6.277762    3.757946    0.198324
     28          6           0       -7.698537    4.464943    0.284309
     29          6           0       -8.707226    3.284242    0.550250
     30          6           0       -7.718848    2.142617    0.679337
     31          6           0       -7.854141    5.604752    1.242066
     32          6           0       -9.776351    3.053470   -0.493486
     33          6           0      -11.245834    2.664529    0.028459
     34          7           0       -6.006353   -0.438987    0.741291
     35          6           0       -7.394441   -0.381247    0.950727
     36          6           0       -7.874450   -1.776609    1.231335
     37          6           0       -6.693434   -2.549309    1.199768
     38          6           0       -5.556411   -1.715230    0.921666
     39          6           0       -9.291939   -2.258648    1.351083
     40          6           0       -6.208931   -3.889690    1.370095
     41          8           0       -6.762558   -4.920490    1.713668
     42          6           0       -4.701461   -3.730579    1.273195
     43          6           0       -4.306655   -4.835595    0.297671
     44          8           0       -4.260261   -4.853768   -0.956695
     45          8           0       -3.889948   -5.778855    1.201590
     46          6           0       -3.306435   -6.831562    0.491905
     47          6           0        2.642207   -4.160644   -1.111788
     48          6           0        3.737962   -3.284508   -1.700691
     49          6           0        5.083923   -3.491217   -1.500613
     50          6           0        5.674907   -4.501089   -0.590277
     51          6           0        6.144171   -2.493896   -2.050961
     52          6           0        5.806120   -0.984265   -2.103521
     53          6           0        6.435037   -0.240420   -3.372758
     54          6           0        7.676981    0.641140   -3.092116
     55          6           0        8.161851    1.364736   -4.401031
     56          6           0        8.876884   -0.136541   -2.388939
     57          6           0        9.326659    0.233909   -1.054558
     58          6           0       10.796910    0.539723   -0.968570
     59          6           0       11.157892    1.642736    0.055833
     60          6           0       11.231678    3.033058   -0.624205
     61          6           0       12.466512    1.156485    0.713602
     62          6           0       12.980605    2.107095    1.837173
     63          6           0       13.390109    1.394264    3.158513
     64          6           0       12.449037    1.684646    4.328222
     65          6           0       13.221847    1.439429    5.654600
     66          6           0       11.153196    0.864113    4.207941
     67          1           0       -0.248871    1.388202   -0.283346
     68          1           0       -5.273036    5.450992   -0.307821
     69          1           0       -9.224869    0.715318    1.130389
     70          1           0       -1.627224   -3.255395    0.726787
     71          1           0       -0.050902   -1.166823   -0.457865
     72          1           0       -0.322271   -2.307043    2.223347
     73          1           0       -0.298102   -0.505826    2.351738
     74          1           0        0.966076   -1.368433    1.467062
     75          1           0       -1.515447   -2.002972   -2.138864
     76          1           0       -2.904569   -2.869440   -1.732406
     77          1           0       -0.849168   -3.883436   -2.973297
     78          1           0       -1.739588   -4.964369   -1.988103
     79          1           0        0.074388    5.145093   -0.270610
     80          1           0        0.343968    4.443558   -1.850389
     81          1           0        0.583671    3.471449   -0.480974
     82          1           0       -0.777992    7.126180   -1.149819
     83          1           0       -1.842082    7.539058   -2.499005
     84          1           0       -1.047959    5.956032   -2.555868
     85          1           0       -7.722408    4.938501   -0.696325
     86          1           0       -9.237250    3.378234    1.498915
     87          1           0       -8.225244    6.468831    0.690338
     88          1           0       -6.862380    5.748895    1.671542
     89          1           0       -8.655616    5.366723    1.941750
     90          1           0       -9.423404    2.252826   -1.143178
     91          1           0       -9.963698    3.950130   -1.083125
     92          1           0      -11.999718    3.416024   -0.206010
     93          1           0      -11.254781    2.566826    1.113744
     94          1           0      -11.431686    1.648822   -0.320934
     95          1           0       -9.448433   -3.033552    0.600209
     96          1           0       -9.966085   -1.403744    1.300291
     97          1           0       -9.419394   -2.724205    2.327731
     98          1           0       -4.203610   -4.031318    2.195306
     99          1           0       -4.079238   -7.338393   -0.086948
    100          1           0       -2.869547   -7.584119    1.146629
    101          1           0       -2.452556   -6.465404   -0.078266
    102          1           0        2.942495   -5.201630   -1.224331
    103          1           0        2.555892   -3.823295   -0.078059
    104          1           0        3.458711   -2.493531   -2.397530
    105          1           0        5.171241   -4.334684    0.361334
    106          1           0        6.697578   -4.310396   -0.268219
    107          1           0        5.537576   -5.551661   -0.846402
    108          1           0        6.577987   -2.797955   -3.002897
    109          1           0        6.989494   -2.513621   -1.362902
    110          1           0        6.369034   -0.591110   -1.256942
    111          1           0        4.723464   -0.924160   -1.992791
    112          1           0        5.655945    0.395862   -3.790728
    113          1           0        6.733319   -0.886975   -4.197634
    114          1           0        7.356170    1.438564   -2.422005
    115          1           0        8.782859    0.785317   -5.084703
    116          1           0        8.731963    2.251593   -4.125648
    117          1           0        7.372710    1.821379   -4.997533
    118          1           0        9.721028   -0.206058   -3.074205
    119          1           0        8.626122   -1.188378   -2.252934
    120          1           0        9.121546   -0.622751   -0.411997
    121          1           0        8.698364    1.017032   -0.629752
    122          1           0       11.129562    0.770914   -1.980714
    123          1           0       11.370110   -0.377252   -0.839223
    124          1           0       10.317076    1.734034    0.744485
    125          1           0       12.228470    3.463458   -0.527739
    126          1           0       10.489906    3.665649   -0.137797
    127          1           0       10.842139    3.068695   -1.641732
    128          1           0       13.146636    1.260829   -0.131672
    129          1           0       12.407860    0.148162    1.124670
    130          1           0       12.208077    2.867071    1.956801
    131          1           0       13.885958    2.550387    1.423044
    132          1           0       14.406856    1.716496    3.384191
    133          1           0       13.455685    0.314410    3.018514
    134          1           0       12.219616    2.729955    4.122763
    135          1           0       12.500719    1.200811    6.437055
    136          1           0       13.711707    2.360667    5.969927
    137          1           0       13.986356    0.692814    5.439216
    138          1           0       10.745412    0.521119    5.159082
    139          1           0       11.096754    0.092339    3.440164
    140          1           0       10.375309    1.540759    3.856637
 ---------------------------------------------------------------------

 SCF Done:  E(RCAM-B3LYP) =  -3007.15343655     A.U. after   19 cycles

 Excitation energies and oscillator strengths:

 Excited State   1:      Singlet-A      1.6978 eV  730.26 nm  f=0.3764  <S**2>=0.000
     245 -> 248        0.18916
     246 -> 247        0.68330
     245 <- 248        0.11093
 This state for optimization and/or second-order correction.
 Total Energy, E(TD-HF/TD-DFT) =  -3007.09104357
 Copying the excited state density for this state as the 1-particle RhoCI density.

 Excited State   2:      Singlet-A      2.1975 eV  564.20 nm  f=0.1036  <S**2>=0.000
     245 -> 247        0.63802
     246 -> 248       -0.29451

 Excited State   3:      Singlet-A      3.4027 eV  364.36 nm  f=0.0078  <S**2>=0.000
     242 -> 247       -0.23141
     244 -> 247        0.64239

 Excited State   4:      Singlet-A      3.4695 eV  357.36 nm  f=0.3753  <S**2>=0.000
     242 -> 247        0.35248
     244 -> 247        0.15493
     245 -> 247        0.20788
     246 -> 248        0.53086

 Excited State   5:      Singlet-A      3.5329 eV  350.94 nm  f=0.0694  <S**2>=0.000
     241 -> 247        0.50521
     241 -> 249       -0.30321
     241 -> 251        0.16555
     242 -> 247        0.22770
     246 -> 248       -0.16924

 The electronic state is 1-A.
 Alpha  occ. eigenvalues --  -46.89282 -19.25517 -19.24882 -19.21023 -19.20462
 Alpha  occ. eigenvalues --  -19.18661 -19.18415 -14.42741 -14.41814 -14.39395
 Alpha  occ. eigenvalues --  -14.39276 -10.40238 -10.39828 -10.34432 -10.34021
 Alpha  occ. eigenvalues --  -10.32533 -10.31933 -10.31765 -10.30945 -10.30479
 Alpha  occ. eigenvalues --  -10.30039 -10.30036 -10.30025 -10.29997 -10.28615
 Alpha  occ. eigenvalues --  -10.28593 -10.28575 -10.28333 -10.28080 -10.27946
 Alpha  occ. eigenvalues --  -10.27738 -10.27685 -10.27536 -10.27392 -10.27355
 Alpha  occ. eigenvalues --  -10.27112 -10.27079 -10.27053 -10.26973 -10.26641
 Alpha  occ. eigenvalues --  -10.26437 -10.26365 -10.26332 -10.26244 -10.26198
 Alpha  occ. eigenvalues --  -10.26138 -10.26000 -10.25970 -10.25835 -10.25768
 Alpha  occ. eigenvalues --  -10.25681 -10.25529 -10.25503 -10.25413 -10.25302
 Alpha  occ. eigenvalues --  -10.24949 -10.24715 -10.24709 -10.24608 -10.24535
 Alpha  occ. eigenvalues --  -10.24520 -10.24489 -10.24386 -10.24357 -10.24136
 Alpha  occ. eigenvalues --  -10.24013  -3.17671  -1.92581  -1.92127  -1.91965
 Alpha  occ. eigenvalues --   -1.17644  -1.15524  -1.11290  -1.09590  -1.07930
 Alpha  occ. eigenvalues --   -1.06977  -1.04580  -1.03956  -1.03335  -1.01613
 Alpha  occ. eigenvalues --   -0.93008  -0.90641  -0.90039  -0.89374  -0.89255
 Alpha  occ. eigenvalues --   -0.88900  -0.88536  -0.87829  -0.87528  -0.86599
 Alpha  occ. eigenvalues --   -0.85890  -0.85608  -0.84685  -0.83634  -0.83361
 Alpha  occ. eigenvalues --   -0.82585  -0.82463  -0.81514  -0.80943  -0.80487
 Alpha  occ. eigenvalues --   -0.80187  -0.78453  -0.78185  -0.77291  -0.75885
 Alpha  occ. eigenvalues --   -0.75501  -0.75430  -0.75333  -0.74866  -0.74128
 Alpha  occ. eigenvalues --   -0.73323  -0.72339  -0.71200  -0.70463  -0.69216
 Alpha  occ. eigenvalues --   -0.68684  -0.68493  -0.67258  -0.67032  -0.65752
 Alpha  occ. eigenvalues --   -0.65493  -0.65358  -0.65064  -0.64079  -0.63924
 Alpha  occ. eigenvalues --   -0.63214  -0.63161  -0.62432  -0.62218  -0.60417
 Alpha  occ. eigenvalues --   -0.59890  -0.59550  -0.59156  -0.58437  -0.57575
 Alpha  occ. eigenvalues --   -0.57356  -0.56697  -0.56378  -0.56119  -0.55933
 Alpha  occ. eigenvalues --   -0.55408  -0.55118  -0.54806  -0.54581  -0.54292
 Alpha  occ. eigenvalues --   -0.54058  -0.53880  -0.53344  -0.53146  -0.52919
 Alpha  occ. eigenvalues --   -0.52810  -0.52638  -0.52401  -0.52061  -0.52004
 Alpha  occ. eigenvalues --   -0.51875  -0.51392  -0.51075  -0.50900  -0.50627
 Alpha  occ. eigenvalues --   -0.50557  -0.50390  -0.50149  -0.49982  -0.49750
 Alpha  occ. eigenvalues --   -0.49502  -0.49311  -0.49150  -0.49025  -0.48827
 Alpha  occ. eigenvalues --   -0.48762  -0.48464  -0.48243  -0.48126  -0.47699
 Alpha  occ. eigenvalues --   -0.47476  -0.47406  -0.47346  -0.47029  -0.46387
 Alpha  occ. eigenvalues --   -0.46153  -0.45900  -0.45754  -0.45561  -0.45534
 Alpha  occ. eigenvalues --   -0.45434  -0.45248  -0.45221  -0.45177  -0.44744
 Alpha  occ. eigenvalues --   -0.44737  -0.44594  -0.44492  -0.44198  -0.43846
 Alpha  occ. eigenvalues --   -0.43748  -0.43517  -0.43467  -0.43247  -0.43001
 Alpha  occ. eigenvalues --   -0.42928  -0.42815  -0.42696  -0.42503  -0.42122
 Alpha  occ. eigenvalues --   -0.41934  -0.41829  -0.41660  -0.41488  -0.41468
 Alpha  occ. eigenvalues --   -0.41084  -0.40524  -0.40309  -0.40007  -0.39876
 Alpha  occ. eigenvalues --   -0.39661  -0.39441  -0.39167  -0.38955  -0.38870
 Alpha  occ. eigenvalues --   -0.38518  -0.38321  -0.38087  -0.37453  -0.37272
 Alpha  occ. eigenvalues --   -0.37230  -0.37221  -0.37054  -0.36829  -0.36544
 Alpha  occ. eigenvalues --   -0.36219  -0.35958  -0.35246  -0.34885  -0.34324
 Alpha  occ. eigenvalues --   -0.34048  -0.33880  -0.32747  -0.31409  -0.30953
 Alpha  occ. eigenvalues --   -0.30606  -0.30210  -0.29568  -0.29404  -0.23856
 Alpha  occ. eigenvalues --   -0.21107
 Alpha virt. eigenvalues --   -0.08614  -0.01847   0.00252   0.02358   0.02555
 Alpha virt. eigenvalues --    0.03853   0.04571   0.04862   0.05392   0.06725
 Alpha virt. eigenvalues --    0.07984   0.08242   0.08382   0.08851   0.08931

 Mulliken charges:
               1
     1  Mg   0.817874
     2  C    0.071939
     3  C   -0.068327
     4  C   -0.047997
     5  C   -0.049508
     6  N   -0.289150
     7  C   -0.045203
     8  C   -0.063930
     9  C   -0.049542
    10  C    0.028851
    11  C    0.096823
    12  C    0.066723
    13  C    0.092718
    14  C    0.169589
    15  O   -0.249214
    16  O   -0.363841
    17  N   -0.344736
    18  C    0.103423
    19  C   -0.122043
    20  C   -0.002132
    21  C    0.124741
    22  C    0.098693
    23  C   -0.036594
    24  O   -0.187747
    25  C    0.066926
    26  N   -0.235992
    27  C   -0.019587
    28  C   -0.061109
    29  C    0.008887
    30  C    0.014627
    31  C    0.093842
    32  C    0.020406
    33  C   -0.017418
    34  N   -0.380674
    35  C    0.090686
    36  C   -0.180147
    37  C   -0.000503
    38  C    0.081977
    39  C    0.137108
    40  C    0.054793
    41  O   -0.166714
    42  C   -0.069327
    43  C    0.212567
    44  O   -0.250229
    45  O   -0.291394
    46  C    0.178739
    47  C    0.299219
    48  C   -0.142903
    49  C   -0.167720
    50  C    0.071337
    51  C    0.043509
    52  C    0.023915
    53  C    0.033935
    54  C   -0.090028
    55  C    0.025215
    56  C    0.033875
    57  C    0.042232
    58  C    0.047207
    59  C   -0.144966
    60  C    0.057824
    61  C    0.022365
    62  C    0.036975
    63  C    0.018773
    64  C   -0.144910
    65  C    0.066321
    66  C    0.042264
    67  H   -0.026955
    68  H   -0.004712
    69  H   -0.042295
    70  H    0.016755
    71  H    0.004099
    72  H    0.028870
    73  H    0.025679
    74  H    0.014722
    75  H    0.007707
    76  H    0.038509
    77  H    0.021833
    78  H    0.049973
    79  H    0.024969
    80  H    0.029739
    81  H    0.004894
    82  H    0.044647
    83  H    0.022694
    84  H    0.030905
    85  H    0.015586
    86  H    0.014492
    87  H    0.012337
    88  H    0.028857
    89  H    0.007243
    90  H    0.016621
    91  H    0.012127
    92  H    0.028860
    93  H    0.005899
    94  H    0.024122
    95  H    0.046013
    96  H    0.004617
    97  H    0.032916
    98  H    0.058716
    99  H    0.031960
   100  H    0.020201
   101  H    0.025851
   102  H    0.038857
   103  H    0.035285
   104  H    0.012107
   105  H    0.014490
   106  H    0.011350
   107  H    0.037001
   108  H    0.018813
   109  H   -0.001641
   110  H   -0.000209
   111  H    0.006611
   112  H   -0.009917
   113  H   -0.001542
   114  H   -0.009020
   115  H    0.015517
   116  H    0.001272
   117  H   -0.001451
   118  H   -0.010762
   119  H   -0.025400
   120  H   -0.012873
   121  H   -0.009838
   122  H   -0.016919
   123  H   -0.017121
   124  H   -0.004951
   125  H    0.017809
   126  H   -0.002146
   127  H    0.007542
   128  H   -0.003980
   129  H    0.006917
   130  H    0.002515
   131  H   -0.007719
   132  H   -0.010419
   133  H   -0.006372
   134  H   -0.003382
   135  H    0.004782
   136  H    0.006035
   137  H    0.017601
   138  H    0.005606
   139  H    0.008815
   140  H   -0.005027
 Sum of Mulliken charges =  -0.00000

 Dipole moment (field-independent basis, Debye):
    X=              3.8646    Y=              3.7068    Z=             -1.3788  Tot=              5.5296
 Quadrupole moment (field-independent basis, Debye-Ang):
   XX=           -383.1539   YY=           -429.2115   ZZ=           -410.1004
   XY=            -27.1103   XZ=              1.3942   YZ=              5.2812

 Normal termination of Gaussian 16 at Wed Apr 27 10:18:10 2022.
