 Gaussian 16, Revision A.03,
 Gaussian 16:  ES64L-G16RevA.03 25-Dec-2016

 ---------------------------------
 #p PBE1PBE/Def2SVP td=(nstates=5)
 ---------------------------------

 ------------------------------------------------------
 step_1151_chromophore_15 TDDFT with PBE1PBE functional
 ------------------------------------------------------
 Symbolic Z-matrix:
 Charge =  0 Multiplicity = 1

                         Standard orientation:
 ---------------------------------------------------------------------
 Center     Atomic      Atomic             Coordinates (Angstroms)
 Number     Number       Type             X           Y           Z
 ---------------------------------------------------------------------
      1         12           0       -4.719942    1.066657    0.145745
      2          6           0       -4.324798   -2.360704    0.866874
      3          6           0       -1.298665    1.346253    0.015017
      4          6           0       -5.054549    4.392140   -0.151250
      5          6           0       -8.160882    0.861565    0.935349
      6          7           0       -3.094722   -0.340689    0.238748
      7          6           0       -3.100602   -1.722628    0.433797
      8          6           0       -1.770151   -2.408050    0.055742
      9          6           0       -0.786107   -1.249707    0.342215
     10          6           0       -1.783255    0.002714    0.123929
     11          6           0       -0.095026   -1.368878    1.717775
     12          6           0       -1.844150   -2.811225   -1.485652
     13          6           0       -1.084966   -4.094818   -1.930722
     14          6           0        0.213047   -4.465308   -1.205389
     15          8           0        0.347813   -5.248645   -0.260077
     16          8           0        1.360507   -3.921002   -1.799098
     17          7           0       -3.323489    2.669631   -0.086753
     18          6           0       -1.990661    2.592647   -0.182483
     19          6           0       -1.489152    3.836425   -0.671180
     20          6           0       -2.573048    4.689713   -0.778571
     21          6           0       -3.730701    3.961271   -0.286207
     22          6           0       -0.080257    4.246028   -0.866692
     23          6           0       -2.648353    6.087643   -1.295744
     24          8           0       -3.696399    6.682317   -1.312872
     25          6           0       -1.461735    6.716451   -1.893579
     26          7           0       -6.426631    2.465144    0.509539
     27          6           0       -6.277762    3.757946    0.198324
     28          6           0       -7.698537    4.464943    0.284309
     29          6           0       -8.707226    3.284242    0.550250
     30          6           0       -7.718848    2.142617    0.679337
     31          6           0       -7.854141    5.604752    1.242066
     32          6           0       -9.776351    3.053470   -0.493486
     33          6           0      -11.245834    2.664529    0.028459
     34          7           0       -6.006353   -0.438987    0.741291
     35          6           0       -7.394441   -0.381247    0.950727
     36          6           0       -7.874450   -1.776609    1.231335
     37          6           0       -6.693434   -2.549309    1.199768
     38          6           0       -5.556411   -1.715230    0.921666
     39          6           0       -9.291939   -2.258648    1.351083
     40          6           0       -6.208931   -3.889690    1.370095
     41          8           0       -6.762558   -4.920490    1.713668
     42          6           0       -4.701461   -3.730579    1.273195
     43          6           0       -4.306655   -4.835595    0.297671
     44          8           0       -4.260261   -4.853768   -0.956695
     45          8           0       -3.889948   -5.778855    1.201590
     46          6           0       -3.306435   -6.831562    0.491905
     47          6           0        2.642207   -4.160644   -1.111788
     48          6           0        3.737962   -3.284508   -1.700691
     49          6           0        5.083923   -3.491217   -1.500613
     50          6           0        5.674907   -4.501089   -0.590277
     51          6           0        6.144171   -2.493896   -2.050961
     52          6           0        5.806120   -0.984265   -2.103521
     53          6           0        6.435037   -0.240420   -3.372758
     54          6           0        7.676981    0.641140   -3.092116
     55          6           0        8.161851    1.364736   -4.401031
     56          6           0        8.876884   -0.136541   -2.388939
     57          6           0        9.326659    0.233909   -1.054558
     58          6           0       10.796910    0.539723   -0.968570
     59          6           0       11.157892    1.642736    0.055833
     60          6           0       11.231678    3.033058   -0.624205
     61          6           0       12.466512    1.156485    0.713602
     62          6           0       12.980605    2.107095    1.837173
     63          6           0       13.390109    1.394264    3.158513
     64          6           0       12.449037    1.684646    4.328222
     65          6           0       13.221847    1.439429    5.654600
     66          6           0       11.153196    0.864113    4.207941
     67          1           0       -0.248871    1.388202   -0.283346
     68          1           0       -5.273036    5.450992   -0.307821
     69          1           0       -9.224869    0.715318    1.130389
     70          1           0       -1.627224   -3.255395    0.726787
     71          1           0       -0.050902   -1.166823   -0.457865
     72          1           0       -0.322271   -2.307043    2.223347
     73          1           0       -0.298102   -0.505826    2.351738
     74          1           0        0.966076   -1.368433    1.467062
     75          1           0       -1.515447   -2.002972   -2.138864
     76          1           0       -2.904569   -2.869440   -1.732406
     77          1           0       -0.849168   -3.883436   -2.973297
     78          1           0       -1.739588   -4.964369   -1.988103
     79          1           0        0.074388    5.145093   -0.270610
     80          1           0        0.343968    4.443558   -1.850389
     81          1           0        0.583671    3.471449   -0.480974
     82          1           0       -0.777992    7.126180   -1.149819
     83          1           0       -1.842082    7.539058   -2.499005
     84          1           0       -1.047959    5.956032   -2.555868
     85          1           0       -7.722408    4.938501   -0.696325
     86          1           0       -9.237250    3.378234    1.498915
     87          1           0       -8.225244    6.468831    0.690338
     88          1           0       -6.862380    5.748895    1.671542
     89          1           0       -8.655616    5.366723    1.941750
     90          1           0       -9.423404    2.252826   -1.143178
     91          1           0       -9.963698    3.950130   -1.083125
     92          1           0      -11.999718    3.416024   -0.206010
     93          1           0      -11.254781    2.566826    1.113744
     94          1           0      -11.431686    1.648822   -0.320934
     95          1           0       -9.448433   -3.033552    0.600209
     96          1           0       -9.966085   -1.403744    1.300291
     97          1           0       -9.419394   -2.724205    2.327731
     98          1           0       -4.203610   -4.031318    2.195306
     99          1           0       -4.079238   -7.338393   -0.086948
    100          1           0       -2.869547   -7.584119    1.146629
    101          1           0       -2.452556   -6.465404   -0.078266
    102          1           0        2.942495   -5.201630   -1.224331
    103          1           0        2.555892   -3.823295   -0.078059
    104          1           0        3.458711   -2.493531   -2.397530
    105          1           0        5.171241   -4.334684    0.361334
    106          1           0        6.697578   -4.310396   -0.268219
    107          1           0        5.537576   -5.551661   -0.846402
    108          1           0        6.577987   -2.797955   -3.002897
    109          1           0        6.989494   -2.513621   -1.362902
    110          1           0        6.369034   -0.591110   -1.256942
    111          1           0        4.723464   -0.924160   -1.992791
    112          1           0        5.655945    0.395862   -3.790728
    113          1           0        6.733319   -0.886975   -4.197634
    114          1           0        7.356170    1.438564   -2.422005
    115          1           0        8.782859    0.785317   -5.084703
    116          1           0        8.731963    2.251593   -4.125648
    117          1           0        7.372710    1.821379   -4.997533
    118          1           0        9.721028   -0.206058   -3.074205
    119          1           0        8.626122   -1.188378   -2.252934
    120          1           0        9.121546   -0.622751   -0.411997
    121          1           0        8.698364    1.017032   -0.629752
    122          1           0       11.129562    0.770914   -1.980714
    123          1           0       11.370110   -0.377252   -0.839223
    124          1           0       10.317076    1.734034    0.744485
    125          1           0       12.228470    3.463458   -0.527739
    126          1           0       10.489906    3.665649   -0.137797
    127          1           0       10.842139    3.068695   -1.641732
    128          1           0       13.146636    1.260829   -0.131672
    129          1           0       12.407860    0.148162    1.124670
    130          1           0       12.208077    2.867071    1.956801
    131          1           0       13.885958    2.550387    1.423044
    132          1           0       14.406856    1.716496    3.384191
    133          1           0       13.455685    0.314410    3.018514
    134          1           0       12.219616    2.729955    4.122763
    135          1           0       12.500719    1.200811    6.437055
    136          1           0       13.711707    2.360667    5.969927
    137          1           0       13.986356    0.692814    5.439216
    138          1           0       10.745412    0.521119    5.159082
    139          1           0       11.096754    0.092339    3.440164
    140          1           0       10.375309    1.540759    3.856637
 ---------------------------------------------------------------------

 SCF Done:  E(RPBE1PBE) =  -3005.34372174     A.U. after   15 cycles

 Excitation energies and oscillator strengths:

 Excited State   1:      Singlet-A      1.8539 eV  668.79 nm  f=0.3667  <S**2>=0.000
     245 -> 248        0.18325
     246 -> 247        0.69017
     246 <- 247       -0.10354
 This state for optimization and/or second-order correction.
 Total Energy, E(TD-HF/TD-DFT) =  -3005.27559334
 Copying the excited state density for this state as the 1-particle RhoCI density.

 Excited State   2:      Singlet-A      2.2009 eV  563.34 nm  f=0.1033  <S**2>=0.000
     245 -> 247        0.65071
     246 -> 248       -0.26767

 Excited State   3:      Singlet-A      2.9796 eV  416.11 nm  f=0.0030  <S**2>=0.000
     240 -> 247       -0.11076
     241 -> 247       -0.13539
     242 -> 247        0.34492
     242 -> 249       -0.12543
     243 -> 247        0.56165

 Excited State   4:      Singlet-A      3.0671 eV  404.24 nm  f=0.0004  <S**2>=0.000
     240 -> 247       -0.13649
     241 -> 247        0.48609
     241 -> 249        0.12354
     242 -> 247        0.42284
     243 -> 247       -0.18195

 Excited State   5:      Singlet-A      3.0825 eV  402.22 nm  f=0.0007  <S**2>=0.000
     240 -> 247       -0.10805
     241 -> 247        0.42702
     242 -> 247       -0.39667
     243 -> 247        0.35295

 The electronic state is 1-A.
 Alpha  occ. eigenvalues --  -46.92684 -19.26219 -19.25608 -19.21316 -19.20758
 Alpha  occ. eigenvalues --  -19.18743 -19.18720 -14.42321 -14.41230 -14.39010
 Alpha  occ. eigenvalues --  -14.38977 -10.37335 -10.36915 -10.31412 -10.31215
 Alpha  occ. eigenvalues --  -10.29972 -10.29790 -10.29458 -10.28615 -10.28413
 Alpha  occ. eigenvalues --  -10.27839 -10.27580 -10.27565 -10.27255 -10.26461
 Alpha  occ. eigenvalues --  -10.26380 -10.26359 -10.26136 -10.25581 -10.25550
 Alpha  occ. eigenvalues --  -10.25494 -10.25426 -10.25240 -10.25234 -10.25145
 Alpha  occ. eigenvalues --  -10.24777 -10.24773 -10.24696 -10.24359 -10.24305
 Alpha  occ. eigenvalues --  -10.24103 -10.23963 -10.23910 -10.23782 -10.23633
 Alpha  occ. eigenvalues --  -10.23629 -10.23493 -10.23376 -10.23347 -10.23270
 Alpha  occ. eigenvalues --  -10.23230 -10.23159 -10.23025 -10.22993 -10.22737
 Alpha  occ. eigenvalues --  -10.22461 -10.22368 -10.22271 -10.22107 -10.22066
 Alpha  occ. eigenvalues --  -10.22051 -10.21919 -10.21914 -10.21757 -10.21633
 Alpha  occ. eigenvalues --  -10.21582  -3.14658  -1.87508  -1.87032  -1.86873
 Alpha  occ. eigenvalues --   -1.12479  -1.10349  -1.05904  -1.04398  -1.02747
 Alpha  occ. eigenvalues --   -1.01872  -0.99170  -0.98566  -0.97959  -0.96352
 Alpha  occ. eigenvalues --   -0.87461  -0.84738  -0.84185  -0.83669  -0.83490
 Alpha  occ. eigenvalues --   -0.83007  -0.82726  -0.82096  -0.81640  -0.80916
 Alpha  occ. eigenvalues --   -0.80255  -0.79852  -0.78853  -0.77984  -0.77629
 Alpha  occ. eigenvalues --   -0.76801  -0.76542  -0.75829  -0.75169  -0.74682
 Alpha  occ. eigenvalues --   -0.74502  -0.72715  -0.72465  -0.71621  -0.69951
 Alpha  occ. eigenvalues --   -0.69791  -0.69600  -0.69550  -0.69241  -0.68310
 Alpha  occ. eigenvalues --   -0.67669  -0.66810  -0.65638  -0.64805  -0.63571
 Alpha  occ. eigenvalues --   -0.62976  -0.62821  -0.61749  -0.61282  -0.60138
 Alpha  occ. eigenvalues --   -0.59960  -0.59638  -0.59535  -0.58649  -0.58086
 Alpha  occ. eigenvalues --   -0.57758  -0.57296  -0.56809  -0.56642  -0.54880
 Alpha  occ. eigenvalues --   -0.54363  -0.54072  -0.53669  -0.53057  -0.52133
 Alpha  occ. eigenvalues --   -0.51911  -0.51191  -0.50923  -0.50514  -0.50486
 Alpha  occ. eigenvalues --   -0.50023  -0.49541  -0.49446  -0.48948  -0.48844
 Alpha  occ. eigenvalues --   -0.48545  -0.48092  -0.47792  -0.47732  -0.47460
 Alpha  occ. eigenvalues --   -0.47413  -0.47134  -0.46953  -0.46619  -0.46507
 Alpha  occ. eigenvalues --   -0.46487  -0.45868  -0.45675  -0.45513  -0.45299
 Alpha  occ. eigenvalues --   -0.45163  -0.44977  -0.44684  -0.44523  -0.44347
 Alpha  occ. eigenvalues --   -0.44118  -0.43949  -0.43703  -0.43654  -0.43401
 Alpha  occ. eigenvalues --   -0.43304  -0.43118  -0.42920  -0.42744  -0.42299
 Alpha  occ. eigenvalues --   -0.42152  -0.42081  -0.42050  -0.41701  -0.41072
 Alpha  occ. eigenvalues --   -0.40887  -0.40555  -0.40540  -0.40327  -0.40167
 Alpha  occ. eigenvalues --   -0.40140  -0.40000  -0.39831  -0.39733  -0.39572
 Alpha  occ. eigenvalues --   -0.39482  -0.39371  -0.39146  -0.39000  -0.38675
 Alpha  occ. eigenvalues --   -0.38547  -0.38231  -0.38157  -0.38058  -0.37723
 Alpha  occ. eigenvalues --   -0.37665  -0.37596  -0.37467  -0.37254  -0.36973
 Alpha  occ. eigenvalues --   -0.36809  -0.36546  -0.36491  -0.36370  -0.36249
 Alpha  occ. eigenvalues --   -0.35962  -0.35421  -0.35083  -0.34841  -0.34691
 Alpha  occ. eigenvalues --   -0.34609  -0.34383  -0.33959  -0.33868  -0.33702
 Alpha  occ. eigenvalues --   -0.33457  -0.33118  -0.32901  -0.32312  -0.32302
 Alpha  occ. eigenvalues --   -0.32249  -0.32031  -0.31973  -0.31791  -0.31435
 Alpha  occ. eigenvalues --   -0.31321  -0.30812  -0.30118  -0.29866  -0.29270
 Alpha  occ. eigenvalues --   -0.29151  -0.28828  -0.28301  -0.26923  -0.25866
 Alpha  occ. eigenvalues --   -0.25636  -0.25527  -0.25057  -0.24876  -0.20804
 Alpha  occ. eigenvalues --   -0.18759
 Alpha virt. eigenvalues --   -0.11101  -0.05326  -0.03970  -0.01833  -0.00876
 Alpha virt. eigenvalues --   -0.00353  -0.00061   0.00375   0.01077   0.03652
 Alpha virt. eigenvalues --    0.03750   0.04670   0.04790   0.05316   0.05603

 Mulliken charges:
               1
     1  Mg   0.963190
     2  C    0.054710
     3  C   -0.060142
     4  C   -0.049419
     5  C   -0.047671
     6  N   -0.384493
     7  C    0.028491
     8  C   -0.139903
     9  C   -0.119015
    10  C    0.060656
    11  C    0.041817
    12  C    0.027168
    13  C    0.017727
    14  C    0.232213
    15  O   -0.281512
    16  O   -0.394605
    17  N   -0.458897
    18  C    0.130010
    19  C   -0.153814
    20  C   -0.061996
    21  C    0.159511
    22  C    0.040930
    23  C    0.024706
    24  O   -0.227274
    25  C   -0.010443
    26  N   -0.342963
    27  C    0.022056
    28  C   -0.130335
    29  C   -0.069324
    30  C    0.051214
    31  C    0.033842
    32  C   -0.036806
    33  C   -0.089219
    34  N   -0.505801
    35  C    0.121198
    36  C   -0.193557
    37  C   -0.047515
    38  C    0.133725
    39  C    0.081835
    40  C    0.142371
    41  O   -0.213782
    42  C   -0.171025
    43  C    0.292525
    44  O   -0.284159
    45  O   -0.322127
    46  C    0.119605
    47  C    0.260150
    48  C   -0.159036
    49  C   -0.203565
    50  C    0.006099
    51  C   -0.013638
    52  C   -0.050096
    53  C   -0.016837
    54  C   -0.181241
    55  C   -0.034971
    56  C   -0.018708
    57  C   -0.019646
    58  C   -0.003703
    59  C   -0.233619
    60  C    0.000775
    61  C   -0.035863
    62  C   -0.023549
    63  C   -0.035702
    64  C   -0.240047
    65  C    0.001044
    66  C   -0.014069
    67  H    0.005368
    68  H    0.027427
    69  H   -0.005998
    70  H    0.054038
    71  H    0.039611
    72  H    0.054809
    73  H    0.052913
    74  H    0.042203
    75  H    0.039240
    76  H    0.071309
    77  H    0.055326
    78  H    0.080952
    79  H    0.053548
    80  H    0.055449
    81  H    0.033017
    82  H    0.070770
    83  H    0.050465
    84  H    0.057992
    85  H    0.052292
    86  H    0.051422
    87  H    0.039673
    88  H    0.056594
    89  H    0.034743
    90  H    0.049818
    91  H    0.045829
    92  H    0.056169
    93  H    0.032314
    94  H    0.051225
    95  H    0.073197
    96  H    0.032648
    97  H    0.061187
    98  H    0.095508
    99  H    0.055130
   100  H    0.043532
   101  H    0.051635
   102  H    0.065190
   103  H    0.062376
   104  H    0.041962
   105  H    0.042791
   106  H    0.037170
   107  H    0.063528
   108  H    0.050950
   109  H    0.030320
   110  H    0.037443
   111  H    0.038278
   112  H    0.023420
   113  H    0.030557
   114  H    0.029248
   115  H    0.042154
   116  H    0.030490
   117  H    0.026374
   118  H    0.020890
   119  H    0.011951
   120  H    0.021199
   121  H    0.021077
   122  H    0.015328
   123  H    0.015138
   124  H    0.033423
   125  H    0.044606
   126  H    0.025166
   127  H    0.035224
   128  H    0.030610
   129  H    0.037894
   130  H    0.034174
   131  H    0.025544
   132  H    0.023088
   133  H    0.025750
   134  H    0.035099
   135  H    0.032413
   136  H    0.034752
   137  H    0.044692
   138  H    0.032514
   139  H    0.035783
   140  H    0.022592
 Sum of Mulliken charges =  -0.00000

 Dipole moment (field-independent basis, Debye):
    X=              3.7249    Y=              3.5074    Z=             -1.3563  Tot=              5.2930
 Quadrupole moment (field-independent basis, Debye-Ang):
   XX=           -376.3484   YY=           -426.7674   ZZ=           -407.7650
   XY=            -27.0718   XZ=              1.0142   YZ=              5.0931

 Normal termination of Gaussian 16 at Wed Apr 27 10:34:19 2022.
