 Gaussian 16, Revision A.03,
 Gaussian 16:  ES64L-G16RevA.03 25-Dec-2016

 --------------------------------
 #p wB97XD/Def2SVP td=(nstates=5)
 --------------------------------

 -----------------------------------------------------
 step_1151_chromophore_15 TDDFT with wB97XD functional
 -----------------------------------------------------
 Symbolic Z-matrix:
 Charge =  0 Multiplicity = 1

                         Standard orientation:
 ---------------------------------------------------------------------
 Center     Atomic      Atomic             Coordinates (Angstroms)
 Number     Number       Type             X           Y           Z
 ---------------------------------------------------------------------
      1         12           0       -4.719942    1.066657    0.145745
      2          6           0       -4.324798   -2.360704    0.866874
      3          6           0       -1.298665    1.346253    0.015017
      4          6           0       -5.054549    4.392140   -0.151250
      5          6           0       -8.160882    0.861565    0.935349
      6          7           0       -3.094722   -0.340689    0.238748
      7          6           0       -3.100602   -1.722628    0.433797
      8          6           0       -1.770151   -2.408050    0.055742
      9          6           0       -0.786107   -1.249707    0.342215
     10          6           0       -1.783255    0.002714    0.123929
     11          6           0       -0.095026   -1.368878    1.717775
     12          6           0       -1.844150   -2.811225   -1.485652
     13          6           0       -1.084966   -4.094818   -1.930722
     14          6           0        0.213047   -4.465308   -1.205389
     15          8           0        0.347813   -5.248645   -0.260077
     16          8           0        1.360507   -3.921002   -1.799098
     17          7           0       -3.323489    2.669631   -0.086753
     18          6           0       -1.990661    2.592647   -0.182483
     19          6           0       -1.489152    3.836425   -0.671180
     20          6           0       -2.573048    4.689713   -0.778571
     21          6           0       -3.730701    3.961271   -0.286207
     22          6           0       -0.080257    4.246028   -0.866692
     23          6           0       -2.648353    6.087643   -1.295744
     24          8           0       -3.696399    6.682317   -1.312872
     25          6           0       -1.461735    6.716451   -1.893579
     26          7           0       -6.426631    2.465144    0.509539
     27          6           0       -6.277762    3.757946    0.198324
     28          6           0       -7.698537    4.464943    0.284309
     29          6           0       -8.707226    3.284242    0.550250
     30          6           0       -7.718848    2.142617    0.679337
     31          6           0       -7.854141    5.604752    1.242066
     32          6           0       -9.776351    3.053470   -0.493486
     33          6           0      -11.245834    2.664529    0.028459
     34          7           0       -6.006353   -0.438987    0.741291
     35          6           0       -7.394441   -0.381247    0.950727
     36          6           0       -7.874450   -1.776609    1.231335
     37          6           0       -6.693434   -2.549309    1.199768
     38          6           0       -5.556411   -1.715230    0.921666
     39          6           0       -9.291939   -2.258648    1.351083
     40          6           0       -6.208931   -3.889690    1.370095
     41          8           0       -6.762558   -4.920490    1.713668
     42          6           0       -4.701461   -3.730579    1.273195
     43          6           0       -4.306655   -4.835595    0.297671
     44          8           0       -4.260261   -4.853768   -0.956695
     45          8           0       -3.889948   -5.778855    1.201590
     46          6           0       -3.306435   -6.831562    0.491905
     47          6           0        2.642207   -4.160644   -1.111788
     48          6           0        3.737962   -3.284508   -1.700691
     49          6           0        5.083923   -3.491217   -1.500613
     50          6           0        5.674907   -4.501089   -0.590277
     51          6           0        6.144171   -2.493896   -2.050961
     52          6           0        5.806120   -0.984265   -2.103521
     53          6           0        6.435037   -0.240420   -3.372758
     54          6           0        7.676981    0.641140   -3.092116
     55          6           0        8.161851    1.364736   -4.401031
     56          6           0        8.876884   -0.136541   -2.388939
     57          6           0        9.326659    0.233909   -1.054558
     58          6           0       10.796910    0.539723   -0.968570
     59          6           0       11.157892    1.642736    0.055833
     60          6           0       11.231678    3.033058   -0.624205
     61          6           0       12.466512    1.156485    0.713602
     62          6           0       12.980605    2.107095    1.837173
     63          6           0       13.390109    1.394264    3.158513
     64          6           0       12.449037    1.684646    4.328222
     65          6           0       13.221847    1.439429    5.654600
     66          6           0       11.153196    0.864113    4.207941
     67          1           0       -0.248871    1.388202   -0.283346
     68          1           0       -5.273036    5.450992   -0.307821
     69          1           0       -9.224869    0.715318    1.130389
     70          1           0       -1.627224   -3.255395    0.726787
     71          1           0       -0.050902   -1.166823   -0.457865
     72          1           0       -0.322271   -2.307043    2.223347
     73          1           0       -0.298102   -0.505826    2.351738
     74          1           0        0.966076   -1.368433    1.467062
     75          1           0       -1.515447   -2.002972   -2.138864
     76          1           0       -2.904569   -2.869440   -1.732406
     77          1           0       -0.849168   -3.883436   -2.973297
     78          1           0       -1.739588   -4.964369   -1.988103
     79          1           0        0.074388    5.145093   -0.270610
     80          1           0        0.343968    4.443558   -1.850389
     81          1           0        0.583671    3.471449   -0.480974
     82          1           0       -0.777992    7.126180   -1.149819
     83          1           0       -1.842082    7.539058   -2.499005
     84          1           0       -1.047959    5.956032   -2.555868
     85          1           0       -7.722408    4.938501   -0.696325
     86          1           0       -9.237250    3.378234    1.498915
     87          1           0       -8.225244    6.468831    0.690338
     88          1           0       -6.862380    5.748895    1.671542
     89          1           0       -8.655616    5.366723    1.941750
     90          1           0       -9.423404    2.252826   -1.143178
     91          1           0       -9.963698    3.950130   -1.083125
     92          1           0      -11.999718    3.416024   -0.206010
     93          1           0      -11.254781    2.566826    1.113744
     94          1           0      -11.431686    1.648822   -0.320934
     95          1           0       -9.448433   -3.033552    0.600209
     96          1           0       -9.966085   -1.403744    1.300291
     97          1           0       -9.419394   -2.724205    2.327731
     98          1           0       -4.203610   -4.031318    2.195306
     99          1           0       -4.079238   -7.338393   -0.086948
    100          1           0       -2.869547   -7.584119    1.146629
    101          1           0       -2.452556   -6.465404   -0.078266
    102          1           0        2.942495   -5.201630   -1.224331
    103          1           0        2.555892   -3.823295   -0.078059
    104          1           0        3.458711   -2.493531   -2.397530
    105          1           0        5.171241   -4.334684    0.361334
    106          1           0        6.697578   -4.310396   -0.268219
    107          1           0        5.537576   -5.551661   -0.846402
    108          1           0        6.577987   -2.797955   -3.002897
    109          1           0        6.989494   -2.513621   -1.362902
    110          1           0        6.369034   -0.591110   -1.256942
    111          1           0        4.723464   -0.924160   -1.992791
    112          1           0        5.655945    0.395862   -3.790728
    113          1           0        6.733319   -0.886975   -4.197634
    114          1           0        7.356170    1.438564   -2.422005
    115          1           0        8.782859    0.785317   -5.084703
    116          1           0        8.731963    2.251593   -4.125648
    117          1           0        7.372710    1.821379   -4.997533
    118          1           0        9.721028   -0.206058   -3.074205
    119          1           0        8.626122   -1.188378   -2.252934
    120          1           0        9.121546   -0.622751   -0.411997
    121          1           0        8.698364    1.017032   -0.629752
    122          1           0       11.129562    0.770914   -1.980714
    123          1           0       11.370110   -0.377252   -0.839223
    124          1           0       10.317076    1.734034    0.744485
    125          1           0       12.228470    3.463458   -0.527739
    126          1           0       10.489906    3.665649   -0.137797
    127          1           0       10.842139    3.068695   -1.641732
    128          1           0       13.146636    1.260829   -0.131672
    129          1           0       12.407860    0.148162    1.124670
    130          1           0       12.208077    2.867071    1.956801
    131          1           0       13.885958    2.550387    1.423044
    132          1           0       14.406856    1.716496    3.384191
    133          1           0       13.455685    0.314410    3.018514
    134          1           0       12.219616    2.729955    4.122763
    135          1           0       12.500719    1.200811    6.437055
    136          1           0       13.711707    2.360667    5.969927
    137          1           0       13.986356    0.692814    5.439216
    138          1           0       10.745412    0.521119    5.159082
    139          1           0       11.096754    0.092339    3.440164
    140          1           0       10.375309    1.540759    3.856637
 ---------------------------------------------------------------------

 SCF Done:  E(RwB97XD) =  -3007.85219517     A.U. after   19 cycles

 Excitation energies and oscillator strengths:

 Excited State   1:      Singlet-A      1.6392 eV  756.39 nm  f=0.3742  <S**2>=0.000
     245 -> 248        0.19485
     246 -> 247        0.68125
     245 <- 248        0.12051
 This state for optimization and/or second-order correction.
 Total Energy, E(TD-HF/TD-DFT) =  -3007.79195703
 Copying the excited state density for this state as the 1-particle RhoCI density.

 Excited State   2:      Singlet-A      2.1418 eV  578.89 nm  f=0.1002  <S**2>=0.000
     245 -> 247        0.63591
     246 -> 248       -0.29716

 Excited State   3:      Singlet-A      3.4265 eV  361.84 nm  f=0.0106  <S**2>=0.000
     241 -> 247        0.13702
     242 -> 247       -0.26001
     244 -> 247        0.61624

 Excited State   4:      Singlet-A      3.4765 eV  356.63 nm  f=0.3940  <S**2>=0.000
     239 -> 247        0.10579
     242 -> 247        0.30933
     244 -> 247        0.19466
     245 -> 247        0.20904
     246 -> 248        0.53678

 Excited State   5:      Singlet-A      3.5655 eV  347.73 nm  f=0.0755  <S**2>=0.000
     241 -> 247        0.39723
     241 -> 249        0.29985
     241 -> 250        0.16339
     242 -> 247        0.36180
     242 -> 249        0.12444
     246 -> 248       -0.16384

 The electronic state is 1-A.
 Alpha  occ. eigenvalues --  -46.95624 -19.30738 -19.30131 -19.25989 -19.25391
 Alpha  occ. eigenvalues --  -19.23693 -19.23441 -14.47337 -14.46398 -14.44000
 Alpha  occ. eigenvalues --  -14.43863 -10.44079 -10.43703 -10.38381 -10.37998
 Alpha  occ. eigenvalues --  -10.36441 -10.35986 -10.35844 -10.34990 -10.34503
 Alpha  occ. eigenvalues --  -10.34099 -10.34070 -10.34003 -10.33733 -10.32692
 Alpha  occ. eigenvalues --  -10.32619 -10.32579 -10.32448 -10.32232 -10.31883
 Alpha  occ. eigenvalues --  -10.31778 -10.31774 -10.31542 -10.31430 -10.31387
 Alpha  occ. eigenvalues --  -10.31147 -10.31126 -10.31101 -10.30935 -10.30657
 Alpha  occ. eigenvalues --  -10.30427 -10.30372 -10.30345 -10.30345 -10.30030
 Alpha  occ. eigenvalues --  -10.29991 -10.29845 -10.29811 -10.29728 -10.29717
 Alpha  occ. eigenvalues --  -10.29647 -10.29516 -10.29445 -10.29374 -10.29137
 Alpha  occ. eigenvalues --  -10.28810 -10.28649 -10.28629 -10.28548 -10.28449
 Alpha  occ. eigenvalues --  -10.28415 -10.28352 -10.28300 -10.28195 -10.28030
 Alpha  occ. eigenvalues --  -10.27952  -3.21470  -1.95066  -1.94589  -1.94430
 Alpha  occ. eigenvalues --   -1.19828  -1.17694  -1.13513  -1.11797  -1.10107
 Alpha  occ. eigenvalues --   -1.09185  -1.06611  -1.05987  -1.05345  -1.03624
 Alpha  occ. eigenvalues --   -0.94991  -0.92416  -0.91857  -0.91252  -0.91104
 Alpha  occ. eigenvalues --   -0.90678  -0.90476  -0.89776  -0.89315  -0.88518
 Alpha  occ. eigenvalues --   -0.87825  -0.87486  -0.86514  -0.85571  -0.85248
 Alpha  occ. eigenvalues --   -0.84457  -0.84393  -0.83438  -0.82816  -0.82342
 Alpha  occ. eigenvalues --   -0.82136  -0.80431  -0.80082  -0.79198  -0.77660
 Alpha  occ. eigenvalues --   -0.77398  -0.77257  -0.77242  -0.76805  -0.75975
 Alpha  occ. eigenvalues --   -0.75259  -0.74319  -0.73173  -0.72400  -0.71134
 Alpha  occ. eigenvalues --   -0.70601  -0.70451  -0.69266  -0.68924  -0.67652
 Alpha  occ. eigenvalues --   -0.67442  -0.67194  -0.67074  -0.66083  -0.65763
 Alpha  occ. eigenvalues --   -0.65199  -0.64970  -0.64284  -0.64197  -0.62429
 Alpha  occ. eigenvalues --   -0.61838  -0.61513  -0.61116  -0.60403  -0.59545
 Alpha  occ. eigenvalues --   -0.59338  -0.58632  -0.58365  -0.57967  -0.57881
 Alpha  occ. eigenvalues --   -0.57352  -0.57008  -0.56769  -0.56432  -0.56212
 Alpha  occ. eigenvalues --   -0.55966  -0.55820  -0.55231  -0.55081  -0.54862
 Alpha  occ. eigenvalues --   -0.54734  -0.54514  -0.54308  -0.53976  -0.53891
 Alpha  occ. eigenvalues --   -0.53793  -0.53253  -0.53000  -0.52831  -0.52544
 Alpha  occ. eigenvalues --   -0.52503  -0.52331  -0.52105  -0.51941  -0.51659
 Alpha  occ. eigenvalues --   -0.51419  -0.51244  -0.51026  -0.50953  -0.50754
 Alpha  occ. eigenvalues --   -0.50671  -0.50381  -0.50148  -0.50029  -0.49662
 Alpha  occ. eigenvalues --   -0.49391  -0.49303  -0.49265  -0.48961  -0.48269
 Alpha  occ. eigenvalues --   -0.48101  -0.47781  -0.47674  -0.47476  -0.47430
 Alpha  occ. eigenvalues --   -0.47380  -0.47135  -0.47095  -0.47003  -0.46721
 Alpha  occ. eigenvalues --   -0.46670  -0.46494  -0.46372  -0.46091  -0.45749
 Alpha  occ. eigenvalues --   -0.45673  -0.45405  -0.45371  -0.45155  -0.44937
 Alpha  occ. eigenvalues --   -0.44857  -0.44715  -0.44608  -0.44469  -0.44042
 Alpha  occ. eigenvalues --   -0.43865  -0.43689  -0.43574  -0.43419  -0.43362
 Alpha  occ. eigenvalues --   -0.43006  -0.42434  -0.42175  -0.41894  -0.41760
 Alpha  occ. eigenvalues --   -0.41563  -0.41346  -0.41018  -0.40844  -0.40731
 Alpha  occ. eigenvalues --   -0.40414  -0.40167  -0.39932  -0.39337  -0.39298
 Alpha  occ. eigenvalues --   -0.39209  -0.39075  -0.39038  -0.38826  -0.38413
 Alpha  occ. eigenvalues --   -0.38239  -0.37799  -0.37099  -0.36879  -0.36227
 Alpha  occ. eigenvalues --   -0.36051  -0.35717  -0.34973  -0.33570  -0.32952
 Alpha  occ. eigenvalues --   -0.32580  -0.32398  -0.31635  -0.31550  -0.25779
 Alpha  occ. eigenvalues --   -0.22908
 Alpha virt. eigenvalues --   -0.06967   0.00054   0.02320   0.04655   0.05439
 Alpha virt. eigenvalues --    0.06132   0.06765   0.07061   0.07771   0.09754
 Alpha virt. eigenvalues --    0.10547   0.11412   0.11550   0.12138   0.12370

 Mulliken charges:
               1
     1  Mg   0.954570
     2  C    0.051701
     3  C   -0.076732
     4  C   -0.061966
     5  C   -0.057701
     6  N   -0.358026
     7  C   -0.001836
     8  C   -0.112364
     9  C   -0.094327
    10  C    0.048482
    11  C    0.048591
    12  C    0.031762
    13  C    0.035573
    14  C    0.219656
    15  O   -0.277976
    16  O   -0.393396
    17  N   -0.426457
    18  C    0.123088
    19  C   -0.142591
    20  C   -0.049692
    21  C    0.148599
    22  C    0.053050
    23  C    0.017200
    24  O   -0.220779
    25  C    0.002454
    26  N   -0.306805
    27  C    0.006488
    28  C   -0.108282
    29  C   -0.039511
    30  C    0.038066
    31  C    0.044941
    32  C   -0.025674
    33  C   -0.072807
    34  N   -0.468745
    35  C    0.107583
    36  C   -0.192658
    37  C   -0.044424
    38  C    0.115552
    39  C    0.095031
    40  C    0.126998
    41  O   -0.204572
    42  C   -0.129768
    43  C    0.271478
    44  O   -0.277872
    45  O   -0.322673
    46  C    0.139558
    47  C    0.273349
    48  C   -0.165410
    49  C   -0.193866
    50  C    0.019098
    51  C    0.005532
    52  C   -0.024052
    53  C   -0.003947
    54  C   -0.150411
    55  C   -0.022718
    56  C   -0.003004
    57  C   -0.003861
    58  C    0.013227
    59  C   -0.200618
    60  C    0.008463
    61  C   -0.016375
    62  C   -0.008652
    63  C   -0.019969
    64  C   -0.207648
    65  C    0.015335
    66  C   -0.005314
    67  H   -0.002527
    68  H    0.022780
    69  H   -0.017110
    70  H    0.041572
    71  H    0.030428
    72  H    0.050202
    73  H    0.047752
    74  H    0.036904
    75  H    0.031838
    76  H    0.062753
    77  H    0.050617
    78  H    0.074340
    79  H    0.046440
    80  H    0.052250
    81  H    0.028794
    82  H    0.067673
    83  H    0.049607
    84  H    0.050323
    85  H    0.041967
    86  H    0.037615
    87  H    0.034931
    88  H    0.049943
    89  H    0.029057
    90  H    0.040760
    91  H    0.037779
    92  H    0.051826
    93  H    0.025162
    94  H    0.045321
    95  H    0.068401
    96  H    0.026231
    97  H    0.056129
    98  H    0.089248
    99  H    0.050383
   100  H    0.040255
   101  H    0.041888
   102  H    0.060061
   103  H    0.056656
   104  H    0.038492
   105  H    0.035771
   106  H    0.033473
   107  H    0.059411
   108  H    0.042620
   109  H    0.017107
   110  H    0.024449
   111  H    0.028946
   112  H    0.015816
   113  H    0.020607
   114  H    0.016938
   115  H    0.036351
   116  H    0.023574
   117  H    0.020676
   118  H    0.011137
   119  H   -0.001923
   120  H    0.012906
   121  H    0.010304
   122  H    0.002902
   123  H    0.007000
   124  H    0.019308
   125  H    0.038747
   126  H    0.019836
   127  H    0.029177
   128  H    0.019963
   129  H    0.026818
   130  H    0.022103
   131  H    0.018759
   132  H    0.015195
   133  H    0.014705
   134  H    0.022833
   135  H    0.026443
   136  H    0.029029
   137  H    0.038054
   138  H    0.027389
   139  H    0.028834
   140  H    0.016054
 Sum of Mulliken charges =  -0.00000

 Dipole moment (field-independent basis, Debye):
    X=              3.9601    Y=              3.8362    Z=             -1.4654  Tot=              5.7049
 Quadrupole moment (field-independent basis, Debye-Ang):
   XX=           -378.3990   YY=           -424.9864   ZZ=           -407.2656
   XY=            -27.3653   XZ=              1.5504   YZ=              4.6587

 Normal termination of Gaussian 16 at Wed Apr 27 11:02:21 2022.
