 Gaussian 16, Revision A.03,
 Gaussian 16:  ES64L-G16RevA.03 25-Dec-2016

 --------------------
 #p ZINDO=(nstates=5)
 --------------------

 ------------------------------
 step_1151_chromophore_15 ZINDO
 ------------------------------
 Symbolic Z-matrix:
 Charge =  0 Multiplicity = 1

                         Standard orientation:
 ---------------------------------------------------------------------
 Center     Atomic      Atomic             Coordinates (Angstroms)
 Number     Number       Type             X           Y           Z
 ---------------------------------------------------------------------
      1         12           0       -4.719942    1.066657    0.145745
      2          6           0       -4.324798   -2.360704    0.866874
      3          6           0       -1.298665    1.346253    0.015017
      4          6           0       -5.054549    4.392140   -0.151250
      5          6           0       -8.160882    0.861565    0.935349
      6          7           0       -3.094722   -0.340689    0.238748
      7          6           0       -3.100602   -1.722628    0.433797
      8          6           0       -1.770151   -2.408050    0.055742
      9          6           0       -0.786107   -1.249707    0.342215
     10          6           0       -1.783255    0.002714    0.123929
     11          6           0       -0.095026   -1.368878    1.717775
     12          6           0       -1.844150   -2.811225   -1.485652
     13          6           0       -1.084966   -4.094818   -1.930722
     14          6           0        0.213047   -4.465308   -1.205389
     15          8           0        0.347813   -5.248645   -0.260077
     16          8           0        1.360507   -3.921002   -1.799098
     17          7           0       -3.323489    2.669631   -0.086753
     18          6           0       -1.990661    2.592647   -0.182483
     19          6           0       -1.489152    3.836425   -0.671180
     20          6           0       -2.573048    4.689713   -0.778571
     21          6           0       -3.730701    3.961271   -0.286207
     22          6           0       -0.080257    4.246028   -0.866692
     23          6           0       -2.648353    6.087643   -1.295744
     24          8           0       -3.696399    6.682317   -1.312872
     25          6           0       -1.461735    6.716451   -1.893579
     26          7           0       -6.426631    2.465144    0.509539
     27          6           0       -6.277762    3.757946    0.198324
     28          6           0       -7.698537    4.464943    0.284309
     29          6           0       -8.707226    3.284242    0.550250
     30          6           0       -7.718848    2.142617    0.679337
     31          6           0       -7.854141    5.604752    1.242066
     32          6           0       -9.776351    3.053470   -0.493486
     33          6           0      -11.245834    2.664529    0.028459
     34          7           0       -6.006353   -0.438987    0.741291
     35          6           0       -7.394441   -0.381247    0.950727
     36          6           0       -7.874450   -1.776609    1.231335
     37          6           0       -6.693434   -2.549309    1.199768
     38          6           0       -5.556411   -1.715230    0.921666
     39          6           0       -9.291939   -2.258648    1.351083
     40          6           0       -6.208931   -3.889690    1.370095
     41          8           0       -6.762558   -4.920490    1.713668
     42          6           0       -4.701461   -3.730579    1.273195
     43          6           0       -4.306655   -4.835595    0.297671
     44          8           0       -4.260261   -4.853768   -0.956695
     45          8           0       -3.889948   -5.778855    1.201590
     46          6           0       -3.306435   -6.831562    0.491905
     47          6           0        2.642207   -4.160644   -1.111788
     48          6           0        3.737962   -3.284508   -1.700691
     49          6           0        5.083923   -3.491217   -1.500613
     50          6           0        5.674907   -4.501089   -0.590277
     51          6           0        6.144171   -2.493896   -2.050961
     52          6           0        5.806120   -0.984265   -2.103521
     53          6           0        6.435037   -0.240420   -3.372758
     54          6           0        7.676981    0.641140   -3.092116
     55          6           0        8.161851    1.364736   -4.401031
     56          6           0        8.876884   -0.136541   -2.388939
     57          6           0        9.326659    0.233909   -1.054558
     58          6           0       10.796910    0.539723   -0.968570
     59          6           0       11.157892    1.642736    0.055833
     60          6           0       11.231678    3.033058   -0.624205
     61          6           0       12.466512    1.156485    0.713602
     62          6           0       12.980605    2.107095    1.837173
     63          6           0       13.390109    1.394264    3.158513
     64          6           0       12.449037    1.684646    4.328222
     65          6           0       13.221847    1.439429    5.654600
     66          6           0       11.153196    0.864113    4.207941
     67          1           0       -0.248871    1.388202   -0.283346
     68          1           0       -5.273036    5.450992   -0.307821
     69          1           0       -9.224869    0.715318    1.130389
     70          1           0       -1.627224   -3.255395    0.726787
     71          1           0       -0.050902   -1.166823   -0.457865
     72          1           0       -0.322271   -2.307043    2.223347
     73          1           0       -0.298102   -0.505826    2.351738
     74          1           0        0.966076   -1.368433    1.467062
     75          1           0       -1.515447   -2.002972   -2.138864
     76          1           0       -2.904569   -2.869440   -1.732406
     77          1           0       -0.849168   -3.883436   -2.973297
     78          1           0       -1.739588   -4.964369   -1.988103
     79          1           0        0.074388    5.145093   -0.270610
     80          1           0        0.343968    4.443558   -1.850389
     81          1           0        0.583671    3.471449   -0.480974
     82          1           0       -0.777992    7.126180   -1.149819
     83          1           0       -1.842082    7.539058   -2.499005
     84          1           0       -1.047959    5.956032   -2.555868
     85          1           0       -7.722408    4.938501   -0.696325
     86          1           0       -9.237250    3.378234    1.498915
     87          1           0       -8.225244    6.468831    0.690338
     88          1           0       -6.862380    5.748895    1.671542
     89          1           0       -8.655616    5.366723    1.941750
     90          1           0       -9.423404    2.252826   -1.143178
     91          1           0       -9.963698    3.950130   -1.083125
     92          1           0      -11.999718    3.416024   -0.206010
     93          1           0      -11.254781    2.566826    1.113744
     94          1           0      -11.431686    1.648822   -0.320934
     95          1           0       -9.448433   -3.033552    0.600209
     96          1           0       -9.966085   -1.403744    1.300291
     97          1           0       -9.419394   -2.724205    2.327731
     98          1           0       -4.203610   -4.031318    2.195306
     99          1           0       -4.079238   -7.338393   -0.086948
    100          1           0       -2.869547   -7.584119    1.146629
    101          1           0       -2.452556   -6.465404   -0.078266
    102          1           0        2.942495   -5.201630   -1.224331
    103          1           0        2.555892   -3.823295   -0.078059
    104          1           0        3.458711   -2.493531   -2.397530
    105          1           0        5.171241   -4.334684    0.361334
    106          1           0        6.697578   -4.310396   -0.268219
    107          1           0        5.537576   -5.551661   -0.846402
    108          1           0        6.577987   -2.797955   -3.002897
    109          1           0        6.989494   -2.513621   -1.362902
    110          1           0        6.369034   -0.591110   -1.256942
    111          1           0        4.723464   -0.924160   -1.992791
    112          1           0        5.655945    0.395862   -3.790728
    113          1           0        6.733319   -0.886975   -4.197634
    114          1           0        7.356170    1.438564   -2.422005
    115          1           0        8.782859    0.785317   -5.084703
    116          1           0        8.731963    2.251593   -4.125648
    117          1           0        7.372710    1.821379   -4.997533
    118          1           0        9.721028   -0.206058   -3.074205
    119          1           0        8.626122   -1.188378   -2.252934
    120          1           0        9.121546   -0.622751   -0.411997
    121          1           0        8.698364    1.017032   -0.629752
    122          1           0       11.129562    0.770914   -1.980714
    123          1           0       11.370110   -0.377252   -0.839223
    124          1           0       10.317076    1.734034    0.744485
    125          1           0       12.228470    3.463458   -0.527739
    126          1           0       10.489906    3.665649   -0.137797
    127          1           0       10.842139    3.068695   -1.641732
    128          1           0       13.146636    1.260829   -0.131672
    129          1           0       12.407860    0.148162    1.124670
    130          1           0       12.208077    2.867071    1.956801
    131          1           0       13.885958    2.550387    1.423044
    132          1           0       14.406856    1.716496    3.384191
    133          1           0       13.455685    0.314410    3.018514
    134          1           0       12.219616    2.729955    4.122763
    135          1           0       12.500719    1.200811    6.437055
    136          1           0       13.711707    2.360667    5.969927
    137          1           0       13.986356    0.692814    5.439216
    138          1           0       10.745412    0.521119    5.159082
    139          1           0       11.096754    0.092339    3.440164
    140          1           0       10.375309    1.540759    3.856637
 ---------------------------------------------------------------------

 SCF Done:  E(RZINDO/S) =  -474.354548561     A.U. after   20 cycles

 Excitation energies and oscillator strengths:

 Excited State   1:      Singlet-A      1.2246 eV 1012.47 nm  f=0.5898  <S**2>=0.000
     175 ->178         0.19429
     176 ->177         0.66134
 This state for optimization and/or second-order correction.
 Total Energy, E(CIS/TDA) =  -474.309546564
 Copying the excited state density for this state as the 1-particle RhoCI density.

 Excited State   2:      Singlet-A      1.9049 eV  650.87 nm  f=0.0309  <S**2>=0.000
     175 ->177         0.53546
     176 ->178        -0.43524

 Excited State   3:      Singlet-A      2.8981 eV  427.82 nm  f=0.0004  <S**2>=0.000
     168 ->177         0.31409
     168 ->179         0.32029
     168 ->180         0.35250
     168 ->183         0.11094
     168 ->186         0.21319
     168 ->187        -0.14890

 Excited State   4:      Singlet-A      2.9229 eV  424.18 nm  f=0.4134  <S**2>=0.000
     175 ->177         0.26384
     176 ->178         0.39681
     176 ->179         0.45883
     176 ->183        -0.13694

 Excited State   5:      Singlet-A      2.9504 eV  420.23 nm  f=0.0333  <S**2>=0.000
     169 ->177         0.31846
     169 ->178        -0.18515
     169 ->179        -0.38039
     169 ->180         0.19357
     169 ->183         0.10412
     169 ->184         0.10996
     169 ->186        -0.19690
     169 ->187        -0.11805
     169 ->200         0.10328

 The electronic state is 1-A.
 Alpha  occ. eigenvalues --   -1.82939  -1.82448  -1.79809  -1.75805  -1.71918
 Alpha  occ. eigenvalues --   -1.69926  -1.66380  -1.62255  -1.61089  -1.59046
 Alpha  occ. eigenvalues --   -1.55550  -1.50534  -1.48098  -1.47648  -1.45987
 Alpha  occ. eigenvalues --   -1.43819  -1.41824  -1.41450  -1.40035  -1.39809
 Alpha  occ. eigenvalues --   -1.36372  -1.33209  -1.32392  -1.31740  -1.28630
 Alpha  occ. eigenvalues --   -1.28531  -1.24459  -1.22230  -1.20959  -1.19014
 Alpha  occ. eigenvalues --   -1.17793  -1.17050  -1.15721  -1.14948  -1.12996
 Alpha  occ. eigenvalues --   -1.12809  -1.10803  -1.10320  -1.04226  -1.02310
 Alpha  occ. eigenvalues --   -1.01386  -1.00651  -0.98199  -0.97153  -0.96716
 Alpha  occ. eigenvalues --   -0.96286  -0.95043  -0.94690  -0.93141  -0.92635
 Alpha  occ. eigenvalues --   -0.90677  -0.90595  -0.89148  -0.88031  -0.86072
 Alpha  occ. eigenvalues --   -0.85767  -0.84579  -0.83977  -0.82368  -0.80607
 Alpha  occ. eigenvalues --   -0.79165  -0.78234  -0.77496  -0.76556  -0.76308
 Alpha  occ. eigenvalues --   -0.76199  -0.75094  -0.74018  -0.73523  -0.73056
 Alpha  occ. eigenvalues --   -0.72603  -0.72320  -0.72138  -0.71440  -0.71068
 Alpha  occ. eigenvalues --   -0.69682  -0.69273  -0.68638  -0.68356  -0.68286
 Alpha  occ. eigenvalues --   -0.67970  -0.67455  -0.67028  -0.66905  -0.66348
 Alpha  occ. eigenvalues --   -0.66038  -0.65416  -0.64530  -0.63945  -0.63723
 Alpha  occ. eigenvalues --   -0.63231  -0.63061  -0.62612  -0.62273  -0.61865
 Alpha  occ. eigenvalues --   -0.61591  -0.61215  -0.60929  -0.60614  -0.60422
 Alpha  occ. eigenvalues --   -0.59458  -0.58921  -0.58764  -0.58417  -0.58368
 Alpha  occ. eigenvalues --   -0.57628  -0.57427  -0.57189  -0.57047  -0.56270
 Alpha  occ. eigenvalues --   -0.56140  -0.55742  -0.55250  -0.55002  -0.54385
 Alpha  occ. eigenvalues --   -0.53773  -0.53765  -0.53035  -0.52891  -0.52756
 Alpha  occ. eigenvalues --   -0.52045  -0.51971  -0.51641  -0.51272  -0.51237
 Alpha  occ. eigenvalues --   -0.50994  -0.50828  -0.50464  -0.50115  -0.49810
 Alpha  occ. eigenvalues --   -0.49672  -0.49416  -0.49275  -0.49097  -0.48885
 Alpha  occ. eigenvalues --   -0.48554  -0.48424  -0.48356  -0.47971  -0.47675
 Alpha  occ. eigenvalues --   -0.47580  -0.47309  -0.47123  -0.46943  -0.46732
 Alpha  occ. eigenvalues --   -0.46465  -0.46392  -0.45921  -0.45513  -0.45420
 Alpha  occ. eigenvalues --   -0.45121  -0.44989  -0.44673  -0.43931  -0.43836
 Alpha  occ. eigenvalues --   -0.43647  -0.43360  -0.42680  -0.42524  -0.42376
 Alpha  occ. eigenvalues --   -0.41636  -0.41264  -0.40813  -0.39201  -0.38954
 Alpha  occ. eigenvalues --   -0.38060  -0.37037  -0.34917  -0.34565  -0.34417
 Alpha  occ. eigenvalues --   -0.33366  -0.32357  -0.32160  -0.31793  -0.26525
 Alpha  occ. eigenvalues --   -0.21597
 Alpha virt. eigenvalues --   -0.08395  -0.02242  -0.00581   0.01226   0.01395
 Alpha virt. eigenvalues --    0.02126   0.02476   0.02959   0.04188   0.04987
 Alpha virt. eigenvalues --    0.06337   0.07149   0.07592   0.07849   0.08107

 Mulliken charges:
               1
     1  Mg   0.429364
     2  C   -0.053294
     3  C   -0.108747
     4  C   -0.052948
     5  C   -0.062840
     6  N   -0.282078
     7  C    0.125459
     8  C    0.011152
     9  C    0.005853
    10  C    0.130452
    11  C   -0.046396
    12  C   -0.014661
    13  C    0.012982
    14  C    0.465949
    15  O   -0.519199
    16  O   -0.283959
    17  N   -0.319517
    18  C    0.128875
    19  C    0.016586
    20  C   -0.038001
    21  C    0.128827
    22  C   -0.043886
    23  C    0.331442
    24  O   -0.523077
    25  C   -0.032312
    26  N   -0.253395
    27  C    0.126697
    28  C    0.001626
    29  C    0.009351
    30  C    0.119437
    31  C   -0.050839
    32  C   -0.031262
    33  C   -0.067296
    34  N   -0.324584
    35  C    0.066417
    36  C    0.031726
    37  C   -0.064334
    38  C    0.109584
    39  C   -0.033081
    40  C    0.336796
    41  O   -0.526348
    42  C    0.066967
    43  C    0.483206
    44  O   -0.539713
    45  O   -0.246446
    46  C    0.075678
    47  C    0.111726
    48  C   -0.092750
    49  C   -0.013683
    50  C   -0.043006
    51  C   -0.033480
    52  C   -0.044062
    53  C   -0.034140
    54  C   -0.007138
    55  C   -0.061119
    56  C   -0.034265
    57  C   -0.022138
    58  C   -0.037288
    59  C   -0.010586
    60  C   -0.059122
    61  C   -0.038522
    62  C   -0.049534
    63  C   -0.032879
    64  C   -0.010227
    65  C   -0.057563
    66  C   -0.059489
    67  H    0.014679
    68  H    0.041532
    69  H    0.026417
    70  H    0.041279
    71  H    0.027997
    72  H    0.031413
    73  H    0.028164
    74  H    0.017552
    75  H    0.023869
    76  H    0.039730
    77  H    0.029295
    78  H    0.055258
    79  H    0.025862
    80  H    0.035856
    81  H    0.013075
    82  H    0.047481
    83  H    0.032860
    84  H    0.035889
    85  H    0.032245
    86  H    0.034983
    87  H    0.020518
    88  H    0.033715
    89  H    0.021615
    90  H    0.025037
    91  H    0.017827
    92  H    0.029830
    93  H    0.013911
    94  H    0.024031
    95  H    0.043978
    96  H    0.024187
    97  H    0.035157
    98  H    0.063200
    99  H    0.045951
   100  H    0.019278
   101  H    0.040919
   102  H    0.057814
   103  H    0.053353
   104  H    0.040101
   105  H    0.018367
   106  H    0.022150
   107  H    0.034996
   108  H    0.030449
   109  H    0.013535
   110  H    0.022239
   111  H    0.033945
   112  H    0.010158
   113  H    0.022616
   114  H    0.017972
   115  H    0.023751
   116  H    0.009436
   117  H    0.013813
   118  H    0.016713
   119  H    0.010500
   120  H    0.008467
   121  H    0.016638
   122  H    0.013024
   123  H    0.013874
   124  H    0.020620
   125  H    0.026453
   126  H    0.010169
   127  H    0.021733
   128  H    0.020189
   129  H    0.028260
   130  H    0.025877
   131  H    0.013512
   132  H    0.010510
   133  H    0.017197
   134  H    0.024543
   135  H    0.020974
   136  H    0.015221
   137  H    0.028813
   138  H    0.020231
   139  H    0.025803
   140  H    0.004441
 Sum of Mulliken charges =  -0.00000

 Dipole moment (field-independent basis, Debye):
    X=              5.5955    Y=              5.2867    Z=             -1.7759  Tot=              7.9002
 N-N= 4.334760239095D+03 E-N= 0.000000000000D+00  KE=-9.343982443862D+03
 Leave Link  601 at Wed Apr 27 11:14:10 2022, MaxMem=  6710886400 cpu:               0.8 elap:               0.1
 (Enter /sw/apps/gaussian-16.0/g16/l9999.exe)
 1\1\GINC-BP1-COMPUTE070\SP\RZINDO CIS\STO-3G\C55H74Mg1N4O6\OF15641\27-
 Apr-2022\0\\#p ZINDO=(nstates=5)\\step_1151_chromophore_15 ZINDO\\0,1\
 Mg,0,45.878,34.799,28.427\C,0,44.363,32.84,30.935\C,0,46.135,37.36,30.
 702\C,0,46.958,36.808,25.966\C,0,44.999,32.397,25.985\N,0,45.48,34.98,
 30.534\C,0,44.959,34.057,31.442\C,0,45.186,34.444,32.919\C,0,45.204,35
 .985,32.788\C,0,45.698,36.113,31.255\C,0,43.853,36.639,33.15\C,0,46.58
 4,33.83,33.38\C,0,46.722,33.392,34.867\C,0,45.953,34.177,35.935\O,0,44

 Normal termination of Gaussian 16 at Wed Apr 27 11:14:10 2022.
