 Gaussian 16, Revision A.03,
 Gaussian 16:  ES64L-G16RevA.03 25-Dec-2016

 ------------------------------
 #p blyp/Def2SVP td=(nstates=5)
 ------------------------------

 ---------------------------------------------------
 step_1551_chromophore_23 TDDFT with blyp functional
 ---------------------------------------------------
 Symbolic Z-matrix:
 Charge =  0 Multiplicity = 1

                         Standard orientation:
 ---------------------------------------------------------------------
 Center     Atomic      Atomic             Coordinates (Angstroms)
 Number     Number       Type             X           Y           Z
 ---------------------------------------------------------------------
      1         12           0        4.697864    0.294209   -0.181850
      2          6           0        3.381787   -2.757649    0.180137
      3          6           0        2.623056    0.813938   -2.968069
      4          6           0        5.195779    3.897158   -0.177098
      5          6           0        6.387849    0.088545    2.724868
      6          7           0        3.011508   -0.778310   -1.110151
      7          6           0        2.805123   -2.100170   -0.923855
      8          6           0        1.678230   -2.616737   -1.778236
      9          6           0        1.481854   -1.539715   -2.863459
     10          6           0        2.425326   -0.360970   -2.305749
     11          6           0        1.633677   -2.053079   -4.328489
     12          6           0        0.368693   -2.945774   -0.893352
     13          6           0       -0.484414   -4.010266   -1.534734
     14          6           0       -1.817446   -3.551829   -2.128090
     15          8           0       -1.890604   -3.062742   -3.249629
     16          8           0       -2.885037   -3.822139   -1.314254
     17          7           0        4.185465    2.060327   -1.480770
     18          6           0        3.380909    1.964878   -2.635934
     19          6           0        3.453673    3.212568   -3.370141
     20          6           0        4.173507    4.114263   -2.556555
     21          6           0        4.574522    3.395269   -1.339527
     22          6           0        2.827182    3.313778   -4.732280
     23          6           0        4.553405    5.487143   -2.976910
     24          8           0        4.210022    6.067573   -3.973812
     25          6           0        5.486345    6.324577   -2.143278
     26          7           0        5.582123    1.778196    1.116825
     27          6           0        5.713820    3.148638    0.899235
     28          6           0        6.408542    3.794828    2.117889
     29          6           0        7.013877    2.549383    2.848572
     30          6           0        6.287337    1.384242    2.176004
     31          6           0        7.453513    4.954619    1.806476
     32          6           0        6.688184    2.666075    4.389742
     33          6           0        7.889910    2.699151    5.374515
     34          7           0        4.928137   -1.091737    1.199938
     35          6           0        5.685457   -1.129056    2.386860
     36          6           0        5.708094   -2.461467    2.960478
     37          6           0        4.763945   -3.097496    2.099877
     38          6           0        4.343221   -2.196285    1.085653
     39          6           0        6.504767   -2.980112    4.071624
     40          6           0        4.092643   -4.409281    1.876046
     41          8           0        4.077063   -5.479166    2.494998
     42          6           0        3.229955   -4.206802    0.572259
     43          6           0        3.636471   -5.083867   -0.582787
     44          8           0        4.657636   -4.963597   -1.225374
     45          8           0        2.713178   -6.097260   -0.759372
     46          6           0        2.859399   -6.993461   -1.913318
     47          6           0       -4.180159   -3.702422   -1.984952
     48          6           0       -5.362920   -3.463777   -0.950745
     49          6           0       -5.643884   -2.344264   -0.216109
     50          6           0       -4.745939   -1.104250   -0.109729
     51          6           0       -6.970520   -2.188579    0.617688
     52          6           0       -8.206287   -1.903322   -0.250001
     53          6           0       -9.539160   -2.538801    0.163877
     54          6           0      -10.589460   -1.561899    0.693654
     55          6           0      -11.932530   -2.275621    0.949750
     56          6           0      -10.098404   -0.781174    2.002599
     57          6           0      -10.027115    0.720956    1.735018
     58          6           0       -9.533899    1.387754    2.958541
     59          6           0       -8.141473    1.905111    2.857544
     60          6           0       -7.442879    2.017790    4.157696
     61          6           0       -8.217595    3.390591    2.078813
     62          6           0       -7.183240    3.592375    0.940450
     63          6           0       -7.838740    4.031181   -0.401272
     64          6           0       -7.599250    5.555007   -0.719713
     65          6           0       -8.941418    6.286406   -0.539235
     66          6           0       -7.124808    5.821777   -2.140006
     67          1           0        2.061875    0.933149   -3.897588
     68          1           0        5.331363    4.956598    0.048790
     69          1           0        7.035198   -0.011671    3.598501
     70          1           0        1.958791   -3.612969   -2.121380
     71          1           0        0.485636   -1.096633   -2.859713
     72          1           0        0.609139   -2.137418   -4.688976
     73          1           0        2.156365   -3.010421   -4.329774
     74          1           0        2.166891   -1.360403   -4.978892
     75          1           0       -0.153618   -1.995298   -0.777565
     76          1           0        0.499092   -3.327377    0.119179
     77          1           0       -0.650410   -4.805942   -0.808697
     78          1           0        0.067612   -4.496745   -2.338828
     79          1           0        3.264179    2.577420   -5.406238
     80          1           0        2.862871    4.293189   -5.210228
     81          1           0        1.797492    2.983507   -4.598020
     82          1           0        6.212657    5.637584   -1.708157
     83          1           0        4.951383    6.755637   -1.298215
     84          1           0        5.888617    7.187969   -2.671652
     85          1           0        5.533939    4.143941    2.666193
     86          1           0        8.092811    2.512420    2.698488
     87          1           0        8.326937    4.822858    2.445886
     88          1           0        7.011316    5.935364    1.982782
     89          1           0        7.667687    4.843765    0.743823
     90          1           0        6.019570    1.891890    4.764721
     91          1           0        6.256856    3.630839    4.656283
     92          1           0        7.654435    2.177739    6.302979
     93          1           0        8.092090    3.754964    5.551601
     94          1           0        8.671776    2.081381    4.932694
     95          1           0        5.947446   -3.222562    4.976504
     96          1           0        7.212857   -2.173799    4.261968
     97          1           0        7.009903   -3.894391    3.764085
     98          1           0        2.221851   -4.429384    0.921626
     99          1           0        2.028797   -7.680802   -2.070518
    100          1           0        3.651686   -7.678453   -1.609000
    101          1           0        3.188438   -6.503660   -2.829637
    102          1           0       -4.437901   -4.636707   -2.483374
    103          1           0       -4.171044   -2.841846   -2.653271
    104          1           0       -6.034440   -4.321616   -0.905317
    105          1           0       -5.295005   -0.214247   -0.417429
    106          1           0       -3.881007   -1.324664   -0.735077
    107          1           0       -4.471351   -0.974148    0.937271
    108          1           0       -6.835538   -1.334734    1.281374
    109          1           0       -7.221057   -3.070675    1.205994
    110          1           0       -8.002518   -2.407973   -1.194410
    111          1           0       -8.250896   -0.817479   -0.338131
    112          1           0       -9.312778   -3.287860    0.922944
    113          1           0      -10.017887   -3.049210   -0.672752
    114          1           0      -10.896029   -0.754561    0.028195
    115          1           0      -12.557797   -2.179657    0.062000
    116          1           0      -12.397004   -1.940780    1.877089
    117          1           0      -11.708528   -3.331896    1.099549
    118          1           0       -9.168101   -1.234690    2.346272
    119          1           0      -10.819427   -0.919518    2.807574
    120          1           0      -11.055033    1.010591    1.514178
    121          1           0       -9.387964    0.952366    0.883466
    122          1           0       -9.652736    0.791306    3.863458
    123          1           0      -10.159226    2.233697    3.246423
    124          1           0       -7.554210    1.278728    2.184411
    125          1           0       -7.722075    1.238083    4.867614
    126          1           0       -7.491681    2.990187    4.647326
    127          1           0       -6.373332    1.853927    4.021509
    128          1           0       -8.074165    4.173399    2.823852
    129          1           0       -9.216762    3.582040    1.686649
    130          1           0       -6.645717    2.657603    0.781040
    131          1           0       -6.373670    4.240370    1.275426
    132          1           0       -8.879722    3.708700   -0.430881
    133          1           0       -7.300274    3.542478   -1.212659
    134          1           0       -6.901334    5.997056   -0.008829
    135          1           0       -9.430050    6.818993   -1.355588
    136          1           0       -8.712194    7.089984    0.160627
    137          1           0       -9.756271    5.693320   -0.124033
    138          1           0       -6.061434    5.581349   -2.134303
    139          1           0       -7.144084    6.864153   -2.458044
    140          1           0       -7.677434    5.251207   -2.885764
 ---------------------------------------------------------------------

 SCF Done:  E(RB-LYP) =  -3007.38372735     A.U. after   20 cycles

 Excitation energies and oscillator strengths:

 Excited State   1:      Singlet-A      1.5104 eV  820.85 nm  f=0.0008  <S**2>=0.000
     244 -> 247        0.47058
     245 -> 247        0.52683
 This state for optimization and/or second-order correction.
 Total Energy, E(TD-HF/TD-DFT) =  -3007.32821961
 Copying the excited state density for this state as the 1-particle RhoCI density.

 Excited State   2:      Singlet-A      1.7876 eV  693.56 nm  f=0.3040  <S**2>=0.000
     244 -> 248       -0.12316
     245 -> 248        0.14002
     246 -> 247        0.69183
     246 <- 247       -0.15849

 Excited State   3:      Singlet-A      1.9150 eV  647.44 nm  f=0.0023  <S**2>=0.000
     243 -> 247        0.70279

 Excited State   4:      Singlet-A      1.9667 eV  630.41 nm  f=0.0786  <S**2>=0.000
     242 -> 247        0.13725
     244 -> 247        0.48612
     245 -> 247       -0.42956
     246 -> 248        0.21916

 Excited State   5:      Singlet-A      2.3439 eV  528.96 nm  f=0.0171  <S**2>=0.000
     241 -> 247        0.34055
     242 -> 247        0.60260

 The electronic state is 1-A.
 Alpha  occ. eigenvalues --  -46.27838 -18.82846 -18.82284 -18.77363 -18.77033
 Alpha  occ. eigenvalues --  -18.76023 -18.74457 -14.03540 -14.03387 -14.01077
 Alpha  occ. eigenvalues --  -14.01073 -10.04525 -10.04246 -10.00009  -9.98652
 Alpha  occ. eigenvalues --   -9.98480  -9.98134  -9.96831  -9.96773  -9.96751
 Alpha  occ. eigenvalues --   -9.96726  -9.96375  -9.96311  -9.95483  -9.94718
 Alpha  occ. eigenvalues --   -9.94528  -9.94352  -9.94331  -9.94241  -9.94201
 Alpha  occ. eigenvalues --   -9.94017  -9.93888  -9.93757  -9.93599  -9.93562
 Alpha  occ. eigenvalues --   -9.93427  -9.93357  -9.93251  -9.93210  -9.93003
 Alpha  occ. eigenvalues --   -9.92847  -9.92655  -9.92599  -9.92576  -9.92361
 Alpha  occ. eigenvalues --   -9.92333  -9.92161  -9.92049  -9.91995  -9.91964
 Alpha  occ. eigenvalues --   -9.91887  -9.91648  -9.91535  -9.91501  -9.91443
 Alpha  occ. eigenvalues --   -9.91349  -9.91262  -9.91234  -9.91044  -9.90980
 Alpha  occ. eigenvalues --   -9.90679  -9.90650  -9.90600  -9.90579  -9.90099
 Alpha  occ. eigenvalues --   -9.90066  -2.92457  -1.72846  -1.72324  -1.72210
 Alpha  occ. eigenvalues --   -0.98369  -0.97609  -0.91823  -0.90699  -0.90424
 Alpha  occ. eigenvalues --   -0.90224  -0.88359  -0.86078  -0.85722  -0.83608
 Alpha  occ. eigenvalues --   -0.75135  -0.73869  -0.73146  -0.72794  -0.72201
 Alpha  occ. eigenvalues --   -0.72004  -0.71756  -0.71353  -0.71023  -0.70724
 Alpha  occ. eigenvalues --   -0.69422  -0.69185  -0.68069  -0.67515  -0.67286
 Alpha  occ. eigenvalues --   -0.66603  -0.65949  -0.65517  -0.65173  -0.64751
 Alpha  occ. eigenvalues --   -0.64356  -0.62911  -0.62187  -0.61761  -0.60768
 Alpha  occ. eigenvalues --   -0.60389  -0.60159  -0.59874  -0.59628  -0.58556
 Alpha  occ. eigenvalues --   -0.58514  -0.58042  -0.56850  -0.55724  -0.53988
 Alpha  occ. eigenvalues --   -0.53868  -0.53399  -0.52775  -0.51993  -0.51740
 Alpha  occ. eigenvalues --   -0.51542  -0.51321  -0.50980  -0.50631  -0.50116
 Alpha  occ. eigenvalues --   -0.50036  -0.49440  -0.49012  -0.48997  -0.46631
 Alpha  occ. eigenvalues --   -0.46331  -0.45888  -0.45555  -0.45322  -0.44944
 Alpha  occ. eigenvalues --   -0.44373  -0.43965  -0.43550  -0.43322  -0.42375
 Alpha  occ. eigenvalues --   -0.42276  -0.42060  -0.41666  -0.41254  -0.41230
 Alpha  occ. eigenvalues --   -0.40955  -0.40772  -0.40458  -0.40305  -0.40021
 Alpha  occ. eigenvalues --   -0.39769  -0.39619  -0.39424  -0.39206  -0.39143
 Alpha  occ. eigenvalues --   -0.38782  -0.38612  -0.38581  -0.38385  -0.38165
 Alpha  occ. eigenvalues --   -0.38021  -0.37954  -0.37443  -0.37350  -0.37207
 Alpha  occ. eigenvalues --   -0.37060  -0.36981  -0.36835  -0.36707  -0.36366
 Alpha  occ. eigenvalues --   -0.36349  -0.36113  -0.35976  -0.35728  -0.35656
 Alpha  occ. eigenvalues --   -0.35645  -0.35387  -0.35307  -0.34966  -0.34892
 Alpha  occ. eigenvalues --   -0.34836  -0.34812  -0.34364  -0.34331  -0.34231
 Alpha  occ. eigenvalues --   -0.34010  -0.33962  -0.33886  -0.33604  -0.33237
 Alpha  occ. eigenvalues --   -0.33132  -0.33029  -0.32823  -0.32774  -0.32498
 Alpha  occ. eigenvalues --   -0.32162  -0.32153  -0.32082  -0.31917  -0.31613
 Alpha  occ. eigenvalues --   -0.31404  -0.31132  -0.31082  -0.30934  -0.30782
 Alpha  occ. eigenvalues --   -0.30411  -0.30249  -0.30148  -0.29917  -0.29730
 Alpha  occ. eigenvalues --   -0.29576  -0.29548  -0.29350  -0.29279  -0.28865
 Alpha  occ. eigenvalues --   -0.28766  -0.28555  -0.28486  -0.28482  -0.28077
 Alpha  occ. eigenvalues --   -0.27609  -0.27517  -0.27323  -0.26855  -0.26470
 Alpha  occ. eigenvalues --   -0.26339  -0.26199  -0.25916  -0.25696  -0.25293
 Alpha  occ. eigenvalues --   -0.25096  -0.25016  -0.24393  -0.23914  -0.23626
 Alpha  occ. eigenvalues --   -0.23357  -0.22633  -0.22459  -0.22169  -0.21207
 Alpha  occ. eigenvalues --   -0.20582  -0.19982  -0.18860  -0.17572  -0.17302
 Alpha  occ. eigenvalues --   -0.16062
 Alpha virt. eigenvalues --   -0.11942  -0.07003  -0.06026  -0.04413  -0.03765
 Alpha virt. eigenvalues --   -0.03300  -0.03110  -0.02740  -0.01834   0.00050
 Alpha virt. eigenvalues --    0.00620   0.01294   0.02139   0.02350   0.02630

 Mulliken charges:
               1
     1  Mg   0.711422
     2  C   -0.019901
     3  C   -0.049641
     4  C   -0.038453
     5  C   -0.070711
     6  N   -0.242943
     7  C   -0.042802
     8  C    0.015234
     9  C    0.024196
    10  C    0.055725
    11  C    0.118189
    12  C    0.087053
    13  C    0.163299
    14  C    0.067842
    15  O   -0.204843
    16  O   -0.260193
    17  N   -0.273049
    18  C    0.094229
    19  C   -0.115062
    20  C    0.039401
    21  C    0.144917
    22  C    0.188306
    23  C   -0.115209
    24  O   -0.143241
    25  C    0.127355
    26  N   -0.204038
    27  C   -0.059823
    28  C    0.006891
    29  C    0.045595
    30  C    0.034786
    31  C    0.122870
    32  C    0.051691
    33  C    0.044916
    34  N   -0.269499
    35  C    0.086804
    36  C   -0.146964
    37  C    0.033219
    38  C    0.093116
    39  C    0.179975
    40  C   -0.026195
    41  O   -0.139198
    42  C    0.068330
    43  C    0.114588
    44  O   -0.169402
    45  O   -0.283079
    46  C    0.222580
    47  C    0.285523
    48  C   -0.108344
    49  C   -0.136351
    50  C    0.142575
    51  C    0.109895
    52  C    0.090343
    53  C    0.121754
    54  C   -0.080868
    55  C    0.109339
    56  C    0.059823
    57  C    0.084504
    58  C    0.141581
    59  C   -0.072317
    60  C    0.130994
    61  C    0.067246
    62  C    0.068830
    63  C    0.113505
    64  C   -0.068605
    65  C    0.082660
    66  C    0.107227
    67  H   -0.066454
    68  H   -0.065854
    69  H   -0.063925
    70  H   -0.020883
    71  H   -0.009418
    72  H    0.009806
    73  H   -0.006436
    74  H   -0.012570
    75  H   -0.011827
    76  H   -0.009339
    77  H   -0.015068
    78  H   -0.005933
    79  H   -0.006301
    80  H    0.008012
    81  H   -0.000791
    82  H   -0.007900
    83  H    0.003326
    84  H   -0.009649
    85  H   -0.009749
    86  H   -0.017297
    87  H    0.001375
    88  H   -0.001746
    89  H    0.006177
    90  H   -0.011147
    91  H   -0.022737
    92  H   -0.012512
    93  H    0.003947
    94  H   -0.010570
    95  H    0.015313
    96  H   -0.017029
    97  H    0.015287
    98  H   -0.008796
    99  H    0.017204
   100  H    0.006010
   101  H    0.018526
   102  H   -0.002278
   103  H    0.015476
   104  H   -0.035085
   105  H    0.005966
   106  H   -0.006282
   107  H    0.009231
   108  H   -0.028203
   109  H   -0.025091
   110  H   -0.032580
   111  H   -0.024659
   112  H   -0.034031
   113  H   -0.034921
   114  H   -0.039624
   115  H   -0.010327
   116  H   -0.019881
   117  H   -0.030386
   118  H   -0.038157
   119  H   -0.035892
   120  H   -0.035971
   121  H   -0.014760
   122  H   -0.058234
   123  H   -0.052964
   124  H   -0.037085
   125  H   -0.022487
   126  H   -0.016041
   127  H   -0.033101
   128  H   -0.035150
   129  H   -0.025772
   130  H   -0.041037
   131  H   -0.035015
   132  H   -0.017818
   133  H   -0.048292
   134  H   -0.030117
   135  H   -0.023759
   136  H   -0.027462
   137  H   -0.023966
   138  H   -0.024804
   139  H   -0.018882
   140  H   -0.009205
 Sum of Mulliken charges =  -0.00000

 Dipole moment (field-independent basis, Debye):
    X=             -1.0762    Y=              0.2846    Z=              2.5314  Tot=              2.7653
 Quadrupole moment (field-independent basis, Debye-Ang):
   XX=           -382.2946   YY=           -424.7449   ZZ=           -412.4370
   XY=             17.4549   XZ=             17.2639   YZ=             40.3056

 Normal termination of Gaussian 16 at Thu Apr 28 13:18:56 2022.
