 Gaussian 16, Revision A.03,
 Gaussian 16:  ES64L-G16RevA.03 25-Dec-2016

 -----------------------------------
 #p cam-b3lyp/Def2SVP td=(nstates=5)
 -----------------------------------

 --------------------------------------------------------
 step_1551_chromophore_23 TDDFT with cam-b3lyp functional
 --------------------------------------------------------
 Symbolic Z-matrix:
 Charge =  0 Multiplicity = 1

                         Standard orientation:
 ---------------------------------------------------------------------
 Center     Atomic      Atomic             Coordinates (Angstroms)
 Number     Number       Type             X           Y           Z
 ---------------------------------------------------------------------
      1         12           0        4.697864    0.294209   -0.181850
      2          6           0        3.381787   -2.757649    0.180137
      3          6           0        2.623056    0.813938   -2.968069
      4          6           0        5.195779    3.897158   -0.177098
      5          6           0        6.387849    0.088545    2.724868
      6          7           0        3.011508   -0.778310   -1.110151
      7          6           0        2.805123   -2.100170   -0.923855
      8          6           0        1.678230   -2.616737   -1.778236
      9          6           0        1.481854   -1.539715   -2.863459
     10          6           0        2.425326   -0.360970   -2.305749
     11          6           0        1.633677   -2.053079   -4.328489
     12          6           0        0.368693   -2.945774   -0.893352
     13          6           0       -0.484414   -4.010266   -1.534734
     14          6           0       -1.817446   -3.551829   -2.128090
     15          8           0       -1.890604   -3.062742   -3.249629
     16          8           0       -2.885037   -3.822139   -1.314254
     17          7           0        4.185465    2.060327   -1.480770
     18          6           0        3.380909    1.964878   -2.635934
     19          6           0        3.453673    3.212568   -3.370141
     20          6           0        4.173507    4.114263   -2.556555
     21          6           0        4.574522    3.395269   -1.339527
     22          6           0        2.827182    3.313778   -4.732280
     23          6           0        4.553405    5.487143   -2.976910
     24          8           0        4.210022    6.067573   -3.973812
     25          6           0        5.486345    6.324577   -2.143278
     26          7           0        5.582123    1.778196    1.116825
     27          6           0        5.713820    3.148638    0.899235
     28          6           0        6.408542    3.794828    2.117889
     29          6           0        7.013877    2.549383    2.848572
     30          6           0        6.287337    1.384242    2.176004
     31          6           0        7.453513    4.954619    1.806476
     32          6           0        6.688184    2.666075    4.389742
     33          6           0        7.889910    2.699151    5.374515
     34          7           0        4.928137   -1.091737    1.199938
     35          6           0        5.685457   -1.129056    2.386860
     36          6           0        5.708094   -2.461467    2.960478
     37          6           0        4.763945   -3.097496    2.099877
     38          6           0        4.343221   -2.196285    1.085653
     39          6           0        6.504767   -2.980112    4.071624
     40          6           0        4.092643   -4.409281    1.876046
     41          8           0        4.077063   -5.479166    2.494998
     42          6           0        3.229955   -4.206802    0.572259
     43          6           0        3.636471   -5.083867   -0.582787
     44          8           0        4.657636   -4.963597   -1.225374
     45          8           0        2.713178   -6.097260   -0.759372
     46          6           0        2.859399   -6.993461   -1.913318
     47          6           0       -4.180159   -3.702422   -1.984952
     48          6           0       -5.362920   -3.463777   -0.950745
     49          6           0       -5.643884   -2.344264   -0.216109
     50          6           0       -4.745939   -1.104250   -0.109729
     51          6           0       -6.970520   -2.188579    0.617688
     52          6           0       -8.206287   -1.903322   -0.250001
     53          6           0       -9.539160   -2.538801    0.163877
     54          6           0      -10.589460   -1.561899    0.693654
     55          6           0      -11.932530   -2.275621    0.949750
     56          6           0      -10.098404   -0.781174    2.002599
     57          6           0      -10.027115    0.720956    1.735018
     58          6           0       -9.533899    1.387754    2.958541
     59          6           0       -8.141473    1.905111    2.857544
     60          6           0       -7.442879    2.017790    4.157696
     61          6           0       -8.217595    3.390591    2.078813
     62          6           0       -7.183240    3.592375    0.940450
     63          6           0       -7.838740    4.031181   -0.401272
     64          6           0       -7.599250    5.555007   -0.719713
     65          6           0       -8.941418    6.286406   -0.539235
     66          6           0       -7.124808    5.821777   -2.140006
     67          1           0        2.061875    0.933149   -3.897588
     68          1           0        5.331363    4.956598    0.048790
     69          1           0        7.035198   -0.011671    3.598501
     70          1           0        1.958791   -3.612969   -2.121380
     71          1           0        0.485636   -1.096633   -2.859713
     72          1           0        0.609139   -2.137418   -4.688976
     73          1           0        2.156365   -3.010421   -4.329774
     74          1           0        2.166891   -1.360403   -4.978892
     75          1           0       -0.153618   -1.995298   -0.777565
     76          1           0        0.499092   -3.327377    0.119179
     77          1           0       -0.650410   -4.805942   -0.808697
     78          1           0        0.067612   -4.496745   -2.338828
     79          1           0        3.264179    2.577420   -5.406238
     80          1           0        2.862871    4.293189   -5.210228
     81          1           0        1.797492    2.983507   -4.598020
     82          1           0        6.212657    5.637584   -1.708157
     83          1           0        4.951383    6.755637   -1.298215
     84          1           0        5.888617    7.187969   -2.671652
     85          1           0        5.533939    4.143941    2.666193
     86          1           0        8.092811    2.512420    2.698488
     87          1           0        8.326937    4.822858    2.445886
     88          1           0        7.011316    5.935364    1.982782
     89          1           0        7.667687    4.843765    0.743823
     90          1           0        6.019570    1.891890    4.764721
     91          1           0        6.256856    3.630839    4.656283
     92          1           0        7.654435    2.177739    6.302979
     93          1           0        8.092090    3.754964    5.551601
     94          1           0        8.671776    2.081381    4.932694
     95          1           0        5.947446   -3.222562    4.976504
     96          1           0        7.212857   -2.173799    4.261968
     97          1           0        7.009903   -3.894391    3.764085
     98          1           0        2.221851   -4.429384    0.921626
     99          1           0        2.028797   -7.680802   -2.070518
    100          1           0        3.651686   -7.678453   -1.609000
    101          1           0        3.188438   -6.503660   -2.829637
    102          1           0       -4.437901   -4.636707   -2.483374
    103          1           0       -4.171044   -2.841846   -2.653271
    104          1           0       -6.034440   -4.321616   -0.905317
    105          1           0       -5.295005   -0.214247   -0.417429
    106          1           0       -3.881007   -1.324664   -0.735077
    107          1           0       -4.471351   -0.974148    0.937271
    108          1           0       -6.835538   -1.334734    1.281374
    109          1           0       -7.221057   -3.070675    1.205994
    110          1           0       -8.002518   -2.407973   -1.194410
    111          1           0       -8.250896   -0.817479   -0.338131
    112          1           0       -9.312778   -3.287860    0.922944
    113          1           0      -10.017887   -3.049210   -0.672752
    114          1           0      -10.896029   -0.754561    0.028195
    115          1           0      -12.557797   -2.179657    0.062000
    116          1           0      -12.397004   -1.940780    1.877089
    117          1           0      -11.708528   -3.331896    1.099549
    118          1           0       -9.168101   -1.234690    2.346272
    119          1           0      -10.819427   -0.919518    2.807574
    120          1           0      -11.055033    1.010591    1.514178
    121          1           0       -9.387964    0.952366    0.883466
    122          1           0       -9.652736    0.791306    3.863458
    123          1           0      -10.159226    2.233697    3.246423
    124          1           0       -7.554210    1.278728    2.184411
    125          1           0       -7.722075    1.238083    4.867614
    126          1           0       -7.491681    2.990187    4.647326
    127          1           0       -6.373332    1.853927    4.021509
    128          1           0       -8.074165    4.173399    2.823852
    129          1           0       -9.216762    3.582040    1.686649
    130          1           0       -6.645717    2.657603    0.781040
    131          1           0       -6.373670    4.240370    1.275426
    132          1           0       -8.879722    3.708700   -0.430881
    133          1           0       -7.300274    3.542478   -1.212659
    134          1           0       -6.901334    5.997056   -0.008829
    135          1           0       -9.430050    6.818993   -1.355588
    136          1           0       -8.712194    7.089984    0.160627
    137          1           0       -9.756271    5.693320   -0.124033
    138          1           0       -6.061434    5.581349   -2.134303
    139          1           0       -7.144084    6.864153   -2.458044
    140          1           0       -7.677434    5.251207   -2.885764
 ---------------------------------------------------------------------

 SCF Done:  E(RCAM-B3LYP) =  -3007.17421300     A.U. after   19 cycles

 Excitation energies and oscillator strengths:

 Excited State   1:      Singlet-A      1.6611 eV  746.38 nm  f=0.3843  <S**2>=0.000
     245 -> 248        0.17154
     246 -> 247        0.68784
     245 <- 248        0.10729
 This state for optimization and/or second-order correction.
 Total Energy, E(TD-HF/TD-DFT) =  -3007.11316687
 Copying the excited state density for this state as the 1-particle RhoCI density.

 Excited State   2:      Singlet-A      2.1671 eV  572.11 nm  f=0.1268  <S**2>=0.000
     245 -> 247        0.64630
     246 -> 248       -0.26881

 Excited State   3:      Singlet-A      3.1478 eV  393.87 nm  f=0.0036  <S**2>=0.000
     244 -> 247        0.67733
     246 -> 248        0.11719

 Excited State   4:      Singlet-A      3.3699 eV  367.92 nm  f=0.0053  <S**2>=0.000
     243 -> 247        0.58533
     243 -> 248        0.14381
     243 -> 249        0.20079
     243 -> 251       -0.24773

 Excited State   5:      Singlet-A      3.4110 eV  363.48 nm  f=0.0041  <S**2>=0.000
     240 -> 247        0.58455
     240 -> 249       -0.29399
     240 -> 251       -0.13593
     241 -> 247       -0.10053

 The electronic state is 1-A.
 Alpha  occ. eigenvalues --  -46.89446 -19.25701 -19.25254 -19.20299 -19.20218
 Alpha  occ. eigenvalues --  -19.19183 -19.17666 -14.42355 -14.42334 -14.39653
 Alpha  occ. eigenvalues --  -14.39442 -10.39795 -10.39773 -10.35407 -10.33761
 Alpha  occ. eigenvalues --  -10.32613 -10.32167 -10.31423 -10.31335 -10.31205
 Alpha  occ. eigenvalues --  -10.31100 -10.30867 -10.30599 -10.29953 -10.28966
 Alpha  occ. eigenvalues --  -10.28802 -10.28593 -10.28401 -10.28248 -10.28247
 Alpha  occ. eigenvalues --  -10.28247 -10.28153 -10.28104 -10.27798 -10.27702
 Alpha  occ. eigenvalues --  -10.27565 -10.27490 -10.27355 -10.27028 -10.26913
 Alpha  occ. eigenvalues --  -10.26761 -10.26681 -10.26559 -10.26366 -10.26274
 Alpha  occ. eigenvalues --  -10.26082 -10.25880 -10.25746 -10.25729 -10.25708
 Alpha  occ. eigenvalues --  -10.25687 -10.25668 -10.25240 -10.25192 -10.25085
 Alpha  occ. eigenvalues --  -10.25077 -10.24919 -10.24866 -10.24693 -10.24676
 Alpha  occ. eigenvalues --  -10.24625 -10.24228 -10.24171 -10.24146 -10.23653
 Alpha  occ. eigenvalues --  -10.23615  -3.17964  -1.92829  -1.92395  -1.92305
 Alpha  occ. eigenvalues --   -1.16792  -1.16211  -1.10294  -1.09039  -1.08261
 Alpha  occ. eigenvalues --   -1.08222  -1.06031  -1.03768  -1.03365  -1.01185
 Alpha  occ. eigenvalues --   -0.92239  -0.90729  -0.89926  -0.89556  -0.88971
 Alpha  occ. eigenvalues --   -0.88654  -0.88415  -0.87988  -0.87611  -0.87288
 Alpha  occ. eigenvalues --   -0.86044  -0.85568  -0.84305  -0.83720  -0.83470
 Alpha  occ. eigenvalues --   -0.82659  -0.81960  -0.81425  -0.81007  -0.80656
 Alpha  occ. eigenvalues --   -0.80208  -0.78564  -0.77745  -0.77460  -0.76219
 Alpha  occ. eigenvalues --   -0.75714  -0.75470  -0.75197  -0.74923  -0.73741
 Alpha  occ. eigenvalues --   -0.73555  -0.73079  -0.71759  -0.70528  -0.68606
 Alpha  occ. eigenvalues --   -0.68433  -0.67919  -0.67259  -0.66308  -0.65847
 Alpha  occ. eigenvalues --   -0.65785  -0.65478  -0.64973  -0.64694  -0.64081
 Alpha  occ. eigenvalues --   -0.63852  -0.63387  -0.62931  -0.62707  -0.60261
 Alpha  occ. eigenvalues --   -0.59976  -0.59447  -0.59072  -0.58710  -0.58511
 Alpha  occ. eigenvalues --   -0.57682  -0.57341  -0.56764  -0.56487  -0.55533
 Alpha  occ. eigenvalues --   -0.55391  -0.55194  -0.54758  -0.54313  -0.54208
 Alpha  occ. eigenvalues --   -0.53831  -0.53380  -0.53245  -0.53025  -0.52931
 Alpha  occ. eigenvalues --   -0.52371  -0.52182  -0.52075  -0.51890  -0.51782
 Alpha  occ. eigenvalues --   -0.51625  -0.51357  -0.50959  -0.50885  -0.50579
 Alpha  occ. eigenvalues --   -0.50377  -0.50282  -0.50072  -0.49579  -0.49449
 Alpha  occ. eigenvalues --   -0.49283  -0.49113  -0.49037  -0.48932  -0.48683
 Alpha  occ. eigenvalues --   -0.48462  -0.48323  -0.48233  -0.48093  -0.47957
 Alpha  occ. eigenvalues --   -0.47679  -0.47640  -0.47284  -0.47075  -0.46910
 Alpha  occ. eigenvalues --   -0.46638  -0.46603  -0.46316  -0.46240  -0.46148
 Alpha  occ. eigenvalues --   -0.46064  -0.45910  -0.45679  -0.45483  -0.45069
 Alpha  occ. eigenvalues --   -0.44851  -0.44703  -0.44609  -0.44426  -0.44250
 Alpha  occ. eigenvalues --   -0.43864  -0.43616  -0.43605  -0.43510  -0.43232
 Alpha  occ. eigenvalues --   -0.43120  -0.42693  -0.42419  -0.42293  -0.42245
 Alpha  occ. eigenvalues --   -0.41853  -0.41633  -0.41569  -0.41335  -0.41146
 Alpha  occ. eigenvalues --   -0.41081  -0.40917  -0.40604  -0.40403  -0.39903
 Alpha  occ. eigenvalues --   -0.39744  -0.39628  -0.39480  -0.39380  -0.39011
 Alpha  occ. eigenvalues --   -0.38603  -0.38343  -0.38232  -0.37746  -0.37738
 Alpha  occ. eigenvalues --   -0.37159  -0.37034  -0.36894  -0.36723  -0.36536
 Alpha  occ. eigenvalues --   -0.35884  -0.35578  -0.34922  -0.34822  -0.34647
 Alpha  occ. eigenvalues --   -0.34377  -0.33558  -0.33280  -0.31506  -0.30771
 Alpha  occ. eigenvalues --   -0.30517  -0.30373  -0.29780  -0.29352  -0.24223
 Alpha  occ. eigenvalues --   -0.21339
 Alpha virt. eigenvalues --   -0.09202  -0.01853   0.00443   0.01743   0.02594
 Alpha virt. eigenvalues --    0.03868   0.04339   0.04891   0.05458   0.06451
 Alpha virt. eigenvalues --    0.06900   0.08296   0.08394   0.08746   0.09063

 Mulliken charges:
               1
     1  Mg   0.842255
     2  C   -0.045669
     3  C   -0.072160
     4  C   -0.062812
     5  C   -0.076134
     6  N   -0.313194
     7  C    0.001046
     8  C   -0.030117
     9  C   -0.030793
    10  C    0.079028
    11  C    0.062550
    12  C    0.036275
    13  C    0.093040
    14  C    0.148301
    15  O   -0.247413
    16  O   -0.323304
    17  N   -0.352431
    18  C    0.104141
    19  C   -0.117351
    20  C   -0.034549
    21  C    0.171199
    22  C    0.127580
    23  C   -0.032051
    24  O   -0.184516
    25  C    0.044730
    26  N   -0.276340
    27  C   -0.028172
    28  C   -0.050980
    29  C   -0.014195
    30  C    0.056009
    31  C    0.065779
    32  C   -0.004739
    33  C   -0.010935
    34  N   -0.364925
    35  C    0.085335
    36  C   -0.141489
    37  C   -0.046650
    38  C    0.131738
    39  C    0.131693
    40  C    0.077981
    41  O   -0.179103
    42  C   -0.007540
    43  C    0.200068
    44  O   -0.204499
    45  O   -0.347334
    46  C    0.180136
    47  C    0.253563
    48  C   -0.133639
    49  C   -0.155226
    50  C    0.087350
    51  C    0.056408
    52  C    0.034017
    53  C    0.066621
    54  C   -0.133636
    55  C    0.051682
    56  C    0.011281
    57  C    0.031194
    58  C    0.078328
    59  C   -0.122698
    60  C    0.070653
    61  C    0.019988
    62  C    0.016685
    63  C    0.054167
    64  C   -0.126485
    65  C    0.023170
    66  C    0.044993
    67  H   -0.030632
    68  H   -0.027296
    69  H   -0.030571
    70  H    0.007995
    71  H    0.025558
    72  H    0.035376
    73  H    0.016903
    74  H    0.012270
    75  H    0.018523
    76  H    0.021074
    77  H    0.021557
    78  H    0.024509
    79  H    0.021389
    80  H    0.041506
    81  H    0.023982
    82  H    0.017416
    83  H    0.030175
    84  H    0.026374
    85  H    0.025164
    86  H    0.016569
    87  H    0.025123
    88  H    0.022075
    89  H    0.028892
    90  H    0.019007
    91  H    0.005675
    92  H    0.012660
    93  H    0.024965
    94  H    0.009954
    95  H    0.042051
    96  H    0.005462
    97  H    0.041601
    98  H    0.034064
    99  H    0.040870
   100  H    0.030587
   101  H    0.041285
   102  H    0.025199
   103  H    0.046090
   104  H   -0.003306
   105  H    0.026797
   106  H    0.015335
   107  H    0.032741
   108  H   -0.002449
   109  H    0.004953
   110  H   -0.001381
   111  H    0.000309
   112  H   -0.006598
   113  H   -0.004168
   114  H   -0.006915
   115  H    0.013603
   116  H    0.004859
   117  H   -0.005924
   118  H   -0.012453
   119  H   -0.007136
   120  H   -0.005896
   121  H    0.006879
   122  H   -0.026422
   123  H   -0.021103
   124  H   -0.010623
   125  H    0.002915
   126  H    0.007943
   127  H   -0.006782
   128  H   -0.007087
   129  H   -0.000929
   130  H   -0.014247
   131  H   -0.006103
   132  H    0.008542
   133  H   -0.016335
   134  H    0.001525
   135  H    0.001981
   136  H   -0.003229
   137  H   -0.001182
   138  H   -0.000009
   139  H    0.006426
   140  H    0.014160
 Sum of Mulliken charges =  -0.00000

 Dipole moment (field-independent basis, Debye):
    X=             -0.9943    Y=              0.5439    Z=              2.4338  Tot=              2.6848
 Quadrupole moment (field-independent basis, Debye-Ang):
   XX=           -380.4265   YY=           -421.3469   ZZ=           -410.8896
   XY=             20.4651   XZ=             17.6680   YZ=             41.4942

 Normal termination of Gaussian 16 at Thu Apr 28 12:18:18 2022.
