 Gaussian 16, Revision A.03,
 Gaussian 16:  ES64L-G16RevA.03 25-Dec-2016

 ---------------------------------
 #p PBE1PBE/Def2SVP td=(nstates=5)
 ---------------------------------

 ------------------------------------------------------
 step_1551_chromophore_23 TDDFT with PBE1PBE functional
 ------------------------------------------------------
 Symbolic Z-matrix:
 Charge =  0 Multiplicity = 1

                         Standard orientation:
 ---------------------------------------------------------------------
 Center     Atomic      Atomic             Coordinates (Angstroms)
 Number     Number       Type             X           Y           Z
 ---------------------------------------------------------------------
      1         12           0        4.697864    0.294209   -0.181850
      2          6           0        3.381787   -2.757649    0.180137
      3          6           0        2.623056    0.813938   -2.968069
      4          6           0        5.195779    3.897158   -0.177098
      5          6           0        6.387849    0.088545    2.724868
      6          7           0        3.011508   -0.778310   -1.110151
      7          6           0        2.805123   -2.100170   -0.923855
      8          6           0        1.678230   -2.616737   -1.778236
      9          6           0        1.481854   -1.539715   -2.863459
     10          6           0        2.425326   -0.360970   -2.305749
     11          6           0        1.633677   -2.053079   -4.328489
     12          6           0        0.368693   -2.945774   -0.893352
     13          6           0       -0.484414   -4.010266   -1.534734
     14          6           0       -1.817446   -3.551829   -2.128090
     15          8           0       -1.890604   -3.062742   -3.249629
     16          8           0       -2.885037   -3.822139   -1.314254
     17          7           0        4.185465    2.060327   -1.480770
     18          6           0        3.380909    1.964878   -2.635934
     19          6           0        3.453673    3.212568   -3.370141
     20          6           0        4.173507    4.114263   -2.556555
     21          6           0        4.574522    3.395269   -1.339527
     22          6           0        2.827182    3.313778   -4.732280
     23          6           0        4.553405    5.487143   -2.976910
     24          8           0        4.210022    6.067573   -3.973812
     25          6           0        5.486345    6.324577   -2.143278
     26          7           0        5.582123    1.778196    1.116825
     27          6           0        5.713820    3.148638    0.899235
     28          6           0        6.408542    3.794828    2.117889
     29          6           0        7.013877    2.549383    2.848572
     30          6           0        6.287337    1.384242    2.176004
     31          6           0        7.453513    4.954619    1.806476
     32          6           0        6.688184    2.666075    4.389742
     33          6           0        7.889910    2.699151    5.374515
     34          7           0        4.928137   -1.091737    1.199938
     35          6           0        5.685457   -1.129056    2.386860
     36          6           0        5.708094   -2.461467    2.960478
     37          6           0        4.763945   -3.097496    2.099877
     38          6           0        4.343221   -2.196285    1.085653
     39          6           0        6.504767   -2.980112    4.071624
     40          6           0        4.092643   -4.409281    1.876046
     41          8           0        4.077063   -5.479166    2.494998
     42          6           0        3.229955   -4.206802    0.572259
     43          6           0        3.636471   -5.083867   -0.582787
     44          8           0        4.657636   -4.963597   -1.225374
     45          8           0        2.713178   -6.097260   -0.759372
     46          6           0        2.859399   -6.993461   -1.913318
     47          6           0       -4.180159   -3.702422   -1.984952
     48          6           0       -5.362920   -3.463777   -0.950745
     49          6           0       -5.643884   -2.344264   -0.216109
     50          6           0       -4.745939   -1.104250   -0.109729
     51          6           0       -6.970520   -2.188579    0.617688
     52          6           0       -8.206287   -1.903322   -0.250001
     53          6           0       -9.539160   -2.538801    0.163877
     54          6           0      -10.589460   -1.561899    0.693654
     55          6           0      -11.932530   -2.275621    0.949750
     56          6           0      -10.098404   -0.781174    2.002599
     57          6           0      -10.027115    0.720956    1.735018
     58          6           0       -9.533899    1.387754    2.958541
     59          6           0       -8.141473    1.905111    2.857544
     60          6           0       -7.442879    2.017790    4.157696
     61          6           0       -8.217595    3.390591    2.078813
     62          6           0       -7.183240    3.592375    0.940450
     63          6           0       -7.838740    4.031181   -0.401272
     64          6           0       -7.599250    5.555007   -0.719713
     65          6           0       -8.941418    6.286406   -0.539235
     66          6           0       -7.124808    5.821777   -2.140006
     67          1           0        2.061875    0.933149   -3.897588
     68          1           0        5.331363    4.956598    0.048790
     69          1           0        7.035198   -0.011671    3.598501
     70          1           0        1.958791   -3.612969   -2.121380
     71          1           0        0.485636   -1.096633   -2.859713
     72          1           0        0.609139   -2.137418   -4.688976
     73          1           0        2.156365   -3.010421   -4.329774
     74          1           0        2.166891   -1.360403   -4.978892
     75          1           0       -0.153618   -1.995298   -0.777565
     76          1           0        0.499092   -3.327377    0.119179
     77          1           0       -0.650410   -4.805942   -0.808697
     78          1           0        0.067612   -4.496745   -2.338828
     79          1           0        3.264179    2.577420   -5.406238
     80          1           0        2.862871    4.293189   -5.210228
     81          1           0        1.797492    2.983507   -4.598020
     82          1           0        6.212657    5.637584   -1.708157
     83          1           0        4.951383    6.755637   -1.298215
     84          1           0        5.888617    7.187969   -2.671652
     85          1           0        5.533939    4.143941    2.666193
     86          1           0        8.092811    2.512420    2.698488
     87          1           0        8.326937    4.822858    2.445886
     88          1           0        7.011316    5.935364    1.982782
     89          1           0        7.667687    4.843765    0.743823
     90          1           0        6.019570    1.891890    4.764721
     91          1           0        6.256856    3.630839    4.656283
     92          1           0        7.654435    2.177739    6.302979
     93          1           0        8.092090    3.754964    5.551601
     94          1           0        8.671776    2.081381    4.932694
     95          1           0        5.947446   -3.222562    4.976504
     96          1           0        7.212857   -2.173799    4.261968
     97          1           0        7.009903   -3.894391    3.764085
     98          1           0        2.221851   -4.429384    0.921626
     99          1           0        2.028797   -7.680802   -2.070518
    100          1           0        3.651686   -7.678453   -1.609000
    101          1           0        3.188438   -6.503660   -2.829637
    102          1           0       -4.437901   -4.636707   -2.483374
    103          1           0       -4.171044   -2.841846   -2.653271
    104          1           0       -6.034440   -4.321616   -0.905317
    105          1           0       -5.295005   -0.214247   -0.417429
    106          1           0       -3.881007   -1.324664   -0.735077
    107          1           0       -4.471351   -0.974148    0.937271
    108          1           0       -6.835538   -1.334734    1.281374
    109          1           0       -7.221057   -3.070675    1.205994
    110          1           0       -8.002518   -2.407973   -1.194410
    111          1           0       -8.250896   -0.817479   -0.338131
    112          1           0       -9.312778   -3.287860    0.922944
    113          1           0      -10.017887   -3.049210   -0.672752
    114          1           0      -10.896029   -0.754561    0.028195
    115          1           0      -12.557797   -2.179657    0.062000
    116          1           0      -12.397004   -1.940780    1.877089
    117          1           0      -11.708528   -3.331896    1.099549
    118          1           0       -9.168101   -1.234690    2.346272
    119          1           0      -10.819427   -0.919518    2.807574
    120          1           0      -11.055033    1.010591    1.514178
    121          1           0       -9.387964    0.952366    0.883466
    122          1           0       -9.652736    0.791306    3.863458
    123          1           0      -10.159226    2.233697    3.246423
    124          1           0       -7.554210    1.278728    2.184411
    125          1           0       -7.722075    1.238083    4.867614
    126          1           0       -7.491681    2.990187    4.647326
    127          1           0       -6.373332    1.853927    4.021509
    128          1           0       -8.074165    4.173399    2.823852
    129          1           0       -9.216762    3.582040    1.686649
    130          1           0       -6.645717    2.657603    0.781040
    131          1           0       -6.373670    4.240370    1.275426
    132          1           0       -8.879722    3.708700   -0.430881
    133          1           0       -7.300274    3.542478   -1.212659
    134          1           0       -6.901334    5.997056   -0.008829
    135          1           0       -9.430050    6.818993   -1.355588
    136          1           0       -8.712194    7.089984    0.160627
    137          1           0       -9.756271    5.693320   -0.124033
    138          1           0       -6.061434    5.581349   -2.134303
    139          1           0       -7.144084    6.864153   -2.458044
    140          1           0       -7.677434    5.251207   -2.885764
 ---------------------------------------------------------------------

 SCF Done:  E(RPBE1PBE) =  -3005.36312780     A.U. after   15 cycles

 Excitation energies and oscillator strengths:

 Excited State   1:      Singlet-A      1.8244 eV  679.60 nm  f=0.3700  <S**2>=0.000
     245 -> 248        0.16586
     246 -> 247        0.69545
     246 <- 247       -0.11606
 This state for optimization and/or second-order correction.
 Total Energy, E(TD-HF/TD-DFT) =  -3005.29608368
 Copying the excited state density for this state as the 1-particle RhoCI density.

 Excited State   2:      Singlet-A      2.1732 eV  570.51 nm  f=0.1184  <S**2>=0.000
     245 -> 247        0.65570
     246 -> 248       -0.24014

 Excited State   3:      Singlet-A      2.6939 eV  460.23 nm  f=0.0012  <S**2>=0.000
     244 -> 247        0.68409
     244 -> 250       -0.10023

 Excited State   4:      Singlet-A      2.8409 eV  436.43 nm  f=0.0125  <S**2>=0.000
     243 -> 247        0.68800

 Excited State   5:      Singlet-A      2.9121 eV  425.75 nm  f=0.0003  <S**2>=0.000
     241 -> 247        0.63193
     241 -> 249       -0.15436
     242 -> 247       -0.22976

 The electronic state is 1-A.
 Alpha  occ. eigenvalues --  -46.92847 -19.26387 -19.25912 -19.20588 -19.20417
 Alpha  occ. eigenvalues --  -19.19475 -19.17820 -14.41929 -14.41804 -14.39299
 Alpha  occ. eigenvalues --  -14.39083 -10.36842 -10.36785 -10.32617 -10.30833
 Alpha  occ. eigenvalues --  -10.30031 -10.29392 -10.29116 -10.29061 -10.28947
 Alpha  occ. eigenvalues --  -10.28881 -10.28512 -10.28448 -10.27596 -10.26632
 Alpha  occ. eigenvalues --  -10.26497 -10.26418 -10.26202 -10.26091 -10.26013
 Alpha  occ. eigenvalues --  -10.25940 -10.25864 -10.25770 -10.25624 -10.25452
 Alpha  occ. eigenvalues --  -10.25195 -10.25087 -10.24845 -10.24553 -10.24504
 Alpha  occ. eigenvalues --  -10.24406 -10.24162 -10.24114 -10.24040 -10.23659
 Alpha  occ. eigenvalues --  -10.23639 -10.23579 -10.23373 -10.23350 -10.23326
 Alpha  occ. eigenvalues --  -10.23157 -10.23148 -10.22946 -10.22748 -10.22693
 Alpha  occ. eigenvalues --  -10.22617 -10.22494 -10.22414 -10.22246 -10.22127
 Alpha  occ. eigenvalues --  -10.21967 -10.21594 -10.21576 -10.21504 -10.21184
 Alpha  occ. eigenvalues --  -10.20999  -3.14946  -1.87750  -1.87295  -1.87210
 Alpha  occ. eigenvalues --   -1.11610  -1.10964  -1.04995  -1.03823  -1.03134
 Alpha  occ. eigenvalues --   -1.03045  -1.00804  -0.98371  -0.97983  -0.95780
 Alpha  occ. eigenvalues --   -0.86604  -0.84809  -0.84125  -0.83679  -0.83282
 Alpha  occ. eigenvalues --   -0.82931  -0.82511  -0.82329  -0.81735  -0.81626
 Alpha  occ. eigenvalues --   -0.80327  -0.79815  -0.78473  -0.78014  -0.77732
 Alpha  occ. eigenvalues --   -0.76828  -0.76216  -0.75586  -0.75323  -0.74852
 Alpha  occ. eigenvalues --   -0.74471  -0.72884  -0.72060  -0.71710  -0.70555
 Alpha  occ. eigenvalues --   -0.70055  -0.69661  -0.69267  -0.69060  -0.67930
 Alpha  occ. eigenvalues --   -0.67901  -0.67494  -0.66216  -0.64820  -0.63082
 Alpha  occ. eigenvalues --   -0.62806  -0.62125  -0.61695  -0.60529  -0.60227
 Alpha  occ. eigenvalues --   -0.59966  -0.59908  -0.59563  -0.59268  -0.58402
 Alpha  occ. eigenvalues --   -0.58173  -0.57537  -0.57303  -0.57099  -0.54884
 Alpha  occ. eigenvalues --   -0.54515  -0.53841  -0.53656  -0.53295  -0.53017
 Alpha  occ. eigenvalues --   -0.52183  -0.51936  -0.51110  -0.51065  -0.50100
 Alpha  occ. eigenvalues --   -0.49827  -0.49548  -0.49332  -0.48899  -0.48755
 Alpha  occ. eigenvalues --   -0.48387  -0.47853  -0.47771  -0.47676  -0.47442
 Alpha  occ. eigenvalues --   -0.46919  -0.46726  -0.46574  -0.46362  -0.46337
 Alpha  occ. eigenvalues --   -0.46139  -0.45824  -0.45482  -0.45396  -0.45219
 Alpha  occ. eigenvalues --   -0.44941  -0.44863  -0.44628  -0.44183  -0.44002
 Alpha  occ. eigenvalues --   -0.43951  -0.43690  -0.43584  -0.43534  -0.43338
 Alpha  occ. eigenvalues --   -0.43081  -0.42895  -0.42840  -0.42724  -0.42561
 Alpha  occ. eigenvalues --   -0.42398  -0.42307  -0.41859  -0.41690  -0.41673
 Alpha  occ. eigenvalues --   -0.41301  -0.41181  -0.41092  -0.40965  -0.40842
 Alpha  occ. eigenvalues --   -0.40741  -0.40625  -0.40252  -0.40202  -0.39819
 Alpha  occ. eigenvalues --   -0.39557  -0.39431  -0.39322  -0.39149  -0.39030
 Alpha  occ. eigenvalues --   -0.38618  -0.38396  -0.38335  -0.38282  -0.38026
 Alpha  occ. eigenvalues --   -0.37942  -0.37557  -0.37155  -0.37148  -0.37102
 Alpha  occ. eigenvalues --   -0.36697  -0.36443  -0.36289  -0.36077  -0.36045
 Alpha  occ. eigenvalues --   -0.35872  -0.35809  -0.35407  -0.35367  -0.34814
 Alpha  occ. eigenvalues --   -0.34544  -0.34512  -0.34295  -0.34094  -0.33766
 Alpha  occ. eigenvalues --   -0.33613  -0.33152  -0.32977  -0.32763  -0.32614
 Alpha  occ. eigenvalues --   -0.32178  -0.32010  -0.31714  -0.31675  -0.31544
 Alpha  occ. eigenvalues --   -0.30831  -0.30474  -0.29796  -0.29783  -0.29597
 Alpha  occ. eigenvalues --   -0.29256  -0.28893  -0.28558  -0.27185  -0.26216
 Alpha  occ. eigenvalues --   -0.25718  -0.25655  -0.24985  -0.24410  -0.21150
 Alpha  occ. eigenvalues --   -0.19001
 Alpha virt. eigenvalues --   -0.11614  -0.05366  -0.03736  -0.01845  -0.01054
 Alpha virt. eigenvalues --   -0.00593  -0.00128   0.00273   0.01062   0.03002
 Alpha virt. eigenvalues --    0.03271   0.04264   0.05090   0.05159   0.05443

 Mulliken charges:
               1
     1  Mg   0.983623
     2  C   -0.051087
     3  C   -0.074166
     4  C   -0.066370
     5  C   -0.073338
     6  N   -0.412431
     7  C    0.076014
     8  C   -0.101959
     9  C   -0.100693
    10  C    0.116000
    11  C    0.003242
    12  C   -0.011853
    13  C    0.016739
    14  C    0.214563
    15  O   -0.279455
    16  O   -0.352271
    17  N   -0.455393
    18  C    0.129674
    19  C   -0.137925
    20  C   -0.090030
    21  C    0.202001
    22  C    0.067763
    23  C    0.028572
    24  O   -0.223156
    25  C   -0.037859
    26  N   -0.383667
    27  C    0.017341
    28  C   -0.126334
    29  C   -0.097083
    30  C    0.098942
    31  C    0.002176
    32  C   -0.060516
    33  C   -0.082023
    34  N   -0.503134
    35  C    0.103057
    36  C   -0.154765
    37  C   -0.097258
    38  C    0.191165
    39  C    0.077436
    40  C    0.174738
    41  O   -0.224523
    42  C   -0.115411
    43  C    0.287945
    44  O   -0.239509
    45  O   -0.380742
    46  C    0.124546
    47  C    0.207195
    48  C   -0.142867
    49  C   -0.193021
    50  C    0.016359
    51  C   -0.011147
    52  C   -0.029759
    53  C    0.007464
    54  C   -0.217734
    55  C   -0.007595
    56  C   -0.038709
    57  C   -0.040572
    58  C    0.023602
    59  C   -0.217457
    60  C    0.014484
    61  C   -0.026445
    62  C   -0.044269
    63  C   -0.005230
    64  C   -0.218768
    65  C   -0.031613
    66  C   -0.019670
    67  H    0.000082
    68  H    0.006085
    69  H    0.002926
    70  H    0.051871
    71  H    0.061740
    72  H    0.062650
    73  H    0.044035
    74  H    0.039436
    75  H    0.050834
    76  H    0.053377
    77  H    0.053355
    78  H    0.056263
    79  H    0.049805
    80  H    0.068906
    81  H    0.051575
    82  H    0.046935
    83  H    0.057494
    84  H    0.054275
    85  H    0.063219
    86  H    0.052763
    87  H    0.052771
    88  H    0.049344
    89  H    0.057858
    90  H    0.050981
    91  H    0.038513
    92  H    0.040980
    93  H    0.052159
    94  H    0.037213
    95  H    0.068940
    96  H    0.034293
    97  H    0.068964
    98  H    0.072402
    99  H    0.062519
   100  H    0.053374
   101  H    0.061975
   102  H    0.052160
   103  H    0.071802
   104  H    0.026128
   105  H    0.055240
   106  H    0.046042
   107  H    0.060768
   108  H    0.033419
   109  H    0.036818
   110  H    0.033376
   111  H    0.034642
   112  H    0.025388
   113  H    0.029088
   114  H    0.031349
   115  H    0.041223
   116  H    0.031952
   117  H    0.022232
   118  H    0.023221
   119  H    0.025518
   120  H    0.028296
   121  H    0.041178
   122  H    0.005226
   123  H    0.012928
   124  H    0.030975
   125  H    0.030095
   126  H    0.034439
   127  H    0.021621
   128  H    0.025301
   129  H    0.030256
   130  H    0.018413
   131  H    0.025412
   132  H    0.038487
   133  H    0.018302
   134  H    0.037690
   135  H    0.028598
   136  H    0.024496
   137  H    0.025575
   138  H    0.029262
   139  H    0.034800
   140  H    0.041540
 Sum of Mulliken charges =  -0.00000

 Dipole moment (field-independent basis, Debye):
    X=             -1.0060    Y=              0.4906    Z=              2.5457  Tot=              2.7809
 Quadrupole moment (field-independent basis, Debye-Ang):
   XX=           -376.5100   YY=           -418.4167   ZZ=           -406.9141
   XY=             20.5946   XZ=             19.1267   YZ=             42.1370

 Normal termination of Gaussian 16 at Thu Apr 28 12:33:41 2022.
