 Gaussian 16, Revision A.03,
 Gaussian 16:  ES64L-G16RevA.03 25-Dec-2016

 --------------------------------
 #p wB97XD/Def2SVP td=(nstates=5)
 --------------------------------

 -----------------------------------------------------
 step_1551_chromophore_23 TDDFT with wB97XD functional
 -----------------------------------------------------
 Symbolic Z-matrix:
 Charge =  0 Multiplicity = 1

                         Standard orientation:
 ---------------------------------------------------------------------
 Center     Atomic      Atomic             Coordinates (Angstroms)
 Number     Number       Type             X           Y           Z
 ---------------------------------------------------------------------
      1         12           0        4.697864    0.294209   -0.181850
      2          6           0        3.381787   -2.757649    0.180137
      3          6           0        2.623056    0.813938   -2.968069
      4          6           0        5.195779    3.897158   -0.177098
      5          6           0        6.387849    0.088545    2.724868
      6          7           0        3.011508   -0.778310   -1.110151
      7          6           0        2.805123   -2.100170   -0.923855
      8          6           0        1.678230   -2.616737   -1.778236
      9          6           0        1.481854   -1.539715   -2.863459
     10          6           0        2.425326   -0.360970   -2.305749
     11          6           0        1.633677   -2.053079   -4.328489
     12          6           0        0.368693   -2.945774   -0.893352
     13          6           0       -0.484414   -4.010266   -1.534734
     14          6           0       -1.817446   -3.551829   -2.128090
     15          8           0       -1.890604   -3.062742   -3.249629
     16          8           0       -2.885037   -3.822139   -1.314254
     17          7           0        4.185465    2.060327   -1.480770
     18          6           0        3.380909    1.964878   -2.635934
     19          6           0        3.453673    3.212568   -3.370141
     20          6           0        4.173507    4.114263   -2.556555
     21          6           0        4.574522    3.395269   -1.339527
     22          6           0        2.827182    3.313778   -4.732280
     23          6           0        4.553405    5.487143   -2.976910
     24          8           0        4.210022    6.067573   -3.973812
     25          6           0        5.486345    6.324577   -2.143278
     26          7           0        5.582123    1.778196    1.116825
     27          6           0        5.713820    3.148638    0.899235
     28          6           0        6.408542    3.794828    2.117889
     29          6           0        7.013877    2.549383    2.848572
     30          6           0        6.287337    1.384242    2.176004
     31          6           0        7.453513    4.954619    1.806476
     32          6           0        6.688184    2.666075    4.389742
     33          6           0        7.889910    2.699151    5.374515
     34          7           0        4.928137   -1.091737    1.199938
     35          6           0        5.685457   -1.129056    2.386860
     36          6           0        5.708094   -2.461467    2.960478
     37          6           0        4.763945   -3.097496    2.099877
     38          6           0        4.343221   -2.196285    1.085653
     39          6           0        6.504767   -2.980112    4.071624
     40          6           0        4.092643   -4.409281    1.876046
     41          8           0        4.077063   -5.479166    2.494998
     42          6           0        3.229955   -4.206802    0.572259
     43          6           0        3.636471   -5.083867   -0.582787
     44          8           0        4.657636   -4.963597   -1.225374
     45          8           0        2.713178   -6.097260   -0.759372
     46          6           0        2.859399   -6.993461   -1.913318
     47          6           0       -4.180159   -3.702422   -1.984952
     48          6           0       -5.362920   -3.463777   -0.950745
     49          6           0       -5.643884   -2.344264   -0.216109
     50          6           0       -4.745939   -1.104250   -0.109729
     51          6           0       -6.970520   -2.188579    0.617688
     52          6           0       -8.206287   -1.903322   -0.250001
     53          6           0       -9.539160   -2.538801    0.163877
     54          6           0      -10.589460   -1.561899    0.693654
     55          6           0      -11.932530   -2.275621    0.949750
     56          6           0      -10.098404   -0.781174    2.002599
     57          6           0      -10.027115    0.720956    1.735018
     58          6           0       -9.533899    1.387754    2.958541
     59          6           0       -8.141473    1.905111    2.857544
     60          6           0       -7.442879    2.017790    4.157696
     61          6           0       -8.217595    3.390591    2.078813
     62          6           0       -7.183240    3.592375    0.940450
     63          6           0       -7.838740    4.031181   -0.401272
     64          6           0       -7.599250    5.555007   -0.719713
     65          6           0       -8.941418    6.286406   -0.539235
     66          6           0       -7.124808    5.821777   -2.140006
     67          1           0        2.061875    0.933149   -3.897588
     68          1           0        5.331363    4.956598    0.048790
     69          1           0        7.035198   -0.011671    3.598501
     70          1           0        1.958791   -3.612969   -2.121380
     71          1           0        0.485636   -1.096633   -2.859713
     72          1           0        0.609139   -2.137418   -4.688976
     73          1           0        2.156365   -3.010421   -4.329774
     74          1           0        2.166891   -1.360403   -4.978892
     75          1           0       -0.153618   -1.995298   -0.777565
     76          1           0        0.499092   -3.327377    0.119179
     77          1           0       -0.650410   -4.805942   -0.808697
     78          1           0        0.067612   -4.496745   -2.338828
     79          1           0        3.264179    2.577420   -5.406238
     80          1           0        2.862871    4.293189   -5.210228
     81          1           0        1.797492    2.983507   -4.598020
     82          1           0        6.212657    5.637584   -1.708157
     83          1           0        4.951383    6.755637   -1.298215
     84          1           0        5.888617    7.187969   -2.671652
     85          1           0        5.533939    4.143941    2.666193
     86          1           0        8.092811    2.512420    2.698488
     87          1           0        8.326937    4.822858    2.445886
     88          1           0        7.011316    5.935364    1.982782
     89          1           0        7.667687    4.843765    0.743823
     90          1           0        6.019570    1.891890    4.764721
     91          1           0        6.256856    3.630839    4.656283
     92          1           0        7.654435    2.177739    6.302979
     93          1           0        8.092090    3.754964    5.551601
     94          1           0        8.671776    2.081381    4.932694
     95          1           0        5.947446   -3.222562    4.976504
     96          1           0        7.212857   -2.173799    4.261968
     97          1           0        7.009903   -3.894391    3.764085
     98          1           0        2.221851   -4.429384    0.921626
     99          1           0        2.028797   -7.680802   -2.070518
    100          1           0        3.651686   -7.678453   -1.609000
    101          1           0        3.188438   -6.503660   -2.829637
    102          1           0       -4.437901   -4.636707   -2.483374
    103          1           0       -4.171044   -2.841846   -2.653271
    104          1           0       -6.034440   -4.321616   -0.905317
    105          1           0       -5.295005   -0.214247   -0.417429
    106          1           0       -3.881007   -1.324664   -0.735077
    107          1           0       -4.471351   -0.974148    0.937271
    108          1           0       -6.835538   -1.334734    1.281374
    109          1           0       -7.221057   -3.070675    1.205994
    110          1           0       -8.002518   -2.407973   -1.194410
    111          1           0       -8.250896   -0.817479   -0.338131
    112          1           0       -9.312778   -3.287860    0.922944
    113          1           0      -10.017887   -3.049210   -0.672752
    114          1           0      -10.896029   -0.754561    0.028195
    115          1           0      -12.557797   -2.179657    0.062000
    116          1           0      -12.397004   -1.940780    1.877089
    117          1           0      -11.708528   -3.331896    1.099549
    118          1           0       -9.168101   -1.234690    2.346272
    119          1           0      -10.819427   -0.919518    2.807574
    120          1           0      -11.055033    1.010591    1.514178
    121          1           0       -9.387964    0.952366    0.883466
    122          1           0       -9.652736    0.791306    3.863458
    123          1           0      -10.159226    2.233697    3.246423
    124          1           0       -7.554210    1.278728    2.184411
    125          1           0       -7.722075    1.238083    4.867614
    126          1           0       -7.491681    2.990187    4.647326
    127          1           0       -6.373332    1.853927    4.021509
    128          1           0       -8.074165    4.173399    2.823852
    129          1           0       -9.216762    3.582040    1.686649
    130          1           0       -6.645717    2.657603    0.781040
    131          1           0       -6.373670    4.240370    1.275426
    132          1           0       -8.879722    3.708700   -0.430881
    133          1           0       -7.300274    3.542478   -1.212659
    134          1           0       -6.901334    5.997056   -0.008829
    135          1           0       -9.430050    6.818993   -1.355588
    136          1           0       -8.712194    7.089984    0.160627
    137          1           0       -9.756271    5.693320   -0.124033
    138          1           0       -6.061434    5.581349   -2.134303
    139          1           0       -7.144084    6.864153   -2.458044
    140          1           0       -7.677434    5.251207   -2.885764
 ---------------------------------------------------------------------

 SCF Done:  E(RwB97XD) =  -3007.87378721     A.U. after   19 cycles

 Excitation energies and oscillator strengths:

 Excited State   1:      Singlet-A      1.6010 eV  774.43 nm  f=0.3839  <S**2>=0.000
     245 -> 248        0.17734
     246 -> 247        0.68547
     245 <- 248        0.11694
 This state for optimization and/or second-order correction.
 Total Energy, E(TD-HF/TD-DFT) =  -3007.81495243
 Copying the excited state density for this state as the 1-particle RhoCI density.

 Excited State   2:      Singlet-A      2.1104 eV  587.49 nm  f=0.1233  <S**2>=0.000
     245 -> 247        0.64396
     246 -> 248       -0.27232

 Excited State   3:      Singlet-A      3.1684 eV  391.32 nm  f=0.0024  <S**2>=0.000
     243 -> 247       -0.27041
     244 -> 247        0.61768
     246 -> 248       -0.13010

 Excited State   4:      Singlet-A      3.3981 eV  364.86 nm  f=0.0060  <S**2>=0.000
     243 -> 247        0.53188
     243 -> 248        0.13118
     243 -> 249        0.20488
     243 -> 250        0.20869
     244 -> 247        0.19052
     244 -> 249        0.11563
     244 -> 250        0.14099

 Excited State   5:      Singlet-A      3.4535 eV  359.01 nm  f=0.0058  <S**2>=0.000
     240 -> 247        0.52572
     240 -> 249       -0.30012
     240 -> 250        0.14192
     241 -> 247        0.24108
     241 -> 249       -0.14425

 The electronic state is 1-A.
 Alpha  occ. eigenvalues --  -46.95786 -19.30932 -19.30494 -19.25222 -19.25157
 Alpha  occ. eigenvalues --  -19.24270 -19.22682 -14.46951 -14.46941 -14.44298
 Alpha  occ. eigenvalues --  -14.44013 -10.43637 -10.43600 -10.39464 -10.37710
 Alpha  occ. eigenvalues --  -10.36517 -10.35916 -10.35484 -10.35382 -10.35213
 Alpha  occ. eigenvalues --  -10.35086 -10.34941 -10.34641 -10.34031 -10.32928
 Alpha  occ. eigenvalues --  -10.32923 -10.32655 -10.32456 -10.32408 -10.32302
 Alpha  occ. eigenvalues --  -10.32262 -10.32207 -10.32169 -10.31835 -10.31776
 Alpha  occ. eigenvalues --  -10.31632 -10.31566 -10.31249 -10.30954 -10.30916
 Alpha  occ. eigenvalues --  -10.30863 -10.30539 -10.30516 -10.30315 -10.30084
 Alpha  occ. eigenvalues --  -10.30010 -10.29818 -10.29742 -10.29670 -10.29645
 Alpha  occ. eigenvalues --  -10.29598 -10.29526 -10.29218 -10.29118 -10.29027
 Alpha  occ. eigenvalues --  -10.28992 -10.28832 -10.28763 -10.28614 -10.28567
 Alpha  occ. eigenvalues --  -10.28518 -10.28028 -10.27994 -10.27942 -10.27550
 Alpha  occ. eigenvalues --  -10.27409  -3.21763  -1.95314  -1.94857  -1.94769
 Alpha  occ. eigenvalues --   -1.18966  -1.18383  -1.12509  -1.11296  -1.10451
 Alpha  occ. eigenvalues --   -1.10430  -1.08068  -1.05771  -1.05369  -1.03242
 Alpha  occ. eigenvalues --   -0.94212  -0.92475  -0.91758  -0.91341  -0.90911
 Alpha  occ. eigenvalues --   -0.90511  -0.90170  -0.89929  -0.89394  -0.89228
 Alpha  occ. eigenvalues --   -0.88030  -0.87450  -0.86132  -0.85653  -0.85360
 Alpha  occ. eigenvalues --   -0.84482  -0.83875  -0.83248  -0.82961  -0.82546
 Alpha  occ. eigenvalues --   -0.82117  -0.80496  -0.79662  -0.79402  -0.78175
 Alpha  occ. eigenvalues --   -0.77651  -0.77321  -0.76956  -0.76731  -0.75562
 Alpha  occ. eigenvalues --   -0.75502  -0.75058  -0.73753  -0.72439  -0.70616
 Alpha  occ. eigenvalues --   -0.70359  -0.69766  -0.69255  -0.68161  -0.67758
 Alpha  occ. eigenvalues --   -0.67612  -0.67438  -0.66994  -0.66708  -0.65892
 Alpha  occ. eigenvalues --   -0.65814  -0.65184  -0.64751  -0.64710  -0.62272
 Alpha  occ. eigenvalues --   -0.61950  -0.61335  -0.61083  -0.60684  -0.60478
 Alpha  occ. eigenvalues --   -0.59606  -0.59344  -0.58617  -0.58472  -0.57523
 Alpha  occ. eigenvalues --   -0.57290  -0.57039  -0.56712  -0.56249  -0.56141
 Alpha  occ. eigenvalues --   -0.55745  -0.55240  -0.55133  -0.54992  -0.54812
 Alpha  occ. eigenvalues --   -0.54266  -0.54106  -0.53995  -0.53761  -0.53728
 Alpha  occ. eigenvalues --   -0.53499  -0.53315  -0.52888  -0.52754  -0.52489
 Alpha  occ. eigenvalues --   -0.52261  -0.52181  -0.51987  -0.51484  -0.51342
 Alpha  occ. eigenvalues --   -0.51225  -0.50987  -0.50970  -0.50838  -0.50619
 Alpha  occ. eigenvalues --   -0.50417  -0.50193  -0.50145  -0.50006  -0.49850
 Alpha  occ. eigenvalues --   -0.49611  -0.49556  -0.49151  -0.49009  -0.48851
 Alpha  occ. eigenvalues --   -0.48525  -0.48454  -0.48240  -0.48184  -0.48064
 Alpha  occ. eigenvalues --   -0.47974  -0.47819  -0.47496  -0.47394  -0.47017
 Alpha  occ. eigenvalues --   -0.46728  -0.46646  -0.46498  -0.46305  -0.46202
 Alpha  occ. eigenvalues --   -0.45779  -0.45528  -0.45461  -0.45451  -0.45145
 Alpha  occ. eigenvalues --   -0.45083  -0.44636  -0.44266  -0.44202  -0.44189
 Alpha  occ. eigenvalues --   -0.43822  -0.43530  -0.43419  -0.43177  -0.43102
 Alpha  occ. eigenvalues --   -0.43019  -0.42824  -0.42473  -0.42346  -0.41806
 Alpha  occ. eigenvalues --   -0.41578  -0.41516  -0.41349  -0.41181  -0.40847
 Alpha  occ. eigenvalues --   -0.40504  -0.40177  -0.40050  -0.39687  -0.39649
 Alpha  occ. eigenvalues --   -0.39203  -0.39024  -0.38717  -0.38697  -0.38563
 Alpha  occ. eigenvalues --   -0.37717  -0.37419  -0.36760  -0.36747  -0.36631
 Alpha  occ. eigenvalues --   -0.36301  -0.35552  -0.35396  -0.33734  -0.32781
 Alpha  occ. eigenvalues --   -0.32685  -0.32396  -0.31752  -0.31506  -0.26149
 Alpha  occ. eigenvalues --   -0.23139
 Alpha virt. eigenvalues --   -0.07571   0.00057   0.02545   0.04646   0.04993
 Alpha virt. eigenvalues --    0.06138   0.06607   0.07042   0.07845   0.09550
 Alpha virt. eigenvalues --    0.09873   0.10909   0.11779   0.11939   0.12222

 Mulliken charges:
               1
     1  Mg   0.976872
     2  C   -0.052317
     3  C   -0.086330
     4  C   -0.076274
     5  C   -0.085000
     6  N   -0.381351
     7  C    0.042001
     8  C   -0.066627
     9  C   -0.080802
    10  C    0.102986
    11  C    0.015550
    12  C   -0.004197
    13  C    0.034676
    14  C    0.202804
    15  O   -0.276974
    16  O   -0.351781
    17  N   -0.426177
    18  C    0.121329
    19  C   -0.131609
    20  C   -0.081564
    21  C    0.196062
    22  C    0.080247
    23  C    0.020417
    24  O   -0.217470
    25  C   -0.018250
    26  N   -0.348952
    27  C    0.002898
    28  C   -0.101784
    29  C   -0.069335
    30  C    0.082800
    31  C    0.017053
    32  C   -0.047990
    33  C   -0.065146
    34  N   -0.461992
    35  C    0.094531
    36  C   -0.151714
    37  C   -0.094720
    38  C    0.169443
    39  C    0.090705
    40  C    0.155411
    41  O   -0.215489
    42  C   -0.076905
    43  C    0.264828
    44  O   -0.233854
    45  O   -0.378363
    46  C    0.139011
    47  C    0.221884
    48  C   -0.154934
    49  C   -0.181463
    50  C    0.036997
    51  C    0.010335
    52  C   -0.011103
    53  C    0.026140
    54  C   -0.190156
    55  C    0.004537
    56  C   -0.022174
    57  C   -0.017006
    58  C    0.040334
    59  C   -0.177720
    60  C    0.024255
    61  C   -0.014303
    62  C   -0.027763
    63  C    0.011279
    64  C   -0.189440
    65  C   -0.022786
    66  C   -0.007418
    67  H   -0.006944
    68  H   -0.004665
    69  H   -0.005347
    70  H    0.028053
    71  H    0.052169
    72  H    0.058360
    73  H    0.038415
    74  H    0.033560
    75  H    0.043143
    76  H    0.045064
    77  H    0.049673
    78  H    0.048907
    79  H    0.044712
    80  H    0.066508
    81  H    0.045249
    82  H    0.036278
    83  H    0.052157
    84  H    0.053495
    85  H    0.051437
    86  H    0.041892
    87  H    0.047171
    88  H    0.044376
    89  H    0.049088
    90  H    0.042683
    91  H    0.029439
    92  H    0.035648
    93  H    0.046332
    94  H    0.029687
    95  H    0.065086
    96  H    0.026795
    97  H    0.064544
    98  H    0.063964
    99  H    0.059599
   100  H    0.048983
   101  H    0.058413
   102  H    0.048672
   103  H    0.066644
   104  H    0.023346
   105  H    0.048930
   106  H    0.037351
   107  H    0.054866
   108  H    0.021092
   109  H    0.028670
   110  H    0.023184
   111  H    0.023013
   112  H    0.014369
   113  H    0.021666
   114  H    0.018789
   115  H    0.036184
   116  H    0.026029
   117  H    0.015146
   118  H    0.008650
   119  H    0.015249
   120  H    0.019990
   121  H    0.025239
   122  H   -0.004865
   123  H    0.003827
   124  H    0.010151
   125  H    0.024220
   126  H    0.028392
   127  H    0.015989
   128  H    0.016694
   129  H    0.017219
   130  H    0.009283
   131  H    0.017932
   132  H    0.029130
   133  H    0.009466
   134  H    0.027430
   135  H    0.023381
   136  H    0.018589
   137  H    0.018719
   138  H    0.022778
   139  H    0.029083
   140  H    0.035428
 Sum of Mulliken charges =  -0.00000

 Dipole moment (field-independent basis, Debye):
    X=             -0.9661    Y=              0.5830    Z=              2.4085  Tot=              2.6597
 Quadrupole moment (field-independent basis, Debye-Ang):
   XX=           -376.1704   YY=           -417.0463   ZZ=           -406.6781
   XY=             21.2505   XZ=             18.2886   YZ=             41.6964

 Normal termination of Gaussian 16 at Thu Apr 28 13:05:11 2022.
