 Gaussian 16, Revision A.03,
 Gaussian 16:  ES64L-G16RevA.03 25-Dec-2016

 --------------------
 #p ZINDO=(nstates=5)
 --------------------

 ------------------------------
 step_1551_chromophore_23 ZINDO
 ------------------------------
 Symbolic Z-matrix:
 Charge =  0 Multiplicity = 1

                         Standard orientation:
 ---------------------------------------------------------------------
 Center     Atomic      Atomic             Coordinates (Angstroms)
 Number     Number       Type             X           Y           Z
 ---------------------------------------------------------------------
      1         12           0        4.697864    0.294209   -0.181850
      2          6           0        3.381787   -2.757649    0.180137
      3          6           0        2.623056    0.813938   -2.968069
      4          6           0        5.195779    3.897158   -0.177098
      5          6           0        6.387849    0.088545    2.724868
      6          7           0        3.011508   -0.778310   -1.110151
      7          6           0        2.805123   -2.100170   -0.923855
      8          6           0        1.678230   -2.616737   -1.778236
      9          6           0        1.481854   -1.539715   -2.863459
     10          6           0        2.425326   -0.360970   -2.305749
     11          6           0        1.633677   -2.053079   -4.328489
     12          6           0        0.368693   -2.945774   -0.893352
     13          6           0       -0.484414   -4.010266   -1.534734
     14          6           0       -1.817446   -3.551829   -2.128090
     15          8           0       -1.890604   -3.062742   -3.249629
     16          8           0       -2.885037   -3.822139   -1.314254
     17          7           0        4.185465    2.060327   -1.480770
     18          6           0        3.380909    1.964878   -2.635934
     19          6           0        3.453673    3.212568   -3.370141
     20          6           0        4.173507    4.114263   -2.556555
     21          6           0        4.574522    3.395269   -1.339527
     22          6           0        2.827182    3.313778   -4.732280
     23          6           0        4.553405    5.487143   -2.976910
     24          8           0        4.210022    6.067573   -3.973812
     25          6           0        5.486345    6.324577   -2.143278
     26          7           0        5.582123    1.778196    1.116825
     27          6           0        5.713820    3.148638    0.899235
     28          6           0        6.408542    3.794828    2.117889
     29          6           0        7.013877    2.549383    2.848572
     30          6           0        6.287337    1.384242    2.176004
     31          6           0        7.453513    4.954619    1.806476
     32          6           0        6.688184    2.666075    4.389742
     33          6           0        7.889910    2.699151    5.374515
     34          7           0        4.928137   -1.091737    1.199938
     35          6           0        5.685457   -1.129056    2.386860
     36          6           0        5.708094   -2.461467    2.960478
     37          6           0        4.763945   -3.097496    2.099877
     38          6           0        4.343221   -2.196285    1.085653
     39          6           0        6.504767   -2.980112    4.071624
     40          6           0        4.092643   -4.409281    1.876046
     41          8           0        4.077063   -5.479166    2.494998
     42          6           0        3.229955   -4.206802    0.572259
     43          6           0        3.636471   -5.083867   -0.582787
     44          8           0        4.657636   -4.963597   -1.225374
     45          8           0        2.713178   -6.097260   -0.759372
     46          6           0        2.859399   -6.993461   -1.913318
     47          6           0       -4.180159   -3.702422   -1.984952
     48          6           0       -5.362920   -3.463777   -0.950745
     49          6           0       -5.643884   -2.344264   -0.216109
     50          6           0       -4.745939   -1.104250   -0.109729
     51          6           0       -6.970520   -2.188579    0.617688
     52          6           0       -8.206287   -1.903322   -0.250001
     53          6           0       -9.539160   -2.538801    0.163877
     54          6           0      -10.589460   -1.561899    0.693654
     55          6           0      -11.932530   -2.275621    0.949750
     56          6           0      -10.098404   -0.781174    2.002599
     57          6           0      -10.027115    0.720956    1.735018
     58          6           0       -9.533899    1.387754    2.958541
     59          6           0       -8.141473    1.905111    2.857544
     60          6           0       -7.442879    2.017790    4.157696
     61          6           0       -8.217595    3.390591    2.078813
     62          6           0       -7.183240    3.592375    0.940450
     63          6           0       -7.838740    4.031181   -0.401272
     64          6           0       -7.599250    5.555007   -0.719713
     65          6           0       -8.941418    6.286406   -0.539235
     66          6           0       -7.124808    5.821777   -2.140006
     67          1           0        2.061875    0.933149   -3.897588
     68          1           0        5.331363    4.956598    0.048790
     69          1           0        7.035198   -0.011671    3.598501
     70          1           0        1.958791   -3.612969   -2.121380
     71          1           0        0.485636   -1.096633   -2.859713
     72          1           0        0.609139   -2.137418   -4.688976
     73          1           0        2.156365   -3.010421   -4.329774
     74          1           0        2.166891   -1.360403   -4.978892
     75          1           0       -0.153618   -1.995298   -0.777565
     76          1           0        0.499092   -3.327377    0.119179
     77          1           0       -0.650410   -4.805942   -0.808697
     78          1           0        0.067612   -4.496745   -2.338828
     79          1           0        3.264179    2.577420   -5.406238
     80          1           0        2.862871    4.293189   -5.210228
     81          1           0        1.797492    2.983507   -4.598020
     82          1           0        6.212657    5.637584   -1.708157
     83          1           0        4.951383    6.755637   -1.298215
     84          1           0        5.888617    7.187969   -2.671652
     85          1           0        5.533939    4.143941    2.666193
     86          1           0        8.092811    2.512420    2.698488
     87          1           0        8.326937    4.822858    2.445886
     88          1           0        7.011316    5.935364    1.982782
     89          1           0        7.667687    4.843765    0.743823
     90          1           0        6.019570    1.891890    4.764721
     91          1           0        6.256856    3.630839    4.656283
     92          1           0        7.654435    2.177739    6.302979
     93          1           0        8.092090    3.754964    5.551601
     94          1           0        8.671776    2.081381    4.932694
     95          1           0        5.947446   -3.222562    4.976504
     96          1           0        7.212857   -2.173799    4.261968
     97          1           0        7.009903   -3.894391    3.764085
     98          1           0        2.221851   -4.429384    0.921626
     99          1           0        2.028797   -7.680802   -2.070518
    100          1           0        3.651686   -7.678453   -1.609000
    101          1           0        3.188438   -6.503660   -2.829637
    102          1           0       -4.437901   -4.636707   -2.483374
    103          1           0       -4.171044   -2.841846   -2.653271
    104          1           0       -6.034440   -4.321616   -0.905317
    105          1           0       -5.295005   -0.214247   -0.417429
    106          1           0       -3.881007   -1.324664   -0.735077
    107          1           0       -4.471351   -0.974148    0.937271
    108          1           0       -6.835538   -1.334734    1.281374
    109          1           0       -7.221057   -3.070675    1.205994
    110          1           0       -8.002518   -2.407973   -1.194410
    111          1           0       -8.250896   -0.817479   -0.338131
    112          1           0       -9.312778   -3.287860    0.922944
    113          1           0      -10.017887   -3.049210   -0.672752
    114          1           0      -10.896029   -0.754561    0.028195
    115          1           0      -12.557797   -2.179657    0.062000
    116          1           0      -12.397004   -1.940780    1.877089
    117          1           0      -11.708528   -3.331896    1.099549
    118          1           0       -9.168101   -1.234690    2.346272
    119          1           0      -10.819427   -0.919518    2.807574
    120          1           0      -11.055033    1.010591    1.514178
    121          1           0       -9.387964    0.952366    0.883466
    122          1           0       -9.652736    0.791306    3.863458
    123          1           0      -10.159226    2.233697    3.246423
    124          1           0       -7.554210    1.278728    2.184411
    125          1           0       -7.722075    1.238083    4.867614
    126          1           0       -7.491681    2.990187    4.647326
    127          1           0       -6.373332    1.853927    4.021509
    128          1           0       -8.074165    4.173399    2.823852
    129          1           0       -9.216762    3.582040    1.686649
    130          1           0       -6.645717    2.657603    0.781040
    131          1           0       -6.373670    4.240370    1.275426
    132          1           0       -8.879722    3.708700   -0.430881
    133          1           0       -7.300274    3.542478   -1.212659
    134          1           0       -6.901334    5.997056   -0.008829
    135          1           0       -9.430050    6.818993   -1.355588
    136          1           0       -8.712194    7.089984    0.160627
    137          1           0       -9.756271    5.693320   -0.124033
    138          1           0       -6.061434    5.581349   -2.134303
    139          1           0       -7.144084    6.864153   -2.458044
    140          1           0       -7.677434    5.251207   -2.885764
 ---------------------------------------------------------------------

 SCF Done:  E(RZINDO/S) =  -474.233383171     A.U. after   19 cycles

 Excitation energies and oscillator strengths:

 Excited State   1:      Singlet-A      1.2238 eV 1013.14 nm  f=0.6178  <S**2>=0.000
     175 ->178         0.18177
     176 ->177         0.66355
 This state for optimization and/or second-order correction.
 Total Energy, E(CIS/TDA) =  -474.188410670
 Copying the excited state density for this state as the 1-particle RhoCI density.

 Excited State   2:      Singlet-A      1.8836 eV  658.22 nm  f=0.0596  <S**2>=0.000
     175 ->177         0.56211
     176 ->178        -0.39965

 Excited State   3:      Singlet-A      2.8347 eV  437.38 nm  f=0.0076  <S**2>=0.000
     169 ->177         0.15556
     169 ->179        -0.15266
     169 ->181        -0.18322
     169 ->186        -0.12036
     170 ->177         0.27467
     170 ->178        -0.16960
     170 ->179        -0.25393
     170 ->181        -0.31211
     170 ->186        -0.19804
     170 ->187         0.13367

 Excited State   4:      Singlet-A      2.9587 eV  419.05 nm  f=1.0229  <S**2>=0.000
     171 ->177         0.15459
     175 ->177         0.35955
     176 ->178         0.54259

 Excited State   5:      Singlet-A      3.0552 eV  405.81 nm  f=0.0186  <S**2>=0.000
     168 ->179         0.10824
     169 ->177         0.12908
     169 ->179         0.15129
     169 ->181        -0.12076
     171 ->177         0.11919
     172 ->177         0.12843
     174 ->177        -0.13543
     176 ->179         0.34428
     176 ->180         0.42006

 The electronic state is 1-A.
 Alpha  occ. eigenvalues --   -1.86602  -1.79729  -1.78293  -1.73104  -1.71268
 Alpha  occ. eigenvalues --   -1.69958  -1.67005  -1.61135  -1.60168  -1.57260
 Alpha  occ. eigenvalues --   -1.55578  -1.51745  -1.48499  -1.48216  -1.46927
 Alpha  occ. eigenvalues --   -1.43895  -1.43700  -1.40773  -1.38584  -1.38367
 Alpha  occ. eigenvalues --   -1.35699  -1.34904  -1.32935  -1.31698  -1.30045
 Alpha  occ. eigenvalues --   -1.28074  -1.26643  -1.23097  -1.20669  -1.18388
 Alpha  occ. eigenvalues --   -1.17321  -1.15543  -1.14717  -1.13618  -1.12711
 Alpha  occ. eigenvalues --   -1.12064  -1.10058  -1.09841  -1.05132  -1.03718
 Alpha  occ. eigenvalues --   -1.02178  -1.01293  -0.97341  -0.96938  -0.96313
 Alpha  occ. eigenvalues --   -0.95150  -0.94953  -0.94623  -0.93194  -0.92087
 Alpha  occ. eigenvalues --   -0.91499  -0.91159  -0.89972  -0.88385  -0.88130
 Alpha  occ. eigenvalues --   -0.86636  -0.84610  -0.84079  -0.82064  -0.79341
 Alpha  occ. eigenvalues --   -0.79214  -0.78526  -0.78275  -0.77665  -0.77355
 Alpha  occ. eigenvalues --   -0.76313  -0.75712  -0.74950  -0.74259  -0.73698
 Alpha  occ. eigenvalues --   -0.73635  -0.73056  -0.72010  -0.71694  -0.70906
 Alpha  occ. eigenvalues --   -0.69669  -0.69536  -0.69031  -0.68877  -0.67972
 Alpha  occ. eigenvalues --   -0.67119  -0.66620  -0.66375  -0.66140  -0.65344
 Alpha  occ. eigenvalues --   -0.64951  -0.64908  -0.63829  -0.63786  -0.63149
 Alpha  occ. eigenvalues --   -0.62927  -0.62554  -0.62181  -0.61940  -0.61640
 Alpha  occ. eigenvalues --   -0.61489  -0.61306  -0.60889  -0.60669  -0.60234
 Alpha  occ. eigenvalues --   -0.60088  -0.59397  -0.59063  -0.58838  -0.58804
 Alpha  occ. eigenvalues --   -0.58042  -0.57709  -0.57091  -0.56899  -0.56778
 Alpha  occ. eigenvalues --   -0.56239  -0.55567  -0.55500  -0.55356  -0.54972
 Alpha  occ. eigenvalues --   -0.54681  -0.54200  -0.53883  -0.53350  -0.53104
 Alpha  occ. eigenvalues --   -0.52824  -0.52722  -0.51908  -0.51886  -0.51743
 Alpha  occ. eigenvalues --   -0.51514  -0.51279  -0.51019  -0.50692  -0.50437
 Alpha  occ. eigenvalues --   -0.50291  -0.49846  -0.49593  -0.49423  -0.49180
 Alpha  occ. eigenvalues --   -0.48785  -0.48612  -0.48333  -0.48133  -0.47999
 Alpha  occ. eigenvalues --   -0.47938  -0.47353  -0.47068  -0.47047  -0.46732
 Alpha  occ. eigenvalues --   -0.46332  -0.46205  -0.45920  -0.45615  -0.45450
 Alpha  occ. eigenvalues --   -0.45139  -0.44840  -0.44744  -0.44499  -0.44239
 Alpha  occ. eigenvalues --   -0.44008  -0.43386  -0.42831  -0.42670  -0.42462
 Alpha  occ. eigenvalues --   -0.42070  -0.41756  -0.41210  -0.39146  -0.38936
 Alpha  occ. eigenvalues --   -0.38748  -0.37547  -0.34992  -0.34757  -0.34631
 Alpha  occ. eigenvalues --   -0.33169  -0.32794  -0.32698  -0.32500  -0.26790
 Alpha  occ. eigenvalues --   -0.21989
 Alpha virt. eigenvalues --   -0.08960  -0.02279  -0.00295   0.00987   0.01454
 Alpha virt. eigenvalues --    0.01528   0.02578   0.02642   0.04279   0.04751
 Alpha virt. eigenvalues --    0.06064   0.07175   0.07272   0.07809   0.08087

 Mulliken charges:
               1
     1  Mg   0.438039
     2  C   -0.066274
     3  C   -0.065074
     4  C   -0.074242
     5  C   -0.064630
     6  N   -0.292605
     7  C    0.128857
     8  C    0.012442
     9  C    0.003735
    10  C    0.135411
    11  C   -0.049435
    12  C   -0.020973
    13  C    0.006829
    14  C    0.470727
    15  O   -0.527640
    16  O   -0.259705
    17  N   -0.352305
    18  C    0.119955
    19  C    0.050169
    20  C   -0.040814
    21  C    0.133321
    22  C   -0.032939
    23  C    0.327783
    24  O   -0.520520
    25  C   -0.033406
    26  N   -0.262393
    27  C    0.121926
    28  C   -0.008220
    29  C    0.005535
    30  C    0.118155
    31  C   -0.055432
    32  C   -0.044375
    33  C   -0.065795
    34  N   -0.291039
    35  C    0.054334
    36  C    0.039293
    37  C   -0.078201
    38  C    0.147134
    39  C   -0.027851
    40  C    0.323248
    41  O   -0.527191
    42  C    0.054514
    43  C    0.493663
    44  O   -0.517214
    45  O   -0.277211
    46  C    0.070845
    47  C    0.101121
    48  C   -0.104629
    49  C   -0.000861
    50  C   -0.041972
    51  C   -0.025962
    52  C   -0.035845
    53  C   -0.023205
    54  C   -0.025745
    55  C   -0.063576
    56  C   -0.041251
    57  C   -0.024588
    58  C   -0.023356
    59  C   -0.003368
    60  C   -0.049993
    61  C   -0.051296
    62  C   -0.037429
    63  C   -0.033116
    64  C   -0.003675
    65  C   -0.064613
    66  C   -0.050747
    67  H    0.024585
    68  H    0.035800
    69  H    0.021710
    70  H    0.033374
    71  H    0.034768
    72  H    0.030375
    73  H    0.025792
    74  H    0.023618
    75  H    0.025661
    76  H    0.030822
    77  H    0.029375
    78  H    0.038942
    79  H    0.031199
    80  H    0.043112
    81  H    0.028781
    82  H    0.025915
    83  H    0.032634
    84  H    0.042888
    85  H    0.038795
    86  H    0.039322
    87  H    0.027157
    88  H    0.022700
    89  H    0.027234
    90  H    0.025689
    91  H    0.015837
    92  H    0.018017
    93  H    0.027694
    94  H    0.020014
    95  H    0.040073
    96  H    0.021157
    97  H    0.040563
    98  H    0.049087
    99  H    0.039313
   100  H    0.035377
   101  H    0.049381
   102  H    0.043991
   103  H    0.057414
   104  H    0.027929
   105  H    0.031751
   106  H    0.027904
   107  H    0.030904
   108  H    0.017400
   109  H    0.027222
   110  H    0.016975
   111  H    0.024916
   112  H    0.022520
   113  H    0.015112
   114  H    0.020872
   115  H    0.020332
   116  H    0.022411
   117  H    0.011829
   118  H    0.020268
   119  H    0.018018
   120  H    0.016847
   121  H    0.023872
   122  H    0.011607
   123  H    0.006406
   124  H    0.020771
   125  H    0.015139
   126  H    0.021899
   127  H    0.005546
   128  H    0.016068
   129  H    0.021382
   130  H    0.010840
   131  H    0.020909
   132  H    0.032326
   133  H    0.009593
   134  H    0.028005
   135  H    0.019591
   136  H    0.005847
   137  H    0.014753
   138  H    0.008114
   139  H    0.015675
   140  H    0.023953
 Sum of Mulliken charges =  -0.00000

 Dipole moment (field-independent basis, Debye):
    X=             -1.1877    Y=              2.6475    Z=              2.8434  Tot=              4.0625
 N-N= 4.407396714332D+03 E-N= 0.000000000000D+00  KE=-9.488619624873D+03
 Leave Link  601 at Thu Apr 28 13:19:04 2022, MaxMem=  6710886400 cpu:               0.8 elap:               0.0
 (Enter /sw/apps/gaussian-16.0/g16/l9999.exe)
 1\1\GINC-BP1-COMPUTE070\SP\RZINDO CIS\STO-3G\C55H74Mg1N4O6\OF15641\28-
 Apr-2022\0\\#p ZINDO=(nstates=5)\\step_1551_chromophore_23 ZINDO\\0,1\
 Mg,0,-9.425,40.721,42.112\C,0,-8.188,37.71,41.35\C,0,-6.611,42.208,40.
 626\C,0,-10.975,44.005,41.907\C,0,-12.362,39.434,43.144\N,0,-7.727,40.
 013,40.899\C,0,-7.317,38.726,40.911\C,0,-6.055,38.533,40.113\C,0,-5.46
 9,39.95,39.955\C,0,-6.679,40.851,40.516\C,0,-4.023,40.125,40.513\C,0,-
 6.344,37.752,38.73\C,0,-5.13,36.997,38.252\C,0,-4.422,37.554,37.016\O,

 Normal termination of Gaussian 16 at Thu Apr 28 13:19:04 2022.
