 Gaussian 16, Revision A.03,
 Gaussian 16:  ES64L-G16RevA.03 25-Dec-2016

 ------------------------------
 #p blyp/Def2SVP td=(nstates=5)
 ------------------------------

 -------------------------------------------------
 step_301_chromophore_1 TDDFT with blyp functional
 -------------------------------------------------
 Symbolic Z-matrix:
 Charge =  0 Multiplicity = 1

                         Standard orientation:
 ---------------------------------------------------------------------
 Center     Atomic      Atomic             Coordinates (Angstroms)
 Number     Number       Type             X           Y           Z
 ---------------------------------------------------------------------
      1         12           0        6.013800    0.532506    0.323866
      2          6           0        4.112014   -2.252452   -0.412734
      3          6           0        3.877134    2.555521   -1.521622
      4          6           0        8.240652    2.998551    0.347716
      5          6           0        8.653662   -1.717918    0.771967
      6          7           0        4.208728    0.186702   -0.667955
      7          6           0        3.483465   -0.971110   -0.737731
      8          6           0        2.081695   -0.789210   -1.331336
      9          6           0        2.210575    0.606566   -1.950464
     10          6           0        3.532142    1.123791   -1.373425
     11          6           0        1.938040    0.675238   -3.459498
     12          6           0        0.932432   -0.906038   -0.296579
     13          6           0       -0.532172   -0.780470   -0.736549
     14          6           0       -1.593887   -1.744573   -0.175475
     15          8           0       -1.437800   -2.548426    0.698375
     16          8           0       -2.780493   -1.572712   -0.898959
     17          7           0        5.925106    2.569547   -0.115556
     18          6           0        4.994665    3.191403   -0.971764
     19          6           0        5.280315    4.613195   -1.073952
     20          6           0        6.533393    4.771718   -0.412498
     21          6           0        6.960320    3.376932   -0.052074
     22          6           0        4.356191    5.726954   -1.759743
     23          6           0        7.215428    6.037791   -0.213555
     24          8           0        8.279529    6.024516    0.359053
     25          6           0        6.657924    7.418909   -0.506003
     26          7           0        8.137066    0.589089    0.650151
     27          6           0        8.846448    1.774526    0.572698
     28          6           0       10.348172    1.642724    0.852933
     29          6           0       10.428142    0.059436    1.197480
     30          6           0        9.007018   -0.390891    0.783431
     31          6           0       11.232880    2.124680   -0.364233
     32          6           0       10.846638   -0.222458    2.668748
     33          6           0        9.812726    0.081472    3.848650
     34          7           0        6.332963   -1.552136    0.166949
     35          6           0        7.484657   -2.340221    0.386849
     36          6           0        7.196352   -3.674369    0.385372
     37          6           0        5.832921   -3.726030   -0.013076
     38          6           0        5.404815   -2.387461   -0.092567
     39          6           0        8.054281   -4.769555    0.489190
     40          6           0        4.666837   -4.607574   -0.231163
     41          8           0        4.566508   -5.831730   -0.182845
     42          6           0        3.534537   -3.669390   -0.551378
     43          6           0        2.419416   -3.916455    0.417754
     44          8           0        2.382655   -3.645820    1.629777
     45          8           0        1.507854   -4.787226   -0.180570
     46          6           0        0.614455   -5.350075    0.751134
     47          6           0       -3.893612   -2.517163   -0.554911
     48          6           0       -5.207899   -1.863468   -0.917421
     49          6           0       -6.264764   -2.558590   -1.342426
     50          6           0       -6.320935   -4.096762   -1.177596
     51          6           0       -7.479101   -1.732689   -1.864020
     52          6           0       -8.481098   -1.357268   -0.730277
     53          6           0       -8.418417    0.108586   -0.346694
     54          6           0       -9.695079    0.917011   -0.709279
     55          6           0       -9.899902    1.063259   -2.193509
     56          6           0       -9.873971    2.226395    0.086501
     57          6           0      -11.233527    2.307186    0.712678
     58          6           0      -11.383955    1.979938    2.215773
     59          6           0      -12.830078    2.172951    2.720717
     60          6           0      -12.941198    2.943842    4.102301
     61          6           0      -13.717842    0.874508    2.757533
     62          6           0      -15.016110    0.864741    1.960774
     63          6           0      -14.976863   -0.048421    0.634200
     64          6           0      -14.913644    0.885422   -0.613103
     65          6           0      -16.265542    1.597938   -0.761376
     66          6           0      -14.432941    0.106467   -1.876218
     67          1           0        3.032092    3.042680   -2.011961
     68          1           0        8.952088    3.820534    0.245261
     69          1           0        9.470572   -2.409902    0.983073
     70          1           0        1.916359   -1.561664   -2.082403
     71          1           0        1.334033    1.134386   -1.574747
     72          1           0        1.850149   -0.336937   -3.853451
     73          1           0        2.870009    1.085297   -3.846947
     74          1           0        0.996031    1.186695   -3.654754
     75          1           0        1.179163   -0.112062    0.409170
     76          1           0        1.053184   -1.853856    0.228429
     77          1           0       -0.606021   -0.760153   -1.823990
     78          1           0       -0.838070    0.199296   -0.368989
     79          1           0        5.001618    6.362086   -2.366956
     80          1           0        3.833919    6.336430   -1.021926
     81          1           0        3.552637    5.255167   -2.325514
     82          1           0        5.600626    7.525033   -0.260619
     83          1           0        6.925381    7.674094   -1.531934
     84          1           0        7.104038    8.120337    0.198246
     85          1           0       10.502313    2.264761    1.734493
     86          1           0       11.099621   -0.417779    0.483479
     87          1           0       10.541014    2.427475   -1.150379
     88          1           0       11.937261    1.360528   -0.691854
     89          1           0       11.730844    3.039642   -0.044651
     90          1           0       11.648451    0.505722    2.795509
     91          1           0       11.291755   -1.209995    2.789801
     92          1           0       10.211503    1.003871    4.269886
     93          1           0        9.680497   -0.822484    4.444548
     94          1           0        8.885399    0.361957    3.349096
     95          1           0        8.935046   -4.467089    1.055724
     96          1           0        8.430698   -5.015936   -0.503637
     97          1           0        7.611129   -5.672366    0.908026
     98          1           0        3.098193   -3.898135   -1.524263
     99          1           0       -0.005116   -4.702945    1.371239
    100          1           0        1.026487   -6.123998    1.399148
    101          1           0       -0.226222   -5.814743    0.234892
    102          1           0       -3.800958   -2.707156    0.514762
    103          1           0       -3.753924   -3.418299   -1.151490
    104          1           0       -5.164660   -0.804822   -1.170912
    105          1           0       -5.410843   -4.518519   -0.751131
    106          1           0       -6.541692   -4.564552   -2.136687
    107          1           0       -7.228656   -4.361248   -0.635312
    108          1           0       -8.053655   -2.423898   -2.482662
    109          1           0       -7.018264   -0.927971   -2.435859
    110          1           0       -8.266686   -1.942644    0.163862
    111          1           0       -9.435456   -1.614442   -1.187894
    112          1           0       -7.431860    0.479009   -0.626717
    113          1           0       -8.427429    0.098498    0.743454
    114          1           0      -10.486971    0.260268   -0.348938
    115          1           0       -9.133665    0.461012   -2.681040
    116          1           0       -9.780690    2.095935   -2.521699
    117          1           0      -10.923170    0.771103   -2.431361
    118          1           0       -9.871316    3.061161   -0.615025
    119          1           0       -9.067673    2.472248    0.778911
    120          1           0      -11.893128    1.739689    0.057211
    121          1           0      -11.616201    3.323914    0.805405
    122          1           0      -10.706328    2.547915    2.852297
    123          1           0      -11.204078    0.908108    2.134024
    124          1           0      -13.335095    2.860707    2.043376
    125          1           0      -13.684928    2.541747    4.791337
    126          1           0      -13.240821    3.954613    3.823925
    127          1           0      -12.021526    2.944483    4.687854
    128          1           0      -14.041540    0.547380    3.745331
    129          1           0      -13.225894   -0.030284    2.402312
    130          1           0      -15.181064    1.907376    1.686770
    131          1           0      -15.884631    0.526098    2.525491
    132          1           0      -15.858489   -0.689180    0.608020
    133          1           0      -14.115284   -0.705569    0.511671
    134          1           0      -14.128411    1.639350   -0.575478
    135          1           0      -15.927006    2.622366   -0.917812
    136          1           0      -16.807364    1.632633    0.184823
    137          1           0      -16.826900    1.133401   -1.571919
    138          1           0      -15.314368   -0.380294   -2.293276
    139          1           0      -13.564003   -0.536016   -1.732808
    140          1           0      -14.297543    0.896366   -2.614948
 ---------------------------------------------------------------------

 SCF Done:  E(RB-LYP) =  -3007.32301535     A.U. after   20 cycles

 Excitation energies and oscillator strengths:

 Excited State   1:      Singlet-A      1.7795 eV  696.75 nm  f=0.2417  <S**2>=0.000
     244 -> 247        0.19176
     245 -> 247        0.10737
     245 -> 248       -0.19147
     246 -> 247        0.65512
     246 <- 247       -0.13710
 This state for optimization and/or second-order correction.
 Total Energy, E(TD-HF/TD-DFT) =  -3007.25762154
 Copying the excited state density for this state as the 1-particle RhoCI density.

 Excited State   2:      Singlet-A      1.8596 eV  666.73 nm  f=0.0498  <S**2>=0.000
     244 -> 247        0.62637
     245 -> 247        0.23906
     246 -> 247       -0.20960

 Excited State   3:      Singlet-A      1.9988 eV  620.30 nm  f=0.0002  <S**2>=0.000
     243 -> 247        0.70392

 Excited State   4:      Singlet-A      2.0538 eV  603.68 nm  f=0.0583  <S**2>=0.000
     244 -> 247       -0.25090
     245 -> 247        0.57663
     246 -> 248        0.29554

 Excited State   5:      Singlet-A      2.5179 eV  492.42 nm  f=0.0001  <S**2>=0.000
     241 -> 247        0.70508

 The electronic state is 1-A.
 Alpha  occ. eigenvalues --  -46.27243 -18.81622 -18.81497 -18.77908 -18.76176
 Alpha  occ. eigenvalues --  -18.75188 -18.74484 -14.04076 -14.02830 -14.01443
 Alpha  occ. eigenvalues --  -13.99571 -10.04677 -10.03253  -9.99180  -9.98798
 Alpha  occ. eigenvalues --   -9.97939  -9.97102  -9.96930  -9.96028  -9.95991
 Alpha  occ. eigenvalues --   -9.95949  -9.95403  -9.95177  -9.94420  -9.94174
 Alpha  occ. eigenvalues --   -9.94090  -9.94059  -9.94054  -9.93961  -9.93886
 Alpha  occ. eigenvalues --   -9.93614  -9.93605  -9.93560  -9.93126  -9.92991
 Alpha  occ. eigenvalues --   -9.92970  -9.92881  -9.92748  -9.92646  -9.92633
 Alpha  occ. eigenvalues --   -9.92475  -9.92437  -9.92415  -9.92288  -9.92123
 Alpha  occ. eigenvalues --   -9.92084  -9.91905  -9.91834  -9.91764  -9.91661
 Alpha  occ. eigenvalues --   -9.91430  -9.91424  -9.91404  -9.91160  -9.91142
 Alpha  occ. eigenvalues --   -9.91125  -9.91095  -9.91084  -9.90999  -9.90987
 Alpha  occ. eigenvalues --   -9.90971  -9.90968  -9.90889  -9.90792  -9.90647
 Alpha  occ. eigenvalues --   -9.90231  -2.91988  -1.72397  -1.71856  -1.71713
 Alpha  occ. eigenvalues --   -0.97629  -0.96990  -0.92009  -0.90541  -0.90439
 Alpha  occ. eigenvalues --   -0.88521  -0.87546  -0.86569  -0.86483  -0.85670
 Alpha  occ. eigenvalues --   -0.75700  -0.74122  -0.73525  -0.73025  -0.72364
 Alpha  occ. eigenvalues --   -0.72130  -0.71610  -0.71278  -0.70933  -0.70491
 Alpha  occ. eigenvalues --   -0.69895  -0.69242  -0.68550  -0.67358  -0.66851
 Alpha  occ. eigenvalues --   -0.66417  -0.65437  -0.64836  -0.64751  -0.64237
 Alpha  occ. eigenvalues --   -0.63982  -0.62959  -0.62610  -0.61642  -0.61205
 Alpha  occ. eigenvalues --   -0.60470  -0.60365  -0.59930  -0.59861  -0.58792
 Alpha  occ. eigenvalues --   -0.58541  -0.57626  -0.57117  -0.55819  -0.54933
 Alpha  occ. eigenvalues --   -0.53883  -0.53520  -0.52830  -0.52131  -0.51398
 Alpha  occ. eigenvalues --   -0.50967  -0.50679  -0.50393  -0.49795  -0.49700
 Alpha  occ. eigenvalues --   -0.49579  -0.48764  -0.48288  -0.47894  -0.46879
 Alpha  occ. eigenvalues --   -0.46576  -0.45923  -0.45699  -0.45164  -0.44022
 Alpha  occ. eigenvalues --   -0.43819  -0.43486  -0.42944  -0.42826  -0.42490
 Alpha  occ. eigenvalues --   -0.42225  -0.41928  -0.41562  -0.41441  -0.41049
 Alpha  occ. eigenvalues --   -0.40839  -0.40663  -0.40582  -0.40379  -0.40276
 Alpha  occ. eigenvalues --   -0.40061  -0.39948  -0.39500  -0.39287  -0.39265
 Alpha  occ. eigenvalues --   -0.39025  -0.38817  -0.38771  -0.38564  -0.38243
 Alpha  occ. eigenvalues --   -0.38069  -0.37945  -0.37634  -0.37540  -0.37249
 Alpha  occ. eigenvalues --   -0.37089  -0.36968  -0.36754  -0.36668  -0.36313
 Alpha  occ. eigenvalues --   -0.36280  -0.36132  -0.36095  -0.35976  -0.35711
 Alpha  occ. eigenvalues --   -0.35693  -0.35459  -0.35204  -0.34849  -0.34737
 Alpha  occ. eigenvalues --   -0.34620  -0.34405  -0.34132  -0.34087  -0.34003
 Alpha  occ. eigenvalues --   -0.33701  -0.33524  -0.33450  -0.33337  -0.33269
 Alpha  occ. eigenvalues --   -0.33025  -0.32758  -0.32416  -0.32244  -0.32150
 Alpha  occ. eigenvalues --   -0.32065  -0.31728  -0.31545  -0.31380  -0.31269
 Alpha  occ. eigenvalues --   -0.31163  -0.31071  -0.30924  -0.30831  -0.30811
 Alpha  occ. eigenvalues --   -0.30507  -0.30281  -0.30194  -0.30019  -0.29901
 Alpha  occ. eigenvalues --   -0.29514  -0.29354  -0.29186  -0.28839  -0.28746
 Alpha  occ. eigenvalues --   -0.28640  -0.28092  -0.28002  -0.27910  -0.27778
 Alpha  occ. eigenvalues --   -0.27692  -0.27226  -0.26766  -0.26644  -0.26643
 Alpha  occ. eigenvalues --   -0.26367  -0.26185  -0.25976  -0.25957  -0.25847
 Alpha  occ. eigenvalues --   -0.25392  -0.24160  -0.24075  -0.23869  -0.23495
 Alpha  occ. eigenvalues --   -0.23257  -0.23025  -0.21781  -0.21113  -0.20654
 Alpha  occ. eigenvalues --   -0.20443  -0.19906  -0.18410  -0.17943  -0.17205
 Alpha  occ. eigenvalues --   -0.15466
 Alpha virt. eigenvalues --   -0.11190  -0.07003  -0.06138  -0.04364  -0.03509
 Alpha virt. eigenvalues --   -0.02893  -0.02554  -0.01843  -0.01594   0.00851
 Alpha virt. eigenvalues --    0.01103   0.01470   0.01790   0.02534   0.03042

 Mulliken charges:
               1
     1  Mg   0.734660
     2  C   -0.036569
     3  C   -0.094757
     4  C   -0.041807
     5  C   -0.101545
     6  N   -0.227420
     7  C   -0.074829
     8  C    0.017558
     9  C   -0.034651
    10  C    0.015597
    11  C    0.149430
    12  C    0.102869
    13  C    0.117636
    14  C    0.089896
    15  O   -0.148489
    16  O   -0.316727
    17  N   -0.286755
    18  C    0.198464
    19  C   -0.144611
    20  C    0.076629
    21  C    0.106216
    22  C    0.159415
    23  C   -0.136594
    24  O   -0.168823
    25  C    0.142286
    26  N   -0.207422
    27  C    0.005289
    28  C   -0.020139
    29  C    0.073267
    30  C   -0.005263
    31  C    0.130790
    32  C    0.058017
    33  C    0.070595
    34  N   -0.208998
    35  C    0.136949
    36  C   -0.147762
    37  C    0.050190
    38  C    0.091041
    39  C    0.173290
    40  C   -0.037415
    41  O   -0.135066
    42  C    0.100046
    43  C    0.114225
    44  O   -0.206506
    45  O   -0.250787
    46  C    0.222380
    47  C    0.294556
    48  C   -0.085186
    49  C   -0.188534
    50  C    0.148438
    51  C    0.121342
    52  C    0.079874
    53  C    0.103075
    54  C   -0.103301
    55  C    0.133552
    56  C    0.197289
    57  C   -0.042559
    58  C    0.152224
    59  C   -0.053587
    60  C    0.086356
    61  C    0.129748
    62  C    0.041778
    63  C    0.092785
    64  C   -0.159108
    65  C    0.126512
    66  C    0.094914
    67  H   -0.055267
    68  H   -0.052972
    69  H   -0.077267
    70  H   -0.036805
    71  H   -0.031653
    72  H   -0.017493
    73  H   -0.007702
    74  H   -0.001197
    75  H   -0.032919
    76  H    0.010080
    77  H    0.000508
    78  H    0.005985
    79  H    0.010575
    80  H    0.013269
    81  H   -0.011835
    82  H   -0.011117
    83  H    0.015327
    84  H   -0.010702
    85  H   -0.009277
    86  H   -0.039671
    87  H    0.000867
    88  H    0.001012
    89  H    0.001823
    90  H   -0.021668
    91  H   -0.017051
    92  H    0.000825
    93  H    0.015002
    94  H    0.001002
    95  H   -0.023687
    96  H    0.005453
    97  H    0.011427
    98  H   -0.007221
    99  H    0.011377
   100  H    0.003171
   101  H   -0.023469
   102  H    0.011910
   103  H    0.014297
   104  H   -0.028750
   105  H    0.002419
   106  H   -0.010621
   107  H   -0.007841
   108  H   -0.045890
   109  H   -0.002695
   110  H   -0.015647
   111  H   -0.027047
   112  H   -0.032249
   113  H   -0.046670
   114  H   -0.033188
   115  H   -0.016266
   116  H   -0.021152
   117  H   -0.010482
   118  H   -0.050962
   119  H   -0.044297
   120  H   -0.003803
   121  H   -0.043676
   122  H   -0.029412
   123  H   -0.037413
   124  H   -0.034307
   125  H   -0.016984
   126  H   -0.012904
   127  H   -0.013656
   128  H   -0.042647
   129  H   -0.051865
   130  H   -0.028014
   131  H   -0.033373
   132  H   -0.033483
   133  H   -0.038648
   134  H   -0.016763
   135  H   -0.023739
   136  H   -0.008402
   137  H   -0.010023
   138  H   -0.028480
   139  H    0.007953
   140  H   -0.027933
 Sum of Mulliken charges =  -0.00000

 Dipole moment (field-independent basis, Debye):
    X=             -2.8886    Y=              3.5082    Z=             -2.6055  Tot=              5.2383
 Quadrupole moment (field-independent basis, Debye-Ang):
   XX=           -370.2272   YY=           -428.2939   ZZ=           -406.1931
   XY=              4.9633   XZ=              1.3625   YZ=             -1.7531

 Normal termination of Gaussian 16 at Fri Apr 29 12:17:40 2022.
