 Gaussian 16, Revision A.03,
 Gaussian 16:  ES64L-G16RevA.03 25-Dec-2016

 -----------------------------------
 #p cam-b3lyp/Def2SVP td=(nstates=5)
 -----------------------------------

 ------------------------------------------------------
 step_301_chromophore_1 TDDFT with cam-b3lyp functional
 ------------------------------------------------------
 Symbolic Z-matrix:
 Charge =  0 Multiplicity = 1

                         Standard orientation:
 ---------------------------------------------------------------------
 Center     Atomic      Atomic             Coordinates (Angstroms)
 Number     Number       Type             X           Y           Z
 ---------------------------------------------------------------------
      1         12           0        6.013800    0.532506    0.323866
      2          6           0        4.112014   -2.252452   -0.412734
      3          6           0        3.877134    2.555521   -1.521622
      4          6           0        8.240652    2.998551    0.347716
      5          6           0        8.653662   -1.717918    0.771967
      6          7           0        4.208728    0.186702   -0.667955
      7          6           0        3.483465   -0.971110   -0.737731
      8          6           0        2.081695   -0.789210   -1.331336
      9          6           0        2.210575    0.606566   -1.950464
     10          6           0        3.532142    1.123791   -1.373425
     11          6           0        1.938040    0.675238   -3.459498
     12          6           0        0.932432   -0.906038   -0.296579
     13          6           0       -0.532172   -0.780470   -0.736549
     14          6           0       -1.593887   -1.744573   -0.175475
     15          8           0       -1.437800   -2.548426    0.698375
     16          8           0       -2.780493   -1.572712   -0.898959
     17          7           0        5.925106    2.569547   -0.115556
     18          6           0        4.994665    3.191403   -0.971764
     19          6           0        5.280315    4.613195   -1.073952
     20          6           0        6.533393    4.771718   -0.412498
     21          6           0        6.960320    3.376932   -0.052074
     22          6           0        4.356191    5.726954   -1.759743
     23          6           0        7.215428    6.037791   -0.213555
     24          8           0        8.279529    6.024516    0.359053
     25          6           0        6.657924    7.418909   -0.506003
     26          7           0        8.137066    0.589089    0.650151
     27          6           0        8.846448    1.774526    0.572698
     28          6           0       10.348172    1.642724    0.852933
     29          6           0       10.428142    0.059436    1.197480
     30          6           0        9.007018   -0.390891    0.783431
     31          6           0       11.232880    2.124680   -0.364233
     32          6           0       10.846638   -0.222458    2.668748
     33          6           0        9.812726    0.081472    3.848650
     34          7           0        6.332963   -1.552136    0.166949
     35          6           0        7.484657   -2.340221    0.386849
     36          6           0        7.196352   -3.674369    0.385372
     37          6           0        5.832921   -3.726030   -0.013076
     38          6           0        5.404815   -2.387461   -0.092567
     39          6           0        8.054281   -4.769555    0.489190
     40          6           0        4.666837   -4.607574   -0.231163
     41          8           0        4.566508   -5.831730   -0.182845
     42          6           0        3.534537   -3.669390   -0.551378
     43          6           0        2.419416   -3.916455    0.417754
     44          8           0        2.382655   -3.645820    1.629777
     45          8           0        1.507854   -4.787226   -0.180570
     46          6           0        0.614455   -5.350075    0.751134
     47          6           0       -3.893612   -2.517163   -0.554911
     48          6           0       -5.207899   -1.863468   -0.917421
     49          6           0       -6.264764   -2.558590   -1.342426
     50          6           0       -6.320935   -4.096762   -1.177596
     51          6           0       -7.479101   -1.732689   -1.864020
     52          6           0       -8.481098   -1.357268   -0.730277
     53          6           0       -8.418417    0.108586   -0.346694
     54          6           0       -9.695079    0.917011   -0.709279
     55          6           0       -9.899902    1.063259   -2.193509
     56          6           0       -9.873971    2.226395    0.086501
     57          6           0      -11.233527    2.307186    0.712678
     58          6           0      -11.383955    1.979938    2.215773
     59          6           0      -12.830078    2.172951    2.720717
     60          6           0      -12.941198    2.943842    4.102301
     61          6           0      -13.717842    0.874508    2.757533
     62          6           0      -15.016110    0.864741    1.960774
     63          6           0      -14.976863   -0.048421    0.634200
     64          6           0      -14.913644    0.885422   -0.613103
     65          6           0      -16.265542    1.597938   -0.761376
     66          6           0      -14.432941    0.106467   -1.876218
     67          1           0        3.032092    3.042680   -2.011961
     68          1           0        8.952088    3.820534    0.245261
     69          1           0        9.470572   -2.409902    0.983073
     70          1           0        1.916359   -1.561664   -2.082403
     71          1           0        1.334033    1.134386   -1.574747
     72          1           0        1.850149   -0.336937   -3.853451
     73          1           0        2.870009    1.085297   -3.846947
     74          1           0        0.996031    1.186695   -3.654754
     75          1           0        1.179163   -0.112062    0.409170
     76          1           0        1.053184   -1.853856    0.228429
     77          1           0       -0.606021   -0.760153   -1.823990
     78          1           0       -0.838070    0.199296   -0.368989
     79          1           0        5.001618    6.362086   -2.366956
     80          1           0        3.833919    6.336430   -1.021926
     81          1           0        3.552637    5.255167   -2.325514
     82          1           0        5.600626    7.525033   -0.260619
     83          1           0        6.925381    7.674094   -1.531934
     84          1           0        7.104038    8.120337    0.198246
     85          1           0       10.502313    2.264761    1.734493
     86          1           0       11.099621   -0.417779    0.483479
     87          1           0       10.541014    2.427475   -1.150379
     88          1           0       11.937261    1.360528   -0.691854
     89          1           0       11.730844    3.039642   -0.044651
     90          1           0       11.648451    0.505722    2.795509
     91          1           0       11.291755   -1.209995    2.789801
     92          1           0       10.211503    1.003871    4.269886
     93          1           0        9.680497   -0.822484    4.444548
     94          1           0        8.885399    0.361957    3.349096
     95          1           0        8.935046   -4.467089    1.055724
     96          1           0        8.430698   -5.015936   -0.503637
     97          1           0        7.611129   -5.672366    0.908026
     98          1           0        3.098193   -3.898135   -1.524263
     99          1           0       -0.005116   -4.702945    1.371239
    100          1           0        1.026487   -6.123998    1.399148
    101          1           0       -0.226222   -5.814743    0.234892
    102          1           0       -3.800958   -2.707156    0.514762
    103          1           0       -3.753924   -3.418299   -1.151490
    104          1           0       -5.164660   -0.804822   -1.170912
    105          1           0       -5.410843   -4.518519   -0.751131
    106          1           0       -6.541692   -4.564552   -2.136687
    107          1           0       -7.228656   -4.361248   -0.635312
    108          1           0       -8.053655   -2.423898   -2.482662
    109          1           0       -7.018264   -0.927971   -2.435859
    110          1           0       -8.266686   -1.942644    0.163862
    111          1           0       -9.435456   -1.614442   -1.187894
    112          1           0       -7.431860    0.479009   -0.626717
    113          1           0       -8.427429    0.098498    0.743454
    114          1           0      -10.486971    0.260268   -0.348938
    115          1           0       -9.133665    0.461012   -2.681040
    116          1           0       -9.780690    2.095935   -2.521699
    117          1           0      -10.923170    0.771103   -2.431361
    118          1           0       -9.871316    3.061161   -0.615025
    119          1           0       -9.067673    2.472248    0.778911
    120          1           0      -11.893128    1.739689    0.057211
    121          1           0      -11.616201    3.323914    0.805405
    122          1           0      -10.706328    2.547915    2.852297
    123          1           0      -11.204078    0.908108    2.134024
    124          1           0      -13.335095    2.860707    2.043376
    125          1           0      -13.684928    2.541747    4.791337
    126          1           0      -13.240821    3.954613    3.823925
    127          1           0      -12.021526    2.944483    4.687854
    128          1           0      -14.041540    0.547380    3.745331
    129          1           0      -13.225894   -0.030284    2.402312
    130          1           0      -15.181064    1.907376    1.686770
    131          1           0      -15.884631    0.526098    2.525491
    132          1           0      -15.858489   -0.689180    0.608020
    133          1           0      -14.115284   -0.705569    0.511671
    134          1           0      -14.128411    1.639350   -0.575478
    135          1           0      -15.927006    2.622366   -0.917812
    136          1           0      -16.807364    1.632633    0.184823
    137          1           0      -16.826900    1.133401   -1.571919
    138          1           0      -15.314368   -0.380294   -2.293276
    139          1           0      -13.564003   -0.536016   -1.732808
    140          1           0      -14.297543    0.896366   -2.614948
 ---------------------------------------------------------------------

 SCF Done:  E(RCAM-B3LYP) =  -3007.12508537     A.U. after   17 cycles

 Excitation energies and oscillator strengths:

 Excited State   1:      Singlet-A      1.7033 eV  727.91 nm  f=0.3577  <S**2>=0.000
     245 -> 248       -0.18818
     246 -> 247        0.68371
     245 <- 248       -0.10961
 This state for optimization and/or second-order correction.
 Total Energy, E(TD-HF/TD-DFT) =  -3007.06249072
 Copying the excited state density for this state as the 1-particle RhoCI density.

 Excited State   2:      Singlet-A      2.2668 eV  546.95 nm  f=0.0645  <S**2>=0.000
     245 -> 247        0.60541
     246 -> 248        0.35481

 Excited State   3:      Singlet-A      3.3754 eV  367.32 nm  f=0.3251  <S**2>=0.000
     244 -> 247        0.46524
     245 -> 247        0.23105
     246 -> 248       -0.45581

 Excited State   4:      Singlet-A      3.4351 eV  360.93 nm  f=0.3644  <S**2>=0.000
     243 -> 247       -0.22716
     244 -> 247        0.45333
     245 -> 247       -0.23398
     246 -> 248        0.35985

 Excited State   5:      Singlet-A      3.5209 eV  352.14 nm  f=0.0710  <S**2>=0.000
     240 -> 247        0.50775
     240 -> 249       -0.29264
     240 -> 251       -0.16763
     243 -> 247        0.10750
     246 -> 248        0.14799

 The electronic state is 1-A.
 Alpha  occ. eigenvalues --  -46.88762 -19.24456 -19.24411 -19.20904 -19.19347
 Alpha  occ. eigenvalues --  -19.18266 -19.17892 -14.43162 -14.41522 -14.40003
 Alpha  occ. eigenvalues --  -14.37773 -10.40001 -10.38830 -10.34402 -10.34096
 Alpha  occ. eigenvalues --  -10.32042 -10.31808 -10.31381 -10.30611 -10.30578
 Alpha  occ. eigenvalues --  -10.30553 -10.29503 -10.29441 -10.28957 -10.28320
 Alpha  occ. eigenvalues --  -10.28161 -10.28006 -10.27997 -10.27980 -10.27933
 Alpha  occ. eigenvalues --  -10.27927 -10.27838 -10.27661 -10.27328 -10.27318
 Alpha  occ. eigenvalues --  -10.26978 -10.26698 -10.26665 -10.26596 -10.26514
 Alpha  occ. eigenvalues --  -10.26445 -10.26263 -10.26118 -10.26105 -10.26078
 Alpha  occ. eigenvalues --  -10.26050 -10.25624 -10.25606 -10.25505 -10.25406
 Alpha  occ. eigenvalues --  -10.25378 -10.25170 -10.25033 -10.24858 -10.24850
 Alpha  occ. eigenvalues --  -10.24821 -10.24816 -10.24741 -10.24630 -10.24623
 Alpha  occ. eigenvalues --  -10.24608 -10.24547 -10.24511 -10.24388 -10.24300
 Alpha  occ. eigenvalues --  -10.24122  -3.17409  -1.92293  -1.91857  -1.91716
 Alpha  occ. eigenvalues --   -1.16116  -1.15487  -1.10662  -1.08824  -1.08245
 Alpha  occ. eigenvalues --   -1.06487  -1.05245  -1.04235  -1.04163  -1.03233
 Alpha  occ. eigenvalues --   -0.92832  -0.91024  -0.90387  -0.89846  -0.88984
 Alpha  occ. eigenvalues --   -0.88864  -0.88275  -0.87801  -0.87521  -0.87052
 Alpha  occ. eigenvalues --   -0.86695  -0.85699  -0.84875  -0.83485  -0.82952
 Alpha  occ. eigenvalues --   -0.82481  -0.81385  -0.80932  -0.80620  -0.80165
 Alpha  occ. eigenvalues --   -0.79828  -0.78632  -0.78490  -0.77057  -0.76621
 Alpha  occ. eigenvalues --   -0.75787  -0.75746  -0.75238  -0.75141  -0.74038
 Alpha  occ. eigenvalues --   -0.73643  -0.72646  -0.72084  -0.70703  -0.69506
 Alpha  occ. eigenvalues --   -0.68633  -0.68114  -0.67288  -0.66516  -0.65542
 Alpha  occ. eigenvalues --   -0.64905  -0.64823  -0.64532  -0.63744  -0.63583
 Alpha  occ. eigenvalues --   -0.63574  -0.62510  -0.62163  -0.61546  -0.60545
 Alpha  occ. eigenvalues --   -0.60314  -0.59361  -0.59259  -0.58500  -0.57479
 Alpha  occ. eigenvalues --   -0.57426  -0.56825  -0.56143  -0.55928  -0.55597
 Alpha  occ. eigenvalues --   -0.55263  -0.54964  -0.54687  -0.54573  -0.53932
 Alpha  occ. eigenvalues --   -0.53869  -0.53449  -0.53319  -0.53268  -0.53160
 Alpha  occ. eigenvalues --   -0.52814  -0.52551  -0.52407  -0.52266  -0.51862
 Alpha  occ. eigenvalues --   -0.51466  -0.51356  -0.51204  -0.51123  -0.50817
 Alpha  occ. eigenvalues --   -0.50546  -0.50184  -0.50090  -0.49845  -0.49469
 Alpha  occ. eigenvalues --   -0.49267  -0.49198  -0.49055  -0.48826  -0.48757
 Alpha  occ. eigenvalues --   -0.48644  -0.48424  -0.48365  -0.48285  -0.48063
 Alpha  occ. eigenvalues --   -0.47873  -0.47536  -0.47369  -0.47182  -0.46612
 Alpha  occ. eigenvalues --   -0.46467  -0.46282  -0.46195  -0.46112  -0.45815
 Alpha  occ. eigenvalues --   -0.45435  -0.45235  -0.45128  -0.45086  -0.44937
 Alpha  occ. eigenvalues --   -0.44606  -0.44581  -0.43869  -0.43765  -0.43668
 Alpha  occ. eigenvalues --   -0.43604  -0.43505  -0.43304  -0.43056  -0.42987
 Alpha  occ. eigenvalues --   -0.42844  -0.42662  -0.42396  -0.42315  -0.42079
 Alpha  occ. eigenvalues --   -0.42056  -0.41945  -0.41791  -0.41284  -0.41219
 Alpha  occ. eigenvalues --   -0.40604  -0.40424  -0.40275  -0.40150  -0.39839
 Alpha  occ. eigenvalues --   -0.39783  -0.39693  -0.38986  -0.38916  -0.38723
 Alpha  occ. eigenvalues --   -0.38633  -0.37995  -0.37874  -0.37527  -0.37409
 Alpha  occ. eigenvalues --   -0.37244  -0.37011  -0.36815  -0.36632  -0.36581
 Alpha  occ. eigenvalues --   -0.36293  -0.35590  -0.34997  -0.34595  -0.34362
 Alpha  occ. eigenvalues --   -0.33715  -0.33649  -0.33247  -0.31001  -0.30517
 Alpha  occ. eigenvalues --   -0.30393  -0.30153  -0.30131  -0.28963  -0.24008
 Alpha  occ. eigenvalues --   -0.20687
 Alpha virt. eigenvalues --   -0.08128  -0.02004   0.00228   0.01750   0.02621
 Alpha virt. eigenvalues --    0.04667   0.05398   0.05456   0.05804   0.06939
 Alpha virt. eigenvalues --    0.07062   0.07969   0.08932   0.09317   0.09343

 Mulliken charges:
               1
     1  Mg   0.865251
     2  C   -0.056723
     3  C   -0.098504
     4  C   -0.065028
     5  C   -0.107005
     6  N   -0.296824
     7  C   -0.031572
     8  C   -0.026394
     9  C   -0.094433
    10  C    0.031032
    11  C    0.089137
    12  C    0.056393
    13  C    0.044439
    14  C    0.174384
    15  O   -0.191489
    16  O   -0.382411
    17  N   -0.370408
    18  C    0.193132
    19  C   -0.145289
    20  C    0.003925
    21  C    0.136141
    22  C    0.111280
    23  C   -0.061260
    24  O   -0.208359
    25  C    0.062576
    26  N   -0.278750
    27  C    0.027042
    28  C   -0.072774
    29  C    0.021683
    30  C    0.007654
    31  C    0.073577
    32  C    0.005831
    33  C    0.011276
    34  N   -0.299364
    35  C    0.139157
    36  C   -0.146440
    37  C   -0.021283
    38  C    0.117884
    39  C    0.114011
    40  C    0.062119
    41  O   -0.174300
    42  C    0.020889
    43  C    0.202570
    44  O   -0.239892
    45  O   -0.312195
    46  C    0.178960
    47  C    0.260545
    48  C   -0.105004
    49  C   -0.205293
    50  C    0.085246
    51  C    0.060097
    52  C    0.026303
    53  C    0.052475
    54  C   -0.159157
    55  C    0.079224
    56  C    0.134425
    57  C   -0.082285
    58  C    0.101169
    59  C   -0.115506
    60  C    0.033170
    61  C    0.076061
    62  C   -0.011459
    63  C    0.038785
    64  C   -0.211466
    65  C    0.064906
    66  C    0.039487
    67  H   -0.019621
    68  H   -0.014553
    69  H   -0.043993
    70  H   -0.002679
    71  H    0.003625
    72  H    0.009051
    73  H    0.018807
    74  H    0.022975
    75  H   -0.001379
    76  H    0.036030
    77  H    0.032005
    78  H    0.037479
    79  H    0.035625
    80  H    0.039731
    81  H    0.016134
    82  H    0.018283
    83  H    0.043710
    84  H    0.025708
    85  H    0.024541
    86  H   -0.003212
    87  H    0.026269
    88  H    0.025005
    89  H    0.025278
    90  H    0.005554
    91  H    0.010150
    92  H    0.022577
    93  H    0.038072
    94  H    0.020777
    95  H    0.000532
    96  H    0.032408
    97  H    0.038630
    98  H    0.038122
    99  H    0.034921
   100  H    0.026911
   101  H    0.000915
   102  H    0.043200
   103  H    0.039224
   104  H    0.004671
   105  H    0.025794
   106  H    0.014674
   107  H    0.016341
   108  H   -0.013834
   109  H    0.024865
   110  H    0.013349
   111  H    0.001264
   112  H   -0.005808
   113  H   -0.015828
   114  H   -0.004354
   115  H    0.004935
   116  H    0.003835
   117  H    0.010582
   118  H   -0.018531
   119  H   -0.012979
   120  H    0.013041
   121  H   -0.014956
   122  H   -0.000530
   123  H   -0.011491
   124  H   -0.004319
   125  H    0.007325
   126  H    0.009983
   127  H    0.009395
   128  H   -0.011919
   129  H   -0.022103
   130  H   -0.002456
   131  H   -0.002962
   132  H   -0.003986
   133  H   -0.012452
   134  H    0.008460
   135  H    0.000960
   136  H    0.015786
   137  H    0.014230
   138  H   -0.004767
   139  H    0.028225
   140  H   -0.002622
 Sum of Mulliken charges =  -0.00000

 Dipole moment (field-independent basis, Debye):
    X=             -3.1567    Y=              4.5305    Z=             -2.9905  Tot=              6.2796
 Quadrupole moment (field-independent basis, Debye-Ang):
   XX=           -371.0779   YY=           -422.8386   ZZ=           -406.3166
   XY=             10.6242   XZ=              0.0554   YZ=             -2.7180

 Normal termination of Gaussian 16 at Fri Apr 29 11:18:12 2022.
