 Gaussian 16, Revision A.03,
 Gaussian 16:  ES64L-G16RevA.03 25-Dec-2016

 ---------------------------------
 #p PBE1PBE/Def2SVP td=(nstates=5)
 ---------------------------------

 ----------------------------------------------------
 step_301_chromophore_1 TDDFT with PBE1PBE functional
 ----------------------------------------------------
 Symbolic Z-matrix:
 Charge =  0 Multiplicity = 1

                         Standard orientation:
 ---------------------------------------------------------------------
 Center     Atomic      Atomic             Coordinates (Angstroms)
 Number     Number       Type             X           Y           Z
 ---------------------------------------------------------------------
      1         12           0        6.013800    0.532506    0.323866
      2          6           0        4.112014   -2.252452   -0.412734
      3          6           0        3.877134    2.555521   -1.521622
      4          6           0        8.240652    2.998551    0.347716
      5          6           0        8.653662   -1.717918    0.771967
      6          7           0        4.208728    0.186702   -0.667955
      7          6           0        3.483465   -0.971110   -0.737731
      8          6           0        2.081695   -0.789210   -1.331336
      9          6           0        2.210575    0.606566   -1.950464
     10          6           0        3.532142    1.123791   -1.373425
     11          6           0        1.938040    0.675238   -3.459498
     12          6           0        0.932432   -0.906038   -0.296579
     13          6           0       -0.532172   -0.780470   -0.736549
     14          6           0       -1.593887   -1.744573   -0.175475
     15          8           0       -1.437800   -2.548426    0.698375
     16          8           0       -2.780493   -1.572712   -0.898959
     17          7           0        5.925106    2.569547   -0.115556
     18          6           0        4.994665    3.191403   -0.971764
     19          6           0        5.280315    4.613195   -1.073952
     20          6           0        6.533393    4.771718   -0.412498
     21          6           0        6.960320    3.376932   -0.052074
     22          6           0        4.356191    5.726954   -1.759743
     23          6           0        7.215428    6.037791   -0.213555
     24          8           0        8.279529    6.024516    0.359053
     25          6           0        6.657924    7.418909   -0.506003
     26          7           0        8.137066    0.589089    0.650151
     27          6           0        8.846448    1.774526    0.572698
     28          6           0       10.348172    1.642724    0.852933
     29          6           0       10.428142    0.059436    1.197480
     30          6           0        9.007018   -0.390891    0.783431
     31          6           0       11.232880    2.124680   -0.364233
     32          6           0       10.846638   -0.222458    2.668748
     33          6           0        9.812726    0.081472    3.848650
     34          7           0        6.332963   -1.552136    0.166949
     35          6           0        7.484657   -2.340221    0.386849
     36          6           0        7.196352   -3.674369    0.385372
     37          6           0        5.832921   -3.726030   -0.013076
     38          6           0        5.404815   -2.387461   -0.092567
     39          6           0        8.054281   -4.769555    0.489190
     40          6           0        4.666837   -4.607574   -0.231163
     41          8           0        4.566508   -5.831730   -0.182845
     42          6           0        3.534537   -3.669390   -0.551378
     43          6           0        2.419416   -3.916455    0.417754
     44          8           0        2.382655   -3.645820    1.629777
     45          8           0        1.507854   -4.787226   -0.180570
     46          6           0        0.614455   -5.350075    0.751134
     47          6           0       -3.893612   -2.517163   -0.554911
     48          6           0       -5.207899   -1.863468   -0.917421
     49          6           0       -6.264764   -2.558590   -1.342426
     50          6           0       -6.320935   -4.096762   -1.177596
     51          6           0       -7.479101   -1.732689   -1.864020
     52          6           0       -8.481098   -1.357268   -0.730277
     53          6           0       -8.418417    0.108586   -0.346694
     54          6           0       -9.695079    0.917011   -0.709279
     55          6           0       -9.899902    1.063259   -2.193509
     56          6           0       -9.873971    2.226395    0.086501
     57          6           0      -11.233527    2.307186    0.712678
     58          6           0      -11.383955    1.979938    2.215773
     59          6           0      -12.830078    2.172951    2.720717
     60          6           0      -12.941198    2.943842    4.102301
     61          6           0      -13.717842    0.874508    2.757533
     62          6           0      -15.016110    0.864741    1.960774
     63          6           0      -14.976863   -0.048421    0.634200
     64          6           0      -14.913644    0.885422   -0.613103
     65          6           0      -16.265542    1.597938   -0.761376
     66          6           0      -14.432941    0.106467   -1.876218
     67          1           0        3.032092    3.042680   -2.011961
     68          1           0        8.952088    3.820534    0.245261
     69          1           0        9.470572   -2.409902    0.983073
     70          1           0        1.916359   -1.561664   -2.082403
     71          1           0        1.334033    1.134386   -1.574747
     72          1           0        1.850149   -0.336937   -3.853451
     73          1           0        2.870009    1.085297   -3.846947
     74          1           0        0.996031    1.186695   -3.654754
     75          1           0        1.179163   -0.112062    0.409170
     76          1           0        1.053184   -1.853856    0.228429
     77          1           0       -0.606021   -0.760153   -1.823990
     78          1           0       -0.838070    0.199296   -0.368989
     79          1           0        5.001618    6.362086   -2.366956
     80          1           0        3.833919    6.336430   -1.021926
     81          1           0        3.552637    5.255167   -2.325514
     82          1           0        5.600626    7.525033   -0.260619
     83          1           0        6.925381    7.674094   -1.531934
     84          1           0        7.104038    8.120337    0.198246
     85          1           0       10.502313    2.264761    1.734493
     86          1           0       11.099621   -0.417779    0.483479
     87          1           0       10.541014    2.427475   -1.150379
     88          1           0       11.937261    1.360528   -0.691854
     89          1           0       11.730844    3.039642   -0.044651
     90          1           0       11.648451    0.505722    2.795509
     91          1           0       11.291755   -1.209995    2.789801
     92          1           0       10.211503    1.003871    4.269886
     93          1           0        9.680497   -0.822484    4.444548
     94          1           0        8.885399    0.361957    3.349096
     95          1           0        8.935046   -4.467089    1.055724
     96          1           0        8.430698   -5.015936   -0.503637
     97          1           0        7.611129   -5.672366    0.908026
     98          1           0        3.098193   -3.898135   -1.524263
     99          1           0       -0.005116   -4.702945    1.371239
    100          1           0        1.026487   -6.123998    1.399148
    101          1           0       -0.226222   -5.814743    0.234892
    102          1           0       -3.800958   -2.707156    0.514762
    103          1           0       -3.753924   -3.418299   -1.151490
    104          1           0       -5.164660   -0.804822   -1.170912
    105          1           0       -5.410843   -4.518519   -0.751131
    106          1           0       -6.541692   -4.564552   -2.136687
    107          1           0       -7.228656   -4.361248   -0.635312
    108          1           0       -8.053655   -2.423898   -2.482662
    109          1           0       -7.018264   -0.927971   -2.435859
    110          1           0       -8.266686   -1.942644    0.163862
    111          1           0       -9.435456   -1.614442   -1.187894
    112          1           0       -7.431860    0.479009   -0.626717
    113          1           0       -8.427429    0.098498    0.743454
    114          1           0      -10.486971    0.260268   -0.348938
    115          1           0       -9.133665    0.461012   -2.681040
    116          1           0       -9.780690    2.095935   -2.521699
    117          1           0      -10.923170    0.771103   -2.431361
    118          1           0       -9.871316    3.061161   -0.615025
    119          1           0       -9.067673    2.472248    0.778911
    120          1           0      -11.893128    1.739689    0.057211
    121          1           0      -11.616201    3.323914    0.805405
    122          1           0      -10.706328    2.547915    2.852297
    123          1           0      -11.204078    0.908108    2.134024
    124          1           0      -13.335095    2.860707    2.043376
    125          1           0      -13.684928    2.541747    4.791337
    126          1           0      -13.240821    3.954613    3.823925
    127          1           0      -12.021526    2.944483    4.687854
    128          1           0      -14.041540    0.547380    3.745331
    129          1           0      -13.225894   -0.030284    2.402312
    130          1           0      -15.181064    1.907376    1.686770
    131          1           0      -15.884631    0.526098    2.525491
    132          1           0      -15.858489   -0.689180    0.608020
    133          1           0      -14.115284   -0.705569    0.511671
    134          1           0      -14.128411    1.639350   -0.575478
    135          1           0      -15.927006    2.622366   -0.917812
    136          1           0      -16.807364    1.632633    0.184823
    137          1           0      -16.826900    1.133401   -1.571919
    138          1           0      -15.314368   -0.380294   -2.293276
    139          1           0      -13.564003   -0.536016   -1.732808
    140          1           0      -14.297543    0.896366   -2.614948
 ---------------------------------------------------------------------

 SCF Done:  E(RPBE1PBE) =  -3005.31454185     A.U. after   16 cycles

 Excitation energies and oscillator strengths:

 Excited State   1:      Singlet-A      1.8448 eV  672.09 nm  f=0.3451  <S**2>=0.000
     245 -> 248        0.18365
     246 -> 247        0.69075
     246 <- 247       -0.10318
 This state for optimization and/or second-order correction.
 Total Energy, E(TD-HF/TD-DFT) =  -3005.24674820
 Copying the excited state density for this state as the 1-particle RhoCI density.

 Excited State   2:      Singlet-A      2.2695 eV  546.31 nm  f=0.0743  <S**2>=0.000
     245 -> 247        0.62421
     246 -> 248       -0.32108

 Excited State   3:      Singlet-A      2.9834 eV  415.58 nm  f=0.0029  <S**2>=0.000
     243 -> 247        0.62264
     243 -> 249        0.18760
     244 -> 247       -0.22945

 Excited State   4:      Singlet-A      3.0173 eV  410.92 nm  f=0.0001  <S**2>=0.000
     242 -> 247        0.52401
     242 -> 249       -0.13248
     243 -> 247        0.17433
     244 -> 247        0.38888

 Excited State   5:      Singlet-A      3.0846 eV  401.95 nm  f=0.0026  <S**2>=0.000
     242 -> 247       -0.41328
     243 -> 247        0.11878
     244 -> 247        0.51330
     246 -> 248        0.12803

 The electronic state is 1-A.
 Alpha  occ. eigenvalues --  -46.92194 -19.25202 -19.25083 -19.21155 -19.19586
 Alpha  occ. eigenvalues --  -19.18571 -19.17986 -14.42596 -14.41109 -14.39584
 Alpha  occ. eigenvalues --  -14.37487 -10.37033 -10.35886 -10.31598 -10.31077
 Alpha  occ. eigenvalues --  -10.29477 -10.29467 -10.29269 -10.28208 -10.28161
 Alpha  occ. eigenvalues --  -10.28077 -10.27345 -10.26935 -10.26216 -10.25863
 Alpha  occ. eigenvalues --  -10.25820 -10.25748 -10.25747 -10.25675 -10.25603
 Alpha  occ. eigenvalues --  -10.25547 -10.25518 -10.25420 -10.25077 -10.25012
 Alpha  occ. eigenvalues --  -10.24543 -10.24302 -10.24291 -10.24230 -10.24107
 Alpha  occ. eigenvalues --  -10.23889 -10.23879 -10.23851 -10.23802 -10.23601
 Alpha  occ. eigenvalues --  -10.23306 -10.23214 -10.23101 -10.23084 -10.23070
 Alpha  occ. eigenvalues --  -10.22937 -10.22920 -10.22731 -10.22407 -10.22403
 Alpha  occ. eigenvalues --  -10.22374 -10.22359 -10.22309 -10.22133 -10.22059
 Alpha  occ. eigenvalues --  -10.22037 -10.22033 -10.22014 -10.21917 -10.21871
 Alpha  occ. eigenvalues --  -10.21782  -3.14413  -1.87236  -1.86781  -1.86643
 Alpha  occ. eigenvalues --   -1.10917  -1.10276  -1.05287  -1.03624  -1.03148
 Alpha  occ. eigenvalues --   -1.01298  -0.99947  -0.98908  -0.98797  -0.97909
 Alpha  occ. eigenvalues --   -0.87234  -0.85137  -0.84623  -0.83979  -0.83400
 Alpha  occ. eigenvalues --   -0.82960  -0.82621  -0.82092  -0.81639  -0.81354
 Alpha  occ. eigenvalues --   -0.80855  -0.79927  -0.79049  -0.77855  -0.77174
 Alpha  occ. eigenvalues --   -0.76709  -0.75639  -0.75094  -0.74872  -0.74372
 Alpha  occ. eigenvalues --   -0.74070  -0.72920  -0.72639  -0.71401  -0.70781
 Alpha  occ. eigenvalues --   -0.70157  -0.69840  -0.69485  -0.69390  -0.68197
 Alpha  occ. eigenvalues --   -0.67960  -0.67094  -0.66507  -0.65021  -0.63892
 Alpha  occ. eigenvalues --   -0.63017  -0.62396  -0.61781  -0.60764  -0.59991
 Alpha  occ. eigenvalues --   -0.59394  -0.59325  -0.58764  -0.58179  -0.57891
 Alpha  occ. eigenvalues --   -0.57690  -0.57023  -0.56359  -0.56160  -0.55051
 Alpha  occ. eigenvalues --   -0.54815  -0.53886  -0.53812  -0.53153  -0.51839
 Alpha  occ. eigenvalues --   -0.51830  -0.51416  -0.50609  -0.50513  -0.50102
 Alpha  occ. eigenvalues --   -0.49737  -0.49456  -0.49220  -0.49042  -0.48481
 Alpha  occ. eigenvalues --   -0.48408  -0.48011  -0.47700  -0.47632  -0.47627
 Alpha  occ. eigenvalues --   -0.47415  -0.47046  -0.46950  -0.46677  -0.46382
 Alpha  occ. eigenvalues --   -0.46011  -0.45909  -0.45797  -0.45638  -0.45514
 Alpha  occ. eigenvalues --   -0.45119  -0.44702  -0.44595  -0.44453  -0.44082
 Alpha  occ. eigenvalues --   -0.43870  -0.43821  -0.43629  -0.43378  -0.43326
 Alpha  occ. eigenvalues --   -0.43260  -0.42987  -0.42949  -0.42837  -0.42634
 Alpha  occ. eigenvalues --   -0.42477  -0.42149  -0.42000  -0.41855  -0.41349
 Alpha  occ. eigenvalues --   -0.41133  -0.41015  -0.40970  -0.40810  -0.40482
 Alpha  occ. eigenvalues --   -0.40213  -0.39971  -0.39950  -0.39754  -0.39692
 Alpha  occ. eigenvalues --   -0.39425  -0.39388  -0.38559  -0.38548  -0.38435
 Alpha  occ. eigenvalues --   -0.38315  -0.38188  -0.38075  -0.37870  -0.37749
 Alpha  occ. eigenvalues --   -0.37639  -0.37479  -0.37148  -0.37062  -0.36857
 Alpha  occ. eigenvalues --   -0.36832  -0.36718  -0.36659  -0.36253  -0.35984
 Alpha  occ. eigenvalues --   -0.35486  -0.35369  -0.35058  -0.35012  -0.34715
 Alpha  occ. eigenvalues --   -0.34534  -0.34469  -0.33965  -0.33818  -0.33662
 Alpha  occ. eigenvalues --   -0.33492  -0.32880  -0.32770  -0.32385  -0.32223
 Alpha  occ. eigenvalues --   -0.32173  -0.32066  -0.31750  -0.31648  -0.31420
 Alpha  occ. eigenvalues --   -0.31253  -0.30518  -0.29859  -0.29841  -0.29223
 Alpha  occ. eigenvalues --   -0.29035  -0.28583  -0.28237  -0.26619  -0.25734
 Alpha  occ. eigenvalues --   -0.25438  -0.25315  -0.25090  -0.24737  -0.20925
 Alpha  occ. eigenvalues --   -0.18352
 Alpha virt. eigenvalues --   -0.10691  -0.05443  -0.03896  -0.01789  -0.01157
 Alpha virt. eigenvalues --    0.00045   0.00807   0.01082   0.01279   0.03718
 Alpha virt. eigenvalues --    0.03836   0.04499   0.04598   0.05597   0.05927

 Mulliken charges:
               1
     1  Mg   1.008639
     2  C   -0.051944
     3  C   -0.083118
     4  C   -0.050074
     5  C   -0.094800
     6  N   -0.408261
     7  C    0.050311
     8  C   -0.093502
     9  C   -0.170545
    10  C    0.067476
    11  C    0.030441
    12  C   -0.001744
    13  C   -0.032883
    14  C    0.240794
    15  O   -0.226501
    16  O   -0.411857
    17  N   -0.476378
    18  C    0.189269
    19  C   -0.153187
    20  C   -0.051504
    21  C    0.157834
    22  C    0.050827
    23  C   -0.010745
    24  O   -0.244088
    25  C   -0.010572
    26  N   -0.377296
    27  C    0.051833
    28  C   -0.144373
    29  C   -0.048704
    30  C    0.042333
    31  C    0.015777
    32  C   -0.055122
    33  C   -0.064782
    34  N   -0.431089
    35  C    0.156891
    36  C   -0.170369
    37  C   -0.053147
    38  C    0.155548
    39  C    0.057874
    40  C    0.159316
    41  O   -0.221290
    42  C   -0.090686
    43  C    0.285190
    44  O   -0.272436
    45  O   -0.344239
    46  C    0.122836
    47  C    0.219626
    48  C   -0.108202
    49  C   -0.248546
    50  C    0.020660
    51  C   -0.009447
    52  C   -0.031665
    53  C   -0.004854
    54  C   -0.250620
    55  C    0.018655
    56  C    0.084977
    57  C   -0.157238
    58  C    0.043327
    59  C   -0.202154
    60  C   -0.023510
    61  C    0.028756
    62  C   -0.075364
    63  C   -0.018190
    64  C   -0.306028
    65  C    0.005306
    66  C   -0.023182
    67  H    0.011442
    68  H    0.017718
    69  H   -0.011302
    70  H    0.035679
    71  H    0.043378
    72  H    0.036462
    73  H    0.047439
    74  H    0.048640
    75  H    0.033290
    76  H    0.081995
    77  H    0.063647
    78  H    0.069706
    79  H    0.062782
    80  H    0.065646
    81  H    0.043399
    82  H    0.044662
    83  H    0.069833
    84  H    0.052643
    85  H    0.060639
    86  H    0.034284
    87  H    0.054924
    88  H    0.051443
    89  H    0.052428
    90  H    0.041029
    91  H    0.041516
    92  H    0.049785
    93  H    0.064862
    94  H    0.053872
    95  H    0.028755
    96  H    0.061837
    97  H    0.066215
    98  H    0.074042
    99  H    0.058689
   100  H    0.050239
   101  H    0.024231
   102  H    0.069716
   103  H    0.065199
   104  H    0.033505
   105  H    0.050836
   106  H    0.043040
   107  H    0.044573
   108  H    0.021074
   109  H    0.054214
   110  H    0.045716
   111  H    0.032348
   112  H    0.027286
   113  H    0.019578
   114  H    0.034935
   115  H    0.036144
   116  H    0.030843
   117  H    0.038777
   118  H    0.015584
   119  H    0.018257
   120  H    0.053211
   121  H    0.019664
   122  H    0.030577
   123  H    0.024586
   124  H    0.032101
   125  H    0.034117
   126  H    0.037061
   127  H    0.035852
   128  H    0.020307
   129  H    0.010360
   130  H    0.030838
   131  H    0.029174
   132  H    0.028680
   133  H    0.018742
   134  H    0.048932
   135  H    0.028896
   136  H    0.043684
   137  H    0.041186
   138  H    0.024107
   139  H    0.053905
   140  H    0.026287
 Sum of Mulliken charges =  -0.00000

 Dipole moment (field-independent basis, Debye):
    X=             -3.0480    Y=              4.1595    Z=             -2.8650  Tot=              5.8991
 Quadrupole moment (field-independent basis, Debye-Ang):
   XX=           -363.9542   YY=           -420.5980   ZZ=           -403.7993
   XY=              8.1751   XZ=              1.5854   YZ=             -2.6896

 Normal termination of Gaussian 16 at Fri Apr 29 11:36:21 2022.
