 Gaussian 16, Revision A.03,
 Gaussian 16:  ES64L-G16RevA.03 25-Dec-2016

 --------------------------------
 #p wB97XD/Def2SVP td=(nstates=5)
 --------------------------------

 ---------------------------------------------------
 step_301_chromophore_1 TDDFT with wB97XD functional
 ---------------------------------------------------
 Symbolic Z-matrix:
 Charge =  0 Multiplicity = 1

                         Standard orientation:
 ---------------------------------------------------------------------
 Center     Atomic      Atomic             Coordinates (Angstroms)
 Number     Number       Type             X           Y           Z
 ---------------------------------------------------------------------
      1         12           0        6.013800    0.532506    0.323866
      2          6           0        4.112014   -2.252452   -0.412734
      3          6           0        3.877134    2.555521   -1.521622
      4          6           0        8.240652    2.998551    0.347716
      5          6           0        8.653662   -1.717918    0.771967
      6          7           0        4.208728    0.186702   -0.667955
      7          6           0        3.483465   -0.971110   -0.737731
      8          6           0        2.081695   -0.789210   -1.331336
      9          6           0        2.210575    0.606566   -1.950464
     10          6           0        3.532142    1.123791   -1.373425
     11          6           0        1.938040    0.675238   -3.459498
     12          6           0        0.932432   -0.906038   -0.296579
     13          6           0       -0.532172   -0.780470   -0.736549
     14          6           0       -1.593887   -1.744573   -0.175475
     15          8           0       -1.437800   -2.548426    0.698375
     16          8           0       -2.780493   -1.572712   -0.898959
     17          7           0        5.925106    2.569547   -0.115556
     18          6           0        4.994665    3.191403   -0.971764
     19          6           0        5.280315    4.613195   -1.073952
     20          6           0        6.533393    4.771718   -0.412498
     21          6           0        6.960320    3.376932   -0.052074
     22          6           0        4.356191    5.726954   -1.759743
     23          6           0        7.215428    6.037791   -0.213555
     24          8           0        8.279529    6.024516    0.359053
     25          6           0        6.657924    7.418909   -0.506003
     26          7           0        8.137066    0.589089    0.650151
     27          6           0        8.846448    1.774526    0.572698
     28          6           0       10.348172    1.642724    0.852933
     29          6           0       10.428142    0.059436    1.197480
     30          6           0        9.007018   -0.390891    0.783431
     31          6           0       11.232880    2.124680   -0.364233
     32          6           0       10.846638   -0.222458    2.668748
     33          6           0        9.812726    0.081472    3.848650
     34          7           0        6.332963   -1.552136    0.166949
     35          6           0        7.484657   -2.340221    0.386849
     36          6           0        7.196352   -3.674369    0.385372
     37          6           0        5.832921   -3.726030   -0.013076
     38          6           0        5.404815   -2.387461   -0.092567
     39          6           0        8.054281   -4.769555    0.489190
     40          6           0        4.666837   -4.607574   -0.231163
     41          8           0        4.566508   -5.831730   -0.182845
     42          6           0        3.534537   -3.669390   -0.551378
     43          6           0        2.419416   -3.916455    0.417754
     44          8           0        2.382655   -3.645820    1.629777
     45          8           0        1.507854   -4.787226   -0.180570
     46          6           0        0.614455   -5.350075    0.751134
     47          6           0       -3.893612   -2.517163   -0.554911
     48          6           0       -5.207899   -1.863468   -0.917421
     49          6           0       -6.264764   -2.558590   -1.342426
     50          6           0       -6.320935   -4.096762   -1.177596
     51          6           0       -7.479101   -1.732689   -1.864020
     52          6           0       -8.481098   -1.357268   -0.730277
     53          6           0       -8.418417    0.108586   -0.346694
     54          6           0       -9.695079    0.917011   -0.709279
     55          6           0       -9.899902    1.063259   -2.193509
     56          6           0       -9.873971    2.226395    0.086501
     57          6           0      -11.233527    2.307186    0.712678
     58          6           0      -11.383955    1.979938    2.215773
     59          6           0      -12.830078    2.172951    2.720717
     60          6           0      -12.941198    2.943842    4.102301
     61          6           0      -13.717842    0.874508    2.757533
     62          6           0      -15.016110    0.864741    1.960774
     63          6           0      -14.976863   -0.048421    0.634200
     64          6           0      -14.913644    0.885422   -0.613103
     65          6           0      -16.265542    1.597938   -0.761376
     66          6           0      -14.432941    0.106467   -1.876218
     67          1           0        3.032092    3.042680   -2.011961
     68          1           0        8.952088    3.820534    0.245261
     69          1           0        9.470572   -2.409902    0.983073
     70          1           0        1.916359   -1.561664   -2.082403
     71          1           0        1.334033    1.134386   -1.574747
     72          1           0        1.850149   -0.336937   -3.853451
     73          1           0        2.870009    1.085297   -3.846947
     74          1           0        0.996031    1.186695   -3.654754
     75          1           0        1.179163   -0.112062    0.409170
     76          1           0        1.053184   -1.853856    0.228429
     77          1           0       -0.606021   -0.760153   -1.823990
     78          1           0       -0.838070    0.199296   -0.368989
     79          1           0        5.001618    6.362086   -2.366956
     80          1           0        3.833919    6.336430   -1.021926
     81          1           0        3.552637    5.255167   -2.325514
     82          1           0        5.600626    7.525033   -0.260619
     83          1           0        6.925381    7.674094   -1.531934
     84          1           0        7.104038    8.120337    0.198246
     85          1           0       10.502313    2.264761    1.734493
     86          1           0       11.099621   -0.417779    0.483479
     87          1           0       10.541014    2.427475   -1.150379
     88          1           0       11.937261    1.360528   -0.691854
     89          1           0       11.730844    3.039642   -0.044651
     90          1           0       11.648451    0.505722    2.795509
     91          1           0       11.291755   -1.209995    2.789801
     92          1           0       10.211503    1.003871    4.269886
     93          1           0        9.680497   -0.822484    4.444548
     94          1           0        8.885399    0.361957    3.349096
     95          1           0        8.935046   -4.467089    1.055724
     96          1           0        8.430698   -5.015936   -0.503637
     97          1           0        7.611129   -5.672366    0.908026
     98          1           0        3.098193   -3.898135   -1.524263
     99          1           0       -0.005116   -4.702945    1.371239
    100          1           0        1.026487   -6.123998    1.399148
    101          1           0       -0.226222   -5.814743    0.234892
    102          1           0       -3.800958   -2.707156    0.514762
    103          1           0       -3.753924   -3.418299   -1.151490
    104          1           0       -5.164660   -0.804822   -1.170912
    105          1           0       -5.410843   -4.518519   -0.751131
    106          1           0       -6.541692   -4.564552   -2.136687
    107          1           0       -7.228656   -4.361248   -0.635312
    108          1           0       -8.053655   -2.423898   -2.482662
    109          1           0       -7.018264   -0.927971   -2.435859
    110          1           0       -8.266686   -1.942644    0.163862
    111          1           0       -9.435456   -1.614442   -1.187894
    112          1           0       -7.431860    0.479009   -0.626717
    113          1           0       -8.427429    0.098498    0.743454
    114          1           0      -10.486971    0.260268   -0.348938
    115          1           0       -9.133665    0.461012   -2.681040
    116          1           0       -9.780690    2.095935   -2.521699
    117          1           0      -10.923170    0.771103   -2.431361
    118          1           0       -9.871316    3.061161   -0.615025
    119          1           0       -9.067673    2.472248    0.778911
    120          1           0      -11.893128    1.739689    0.057211
    121          1           0      -11.616201    3.323914    0.805405
    122          1           0      -10.706328    2.547915    2.852297
    123          1           0      -11.204078    0.908108    2.134024
    124          1           0      -13.335095    2.860707    2.043376
    125          1           0      -13.684928    2.541747    4.791337
    126          1           0      -13.240821    3.954613    3.823925
    127          1           0      -12.021526    2.944483    4.687854
    128          1           0      -14.041540    0.547380    3.745331
    129          1           0      -13.225894   -0.030284    2.402312
    130          1           0      -15.181064    1.907376    1.686770
    131          1           0      -15.884631    0.526098    2.525491
    132          1           0      -15.858489   -0.689180    0.608020
    133          1           0      -14.115284   -0.705569    0.511671
    134          1           0      -14.128411    1.639350   -0.575478
    135          1           0      -15.927006    2.622366   -0.917812
    136          1           0      -16.807364    1.632633    0.184823
    137          1           0      -16.826900    1.133401   -1.571919
    138          1           0      -15.314368   -0.380294   -2.293276
    139          1           0      -13.564003   -0.536016   -1.732808
    140          1           0      -14.297543    0.896366   -2.614948
 ---------------------------------------------------------------------

 SCF Done:  E(RwB97XD) =  -3007.82424097     A.U. after   17 cycles

 Excitation energies and oscillator strengths:

 Excited State   1:      Singlet-A      1.6517 eV  750.66 nm  f=0.3560  <S**2>=0.000
     245 -> 248        0.19299
     246 -> 247        0.68158
     245 <- 248        0.11848
 This state for optimization and/or second-order correction.
 Total Energy, E(TD-HF/TD-DFT) =  -3007.76354343
 Copying the excited state density for this state as the 1-particle RhoCI density.

 Excited State   2:      Singlet-A      2.2126 eV  560.35 nm  f=0.0625  <S**2>=0.000
     245 -> 247        0.60408
     246 -> 248       -0.35535

 Excited State   3:      Singlet-A      3.3869 eV  366.08 nm  f=0.3818  <S**2>=0.000
     244 -> 247        0.42836
     245 -> 247        0.24553
     246 -> 248        0.48327

 Excited State   4:      Singlet-A      3.4592 eV  358.42 nm  f=0.2927  <S**2>=0.000
     241 -> 249       -0.12829
     242 -> 247       -0.29918
     244 -> 247        0.45997
     245 -> 247       -0.20634
     246 -> 248       -0.31206

 Excited State   5:      Singlet-A      3.5317 eV  351.06 nm  f=0.0861  <S**2>=0.000
     240 -> 247        0.42525
     240 -> 249        0.27871
     240 -> 250        0.13550
     241 -> 247        0.22751
     241 -> 250        0.10312
     242 -> 247        0.16089
     242 -> 249        0.19407
     244 -> 247        0.13385
     245 -> 247       -0.10664
     246 -> 248       -0.16381

 The electronic state is 1-A.
 Alpha  occ. eigenvalues --  -46.95111 -19.29729 -19.29640 -19.25802 -19.24299
 Alpha  occ. eigenvalues --  -19.23303 -19.22930 -14.47761 -14.46074 -14.44618
 Alpha  occ. eigenvalues --  -14.42346 -10.43793 -10.42710 -10.38401 -10.38054
 Alpha  occ. eigenvalues --  -10.35954 -10.35867 -10.35404 -10.34701 -10.34625
 Alpha  occ. eigenvalues --  -10.34591 -10.33661 -10.33444 -10.32693 -10.32302
 Alpha  occ. eigenvalues --  -10.32089 -10.32077 -10.32053 -10.31981 -10.31960
 Alpha  occ. eigenvalues --  -10.31927 -10.31876 -10.31693 -10.31457 -10.31339
 Alpha  occ. eigenvalues --  -10.31099 -10.30643 -10.30551 -10.30490 -10.30440
 Alpha  occ. eigenvalues --  -10.30304 -10.30227 -10.30133 -10.30086 -10.29963
 Alpha  occ. eigenvalues --  -10.29934 -10.29588 -10.29436 -10.29435 -10.29352
 Alpha  occ. eigenvalues --  -10.29316 -10.29126 -10.29059 -10.28763 -10.28748
 Alpha  occ. eigenvalues --  -10.28737 -10.28673 -10.28670 -10.28521 -10.28457
 Alpha  occ. eigenvalues --  -10.28452 -10.28437 -10.28361 -10.28232 -10.28204
 Alpha  occ. eigenvalues --  -10.28151  -3.21190  -1.94762  -1.94308  -1.94168
 Alpha  occ. eigenvalues --   -1.18266  -1.17663  -1.12889  -1.11038  -1.10464
 Alpha  occ. eigenvalues --   -1.08679  -1.07244  -1.06263  -1.06180  -1.05267
 Alpha  occ. eigenvalues --   -0.94805  -0.92807  -0.92232  -0.91647  -0.90910
 Alpha  occ. eigenvalues --   -0.90627  -0.90209  -0.89642  -0.89299  -0.88954
 Alpha  occ. eigenvalues --   -0.88652  -0.87592  -0.86709  -0.85411  -0.84812
 Alpha  occ. eigenvalues --   -0.84342  -0.83282  -0.82851  -0.82512  -0.82076
 Alpha  occ. eigenvalues --   -0.81715  -0.80581  -0.80409  -0.78962  -0.78462
 Alpha  occ. eigenvalues --   -0.77720  -0.77532  -0.77069  -0.77057  -0.75865
 Alpha  occ. eigenvalues --   -0.75564  -0.74617  -0.74043  -0.72641  -0.71416
 Alpha  occ. eigenvalues --   -0.70619  -0.70015  -0.69289  -0.68394  -0.67486
 Alpha  occ. eigenvalues --   -0.66845  -0.66782  -0.66398  -0.65594  -0.65533
 Alpha  occ. eigenvalues --   -0.65379  -0.64485  -0.63990  -0.63521  -0.62537
 Alpha  occ. eigenvalues --   -0.62292  -0.61310  -0.61242  -0.60482  -0.59387
 Alpha  occ. eigenvalues --   -0.59327  -0.58810  -0.58055  -0.57888  -0.57502
 Alpha  occ. eigenvalues --   -0.57168  -0.56913  -0.56638  -0.56470  -0.55847
 Alpha  occ. eigenvalues --   -0.55796  -0.55365  -0.55259  -0.55109  -0.55036
 Alpha  occ. eigenvalues --   -0.54748  -0.54422  -0.54311  -0.54188  -0.53744
 Alpha  occ. eigenvalues --   -0.53338  -0.53267  -0.53128  -0.52999  -0.52744
 Alpha  occ. eigenvalues --   -0.52432  -0.52081  -0.52036  -0.51746  -0.51406
 Alpha  occ. eigenvalues --   -0.51180  -0.51094  -0.51006  -0.50744  -0.50672
 Alpha  occ. eigenvalues --   -0.50580  -0.50368  -0.50279  -0.50150  -0.49947
 Alpha  occ. eigenvalues --   -0.49808  -0.49416  -0.49300  -0.49085  -0.48513
 Alpha  occ. eigenvalues --   -0.48361  -0.48203  -0.48111  -0.48030  -0.47688
 Alpha  occ. eigenvalues --   -0.47347  -0.47127  -0.47039  -0.46930  -0.46863
 Alpha  occ. eigenvalues --   -0.46536  -0.46485  -0.45718  -0.45624  -0.45579
 Alpha  occ. eigenvalues --   -0.45485  -0.45402  -0.45218  -0.45046  -0.44913
 Alpha  occ. eigenvalues --   -0.44784  -0.44609  -0.44333  -0.44196  -0.43979
 Alpha  occ. eigenvalues --   -0.43949  -0.43841  -0.43742  -0.43179  -0.43085
 Alpha  occ. eigenvalues --   -0.42536  -0.42331  -0.42130  -0.42037  -0.41764
 Alpha  occ. eigenvalues --   -0.41692  -0.41554  -0.40884  -0.40804  -0.40560
 Alpha  occ. eigenvalues --   -0.40542  -0.39833  -0.39794  -0.39380  -0.39263
 Alpha  occ. eigenvalues --   -0.39203  -0.39043  -0.38669  -0.38639  -0.38416
 Alpha  occ. eigenvalues --   -0.38144  -0.37581  -0.36915  -0.36605  -0.36215
 Alpha  occ. eigenvalues --   -0.35790  -0.35488  -0.35311  -0.33213  -0.32510
 Alpha  occ. eigenvalues --   -0.32363  -0.32282  -0.32186  -0.31109  -0.25935
 Alpha  occ. eigenvalues --   -0.22497
 Alpha virt. eigenvalues --   -0.06456  -0.00090   0.02332   0.04738   0.05005
 Alpha virt. eigenvalues --    0.06817   0.07651   0.07787   0.08042   0.10083
 Alpha virt. eigenvalues --    0.10443   0.11054   0.11449   0.12483   0.12602

 Mulliken charges:
               1
     1  Mg   0.997579
     2  C   -0.058851
     3  C   -0.103336
     4  C   -0.072619
     5  C   -0.111638
     6  N   -0.370857
     7  C    0.010016
     8  C   -0.068065
     9  C   -0.144435
    10  C    0.052966
    11  C    0.040928
    12  C    0.022788
    13  C   -0.019401
    14  C    0.232683
    15  O   -0.224105
    16  O   -0.411579
    17  N   -0.448163
    18  C    0.195470
    19  C   -0.153949
    20  C   -0.042142
    21  C    0.156773
    22  C    0.066977
    23  C   -0.015290
    24  O   -0.238546
    25  C    0.000017
    26  N   -0.346673
    27  C    0.047850
    28  C   -0.124302
    29  C   -0.023914
    30  C    0.027502
    31  C    0.026882
    32  C   -0.042386
    33  C   -0.043386
    34  N   -0.389389
    35  C    0.150604
    36  C   -0.161686
    37  C   -0.057785
    38  C    0.144534
    39  C    0.067646
    40  C    0.138613
    41  O   -0.211571
    42  C   -0.049525
    43  C    0.262601
    44  O   -0.266093
    45  O   -0.342650
    46  C    0.138195
    47  C    0.233242
    48  C   -0.122924
    49  C   -0.231397
    50  C    0.034382
    51  C    0.010260
    52  C   -0.017962
    53  C    0.012434
    54  C   -0.212908
    55  C    0.030890
    56  C    0.090962
    57  C   -0.120199
    58  C    0.061608
    59  C   -0.170685
    60  C   -0.011486
    61  C    0.039299
    62  C   -0.055805
    63  C   -0.001247
    64  C   -0.268336
    65  C    0.013925
    66  C   -0.008764
    67  H    0.006066
    68  H    0.011352
    69  H   -0.019833
    70  H    0.022395
    71  H    0.029634
    72  H    0.030957
    73  H    0.040565
    74  H    0.044771
    75  H    0.024112
    76  H    0.060329
    77  H    0.057435
    78  H    0.063517
    79  H    0.056912
    80  H    0.061628
    81  H    0.039592
    82  H    0.039106
    83  H    0.066893
    84  H    0.051833
    85  H    0.050663
    86  H    0.024500
    87  H    0.047430
    88  H    0.046898
    89  H    0.047199
    90  H    0.030313
    91  H    0.035229
    92  H    0.044213
    93  H    0.060720
    94  H    0.039823
    95  H    0.021940
    96  H    0.056084
    97  H    0.062755
    98  H    0.069016
    99  H    0.052992
   100  H    0.046572
   101  H    0.020161
   102  H    0.065370
   103  H    0.058964
   104  H    0.030269
   105  H    0.046199
   106  H    0.037259
   107  H    0.038529
   108  H    0.013266
   109  H    0.046078
   110  H    0.037848
   111  H    0.024151
   112  H    0.016851
   113  H    0.009744
   114  H    0.016826
   115  H    0.026255
   116  H    0.024982
   117  H    0.033628
   118  H    0.006828
   119  H    0.011955
   120  H    0.028457
   121  H    0.009068
   122  H    0.023578
   123  H    0.010325
   124  H    0.014970
   125  H    0.028181
   126  H    0.031764
   127  H    0.029881
   128  H    0.012949
   129  H   -0.000764
   130  H    0.016544
   131  H    0.023203
   132  H    0.020836
   133  H    0.007920
   134  H    0.029779
   135  H    0.023676
   136  H    0.036862
   137  H    0.036066
   138  H    0.015923
   139  H    0.048744
   140  H    0.019686
 Sum of Mulliken charges =  -0.00000

 Dipole moment (field-independent basis, Debye):
    X=             -3.2208    Y=              4.6553    Z=             -2.9966  Tot=              6.4051
 Quadrupole moment (field-independent basis, Debye-Ang):
   XX=           -366.5918   YY=           -418.0587   ZZ=           -403.2998
   XY=             11.3013   XZ=              0.7363   YZ=             -2.9546

 Normal termination of Gaussian 16 at Fri Apr 29 12:05:03 2022.
