 Gaussian 16, Revision A.03,
 Gaussian 16:  ES64L-G16RevA.03 25-Dec-2016

 --------------------
 #p ZINDO=(nstates=5)
 --------------------

 ----------------------------
 step_301_chromophore_1 ZINDO
 ----------------------------
 Symbolic Z-matrix:
 Charge =  0 Multiplicity = 1

                         Standard orientation:
 ---------------------------------------------------------------------
 Center     Atomic      Atomic             Coordinates (Angstroms)
 Number     Number       Type             X           Y           Z
 ---------------------------------------------------------------------
      1         12           0        6.013800    0.532506    0.323866
      2          6           0        4.112014   -2.252452   -0.412734
      3          6           0        3.877134    2.555521   -1.521622
      4          6           0        8.240652    2.998551    0.347716
      5          6           0        8.653662   -1.717918    0.771967
      6          7           0        4.208728    0.186702   -0.667955
      7          6           0        3.483465   -0.971110   -0.737731
      8          6           0        2.081695   -0.789210   -1.331336
      9          6           0        2.210575    0.606566   -1.950464
     10          6           0        3.532142    1.123791   -1.373425
     11          6           0        1.938040    0.675238   -3.459498
     12          6           0        0.932432   -0.906038   -0.296579
     13          6           0       -0.532172   -0.780470   -0.736549
     14          6           0       -1.593887   -1.744573   -0.175475
     15          8           0       -1.437800   -2.548426    0.698375
     16          8           0       -2.780493   -1.572712   -0.898959
     17          7           0        5.925106    2.569547   -0.115556
     18          6           0        4.994665    3.191403   -0.971764
     19          6           0        5.280315    4.613195   -1.073952
     20          6           0        6.533393    4.771718   -0.412498
     21          6           0        6.960320    3.376932   -0.052074
     22          6           0        4.356191    5.726954   -1.759743
     23          6           0        7.215428    6.037791   -0.213555
     24          8           0        8.279529    6.024516    0.359053
     25          6           0        6.657924    7.418909   -0.506003
     26          7           0        8.137066    0.589089    0.650151
     27          6           0        8.846448    1.774526    0.572698
     28          6           0       10.348172    1.642724    0.852933
     29          6           0       10.428142    0.059436    1.197480
     30          6           0        9.007018   -0.390891    0.783431
     31          6           0       11.232880    2.124680   -0.364233
     32          6           0       10.846638   -0.222458    2.668748
     33          6           0        9.812726    0.081472    3.848650
     34          7           0        6.332963   -1.552136    0.166949
     35          6           0        7.484657   -2.340221    0.386849
     36          6           0        7.196352   -3.674369    0.385372
     37          6           0        5.832921   -3.726030   -0.013076
     38          6           0        5.404815   -2.387461   -0.092567
     39          6           0        8.054281   -4.769555    0.489190
     40          6           0        4.666837   -4.607574   -0.231163
     41          8           0        4.566508   -5.831730   -0.182845
     42          6           0        3.534537   -3.669390   -0.551378
     43          6           0        2.419416   -3.916455    0.417754
     44          8           0        2.382655   -3.645820    1.629777
     45          8           0        1.507854   -4.787226   -0.180570
     46          6           0        0.614455   -5.350075    0.751134
     47          6           0       -3.893612   -2.517163   -0.554911
     48          6           0       -5.207899   -1.863468   -0.917421
     49          6           0       -6.264764   -2.558590   -1.342426
     50          6           0       -6.320935   -4.096762   -1.177596
     51          6           0       -7.479101   -1.732689   -1.864020
     52          6           0       -8.481098   -1.357268   -0.730277
     53          6           0       -8.418417    0.108586   -0.346694
     54          6           0       -9.695079    0.917011   -0.709279
     55          6           0       -9.899902    1.063259   -2.193509
     56          6           0       -9.873971    2.226395    0.086501
     57          6           0      -11.233527    2.307186    0.712678
     58          6           0      -11.383955    1.979938    2.215773
     59          6           0      -12.830078    2.172951    2.720717
     60          6           0      -12.941198    2.943842    4.102301
     61          6           0      -13.717842    0.874508    2.757533
     62          6           0      -15.016110    0.864741    1.960774
     63          6           0      -14.976863   -0.048421    0.634200
     64          6           0      -14.913644    0.885422   -0.613103
     65          6           0      -16.265542    1.597938   -0.761376
     66          6           0      -14.432941    0.106467   -1.876218
     67          1           0        3.032092    3.042680   -2.011961
     68          1           0        8.952088    3.820534    0.245261
     69          1           0        9.470572   -2.409902    0.983073
     70          1           0        1.916359   -1.561664   -2.082403
     71          1           0        1.334033    1.134386   -1.574747
     72          1           0        1.850149   -0.336937   -3.853451
     73          1           0        2.870009    1.085297   -3.846947
     74          1           0        0.996031    1.186695   -3.654754
     75          1           0        1.179163   -0.112062    0.409170
     76          1           0        1.053184   -1.853856    0.228429
     77          1           0       -0.606021   -0.760153   -1.823990
     78          1           0       -0.838070    0.199296   -0.368989
     79          1           0        5.001618    6.362086   -2.366956
     80          1           0        3.833919    6.336430   -1.021926
     81          1           0        3.552637    5.255167   -2.325514
     82          1           0        5.600626    7.525033   -0.260619
     83          1           0        6.925381    7.674094   -1.531934
     84          1           0        7.104038    8.120337    0.198246
     85          1           0       10.502313    2.264761    1.734493
     86          1           0       11.099621   -0.417779    0.483479
     87          1           0       10.541014    2.427475   -1.150379
     88          1           0       11.937261    1.360528   -0.691854
     89          1           0       11.730844    3.039642   -0.044651
     90          1           0       11.648451    0.505722    2.795509
     91          1           0       11.291755   -1.209995    2.789801
     92          1           0       10.211503    1.003871    4.269886
     93          1           0        9.680497   -0.822484    4.444548
     94          1           0        8.885399    0.361957    3.349096
     95          1           0        8.935046   -4.467089    1.055724
     96          1           0        8.430698   -5.015936   -0.503637
     97          1           0        7.611129   -5.672366    0.908026
     98          1           0        3.098193   -3.898135   -1.524263
     99          1           0       -0.005116   -4.702945    1.371239
    100          1           0        1.026487   -6.123998    1.399148
    101          1           0       -0.226222   -5.814743    0.234892
    102          1           0       -3.800958   -2.707156    0.514762
    103          1           0       -3.753924   -3.418299   -1.151490
    104          1           0       -5.164660   -0.804822   -1.170912
    105          1           0       -5.410843   -4.518519   -0.751131
    106          1           0       -6.541692   -4.564552   -2.136687
    107          1           0       -7.228656   -4.361248   -0.635312
    108          1           0       -8.053655   -2.423898   -2.482662
    109          1           0       -7.018264   -0.927971   -2.435859
    110          1           0       -8.266686   -1.942644    0.163862
    111          1           0       -9.435456   -1.614442   -1.187894
    112          1           0       -7.431860    0.479009   -0.626717
    113          1           0       -8.427429    0.098498    0.743454
    114          1           0      -10.486971    0.260268   -0.348938
    115          1           0       -9.133665    0.461012   -2.681040
    116          1           0       -9.780690    2.095935   -2.521699
    117          1           0      -10.923170    0.771103   -2.431361
    118          1           0       -9.871316    3.061161   -0.615025
    119          1           0       -9.067673    2.472248    0.778911
    120          1           0      -11.893128    1.739689    0.057211
    121          1           0      -11.616201    3.323914    0.805405
    122          1           0      -10.706328    2.547915    2.852297
    123          1           0      -11.204078    0.908108    2.134024
    124          1           0      -13.335095    2.860707    2.043376
    125          1           0      -13.684928    2.541747    4.791337
    126          1           0      -13.240821    3.954613    3.823925
    127          1           0      -12.021526    2.944483    4.687854
    128          1           0      -14.041540    0.547380    3.745331
    129          1           0      -13.225894   -0.030284    2.402312
    130          1           0      -15.181064    1.907376    1.686770
    131          1           0      -15.884631    0.526098    2.525491
    132          1           0      -15.858489   -0.689180    0.608020
    133          1           0      -14.115284   -0.705569    0.511671
    134          1           0      -14.128411    1.639350   -0.575478
    135          1           0      -15.927006    2.622366   -0.917812
    136          1           0      -16.807364    1.632633    0.184823
    137          1           0      -16.826900    1.133401   -1.571919
    138          1           0      -15.314368   -0.380294   -2.293276
    139          1           0      -13.564003   -0.536016   -1.732808
    140          1           0      -14.297543    0.896366   -2.614948
 ---------------------------------------------------------------------

 SCF Done:  E(RZINDO/S) =  -474.540178625     A.U. after   19 cycles

 Excitation energies and oscillator strengths:

 Excited State   1:      Singlet-A      1.2426 eV  997.76 nm  f=0.5634  <S**2>=0.000
     175 ->178         0.18756
     176 ->177         0.66283
 This state for optimization and/or second-order correction.
 Total Energy, E(CIS/TDA) =  -474.494513156
 Copying the excited state density for this state as the 1-particle RhoCI density.

 Excited State   2:      Singlet-A      1.8884 eV  656.55 nm  f=0.0051  <S**2>=0.000
     175 ->177        -0.48520
     176 ->178         0.48703

 Excited State   3:      Singlet-A      2.7743 eV  446.90 nm  f=0.0012  <S**2>=0.000
     168 ->177         0.19807
     168 ->179        -0.24000
     168 ->181        -0.13247
     168 ->186        -0.13368
     169 ->177         0.29848
     169 ->179        -0.35022
     169 ->181        -0.19605
     169 ->186        -0.18961

 Excited State   4:      Singlet-A      2.8420 eV  436.25 nm  f=0.1769  <S**2>=0.000
     175 ->177         0.19562
     176 ->178         0.26792
     176 ->179         0.46172
     176 ->180         0.34733
     176 ->181        -0.14001

 Excited State   5:      Singlet-A      2.9167 eV  425.08 nm  f=0.4692  <S**2>=0.000
     175 ->177        -0.30033
     176 ->178        -0.31143
     176 ->180         0.53113

 The electronic state is 1-A.
 Alpha  occ. eigenvalues --   -1.88020  -1.82001  -1.81099  -1.73126  -1.72597
 Alpha  occ. eigenvalues --   -1.70479  -1.66519  -1.61815  -1.61455  -1.58679
 Alpha  occ. eigenvalues --   -1.55315  -1.51764  -1.49298  -1.48124  -1.45716
 Alpha  occ. eigenvalues --   -1.44153  -1.42316  -1.40915  -1.39815  -1.37737
 Alpha  occ. eigenvalues --   -1.37094  -1.35812  -1.33092  -1.31482  -1.28628
 Alpha  occ. eigenvalues --   -1.27201  -1.24739  -1.21264  -1.20919  -1.18710
 Alpha  occ. eigenvalues --   -1.17795  -1.16239  -1.15919  -1.15248  -1.13489
 Alpha  occ. eigenvalues --   -1.12828  -1.11600  -1.10429  -1.05701  -1.03809
 Alpha  occ. eigenvalues --   -1.02890  -1.01063  -0.99003  -0.98417  -0.96974
 Alpha  occ. eigenvalues --   -0.95466  -0.93914  -0.93133  -0.92633  -0.91623
 Alpha  occ. eigenvalues --   -0.90859  -0.90169  -0.88385  -0.87451  -0.85821
 Alpha  occ. eigenvalues --   -0.85737  -0.83182  -0.82623  -0.81895  -0.80424
 Alpha  occ. eigenvalues --   -0.79756  -0.78835  -0.77224  -0.76004  -0.75659
 Alpha  occ. eigenvalues --   -0.75321  -0.74254  -0.74023  -0.73616  -0.73081
 Alpha  occ. eigenvalues --   -0.72832  -0.72274  -0.71786  -0.71263  -0.70524
 Alpha  occ. eigenvalues --   -0.70090  -0.69665  -0.69213  -0.68535  -0.68400
 Alpha  occ. eigenvalues --   -0.67891  -0.67364  -0.67061  -0.66568  -0.66170
 Alpha  occ. eigenvalues --   -0.64863  -0.64474  -0.64146  -0.63259  -0.63006
 Alpha  occ. eigenvalues --   -0.62629  -0.62328  -0.62219  -0.62132  -0.61906
 Alpha  occ. eigenvalues --   -0.61759  -0.61658  -0.61371  -0.60956  -0.60664
 Alpha  occ. eigenvalues --   -0.59852  -0.59367  -0.58337  -0.58090  -0.57829
 Alpha  occ. eigenvalues --   -0.57575  -0.57063  -0.56412  -0.56325  -0.55987
 Alpha  occ. eigenvalues --   -0.55742  -0.55389  -0.55279  -0.54918  -0.54716
 Alpha  occ. eigenvalues --   -0.54265  -0.53824  -0.53167  -0.53009  -0.52444
 Alpha  occ. eigenvalues --   -0.52375  -0.52300  -0.51756  -0.51581  -0.51306
 Alpha  occ. eigenvalues --   -0.51020  -0.50849  -0.50551  -0.50223  -0.49809
 Alpha  occ. eigenvalues --   -0.49586  -0.49285  -0.49230  -0.49153  -0.48422
 Alpha  occ. eigenvalues --   -0.48023  -0.47974  -0.47452  -0.47447  -0.47176
 Alpha  occ. eigenvalues --   -0.46945  -0.46886  -0.46740  -0.46437  -0.46219
 Alpha  occ. eigenvalues --   -0.45889  -0.45784  -0.45576  -0.45531  -0.45440
 Alpha  occ. eigenvalues --   -0.44747  -0.44445  -0.44380  -0.44071  -0.43953
 Alpha  occ. eigenvalues --   -0.43908  -0.43682  -0.42453  -0.42277  -0.41887
 Alpha  occ. eigenvalues --   -0.41323  -0.41306  -0.40453  -0.38930  -0.38838
 Alpha  occ. eigenvalues --   -0.37686  -0.37008  -0.35115  -0.34761  -0.34211
 Alpha  occ. eigenvalues --   -0.33277  -0.32296  -0.32115  -0.31442  -0.26552
 Alpha  occ. eigenvalues --   -0.21334
 Alpha virt. eigenvalues --   -0.07993  -0.02486  -0.00589   0.00899   0.01240
 Alpha virt. eigenvalues --    0.02492   0.02660   0.03576   0.04801   0.05292
 Alpha virt. eigenvalues --    0.06604   0.06845   0.07766   0.07946   0.08269

 Mulliken charges:
               1
     1  Mg   0.438370
     2  C   -0.038281
     3  C   -0.088089
     4  C   -0.088456
     5  C   -0.071128
     6  N   -0.241902
     7  C    0.089219
     8  C    0.005182
     9  C   -0.002540
    10  C    0.127602
    11  C   -0.054027
    12  C   -0.024540
    13  C    0.007247
    14  C    0.467100
    15  O   -0.491623
    16  O   -0.297515
    17  N   -0.322061
    18  C    0.113952
    19  C    0.004313
    20  C   -0.039795
    21  C    0.187275
    22  C   -0.041424
    23  C    0.325220
    24  O   -0.527564
    25  C   -0.030488
    26  N   -0.274988
    27  C    0.156111
    28  C   -0.005767
    29  C    0.000172
    30  C    0.118551
    31  C   -0.050659
    32  C   -0.034392
    33  C   -0.063123
    34  N   -0.334632
    35  C    0.081297
    36  C    0.046256
    37  C   -0.090873
    38  C    0.138662
    39  C   -0.028780
    40  C    0.338793
    41  O   -0.528171
    42  C    0.065368
    43  C    0.482168
    44  O   -0.520052
    45  O   -0.256252
    46  C    0.076323
    47  C    0.100404
    48  C   -0.099121
    49  C   -0.012631
    50  C   -0.045243
    51  C   -0.028501
    52  C   -0.028702
    53  C   -0.034901
    54  C   -0.005360
    55  C   -0.053760
    56  C   -0.029784
    57  C   -0.040437
    58  C   -0.034268
    59  C   -0.011339
    60  C   -0.063396
    61  C   -0.037914
    62  C   -0.040003
    63  C   -0.040319
    64  C   -0.021659
    65  C   -0.060824
    66  C   -0.068704
    67  H    0.034545
    68  H    0.031690
    69  H    0.009621
    70  H    0.023237
    71  H    0.023786
    72  H    0.019254
    73  H    0.028214
    74  H    0.029642
    75  H    0.022553
    76  H    0.039922
    77  H    0.037319
    78  H    0.039023
    79  H    0.034215
    80  H    0.035085
    81  H    0.025937
    82  H    0.027846
    83  H    0.044663
    84  H    0.035499
    85  H    0.041823
    86  H    0.027088
    87  H    0.026782
    88  H    0.029933
    89  H    0.024223
    90  H    0.009065
    91  H    0.022776
    92  H    0.029740
    93  H    0.037746
    94  H    0.025158
    95  H    0.015059
    96  H    0.031739
    97  H    0.037206
    98  H    0.053948
    99  H    0.048689
   100  H    0.044215
   101  H    0.010631
   102  H    0.058580
   103  H    0.048996
   104  H    0.032222
   105  H    0.036416
   106  H    0.024096
   107  H    0.026840
   108  H    0.013868
   109  H    0.036537
   110  H    0.027304
   111  H    0.020309
   112  H    0.028123
   113  H    0.002812
   114  H    0.015822
   115  H    0.021431
   116  H    0.017651
   117  H    0.020488
   118  H    0.008590
   119  H    0.021259
   120  H    0.025629
   121  H    0.007695
   122  H    0.033222
   123  H    0.019745
   124  H    0.019833
   125  H    0.019142
   126  H    0.017226
   127  H    0.019974
   128  H    0.015508
   129  H    0.013939
   130  H    0.020138
   131  H    0.018176
   132  H    0.020547
   133  H    0.017983
   134  H    0.019749
   135  H    0.016661
   136  H    0.022408
   137  H    0.029819
   138  H    0.015585
   139  H    0.032429
   140  H    0.009780
 Sum of Mulliken charges =  -0.00000

 Dipole moment (field-independent basis, Debye):
    X=             -4.0012    Y=              7.8243    Z=             -7.2847  Tot=             11.4148
 N-N= 4.233506064646D+03 E-N= 0.000000000000D+00  KE=-9.142124649640D+03
 Leave Link  601 at Fri Apr 29 12:17:46 2022, MaxMem=  6710886400 cpu:               0.8 elap:               0.0
 (Enter /sw/apps/gaussian-16.0/g16/l9999.exe)
 1\1\GINC-BP1-COMPUTE197\SP\RZINDO CIS\STO-3G\C55H74Mg1N4O6\OF15641\29-
 Apr-2022\0\\#p ZINDO=(nstates=5)\\step_301_chromophore_1 ZINDO\\0,1\Mg
 ,0,-1.222,17.169,26.589\C,0,-1.711,14.985,29.217\C,0,-2.527,19.796,28.
 449\C,0,-1.509,19.034,23.854\C,0,-1.394,14.333,24.549\N,0,-1.865,17.34
 7,28.568\C,0,-1.849,16.402,29.557\C,0,-2.154,16.96,30.952\C,0,-2.72,18
 .338,30.593\C,0,-2.383,18.477,29.105\C,0,-4.144,18.607,31.099\C,0,-0.9
 25,17.02,31.896\C,0,-1.07,17.524,33.338\C,0,-0.362,16.787,34.49\O,0,0.

 Normal termination of Gaussian 16 at Fri Apr 29 12:17:47 2022.
