 Gaussian 16, Revision A.03,
 Gaussian 16:  ES64L-G16RevA.03 25-Dec-2016

 ------------------------------
 #p blyp/Def2SVP td=(nstates=5)
 ------------------------------

 --------------------------------------------------
 step_401_chromophore_19 TDDFT with blyp functional
 --------------------------------------------------
 Symbolic Z-matrix:
 Charge =  0 Multiplicity = 1

                         Standard orientation:
 ---------------------------------------------------------------------
 Center     Atomic      Atomic             Coordinates (Angstroms)
 Number     Number       Type             X           Y           Z
 ---------------------------------------------------------------------
      1         12           0       -5.945556    0.362513    0.000372
      2          6           0       -3.508786   -2.152855    0.006488
      3          6           0       -3.412713    2.738747    0.176943
      4          6           0       -8.240167    2.746815    0.588777
      5          6           0       -8.282136   -2.089344   -0.334205
      6          7           0       -3.673125    0.280277    0.085739
      7          6           0       -2.873039   -0.862245    0.088472
      8          6           0       -1.401607   -0.618715    0.193624
      9          6           0       -1.455994    0.950088    0.278257
     10          6           0       -2.932945    1.420622    0.215719
     11          6           0       -0.724073    1.606775    1.508917
     12          6           0       -0.590574   -1.233306   -1.007966
     13          6           0        0.824928   -0.637903   -1.352633
     14          6           0        2.013236   -1.630389   -1.388244
     15          8           0        1.905257   -2.717283   -1.948046
     16          8           0        3.176596   -1.266794   -0.744017
     17          7           0       -5.839142    2.439175    0.292476
     18          6           0       -4.764410    3.226994    0.291087
     19          6           0       -5.152465    4.681118    0.386883
     20          6           0       -6.499886    4.714936    0.530701
     21          6           0       -6.948827    3.252828    0.532107
     22          6           0       -4.177157    5.813175    0.221697
     23          6           0       -7.356104    5.946825    0.507749
     24          8           0       -8.509289    5.846212    0.799631
     25          6           0       -6.850320    7.361047    0.289019
     26          7           0       -7.932168    0.354433    0.228736
     27          6           0       -8.687637    1.468221    0.328326
     28          6           0      -10.213546    1.069862    0.164231
     29          6           0      -10.259545   -0.408264   -0.266991
     30          6           0       -8.705045   -0.730595   -0.189791
     31          6           0      -11.037709    1.336767    1.356291
     32          6           0      -10.803864   -0.686395   -1.811967
     33          6           0      -12.281287   -1.072346   -1.798589
     34          7           0       -5.976724   -1.676607   -0.259271
     35          6           0       -6.988185   -2.557795   -0.412861
     36          6           0       -6.565403   -3.861081   -0.614963
     37          6           0       -5.217187   -3.784288   -0.324018
     38          6           0       -4.875258   -2.419025   -0.175613
     39          6           0       -7.390536   -5.144351   -0.960344
     40          6           0       -4.023171   -4.578588   -0.126874
     41          8           0       -3.908782   -5.835718   -0.082599
     42          6           0       -2.826192   -3.526744    0.001571
     43          6           0       -1.975661   -3.793422    1.220358
     44          8           0       -2.054899   -3.200820    2.282884
     45          8           0       -1.059610   -4.748375    0.912945
     46          6           0       -0.021804   -5.191454    1.863889
     47          6           0        4.285191   -2.260213   -0.854854
     48          6           0        5.700686   -1.635680   -0.755693
     49          6           0        6.305412   -1.093666    0.257039
     50          6           0        5.668106   -1.072896    1.654118
     51          6           0        7.642890   -0.380491    0.135708
     52          6           0        7.485352    1.019086   -0.605593
     53          6           0        8.152632    1.080431   -1.985363
     54          6           0        9.390741    1.905061   -2.134635
     55          6           0        9.035982    3.293205   -2.658926
     56          6           0       10.492794    1.176046   -2.939665
     57          6           0       11.922281    1.711806   -2.650123
     58          6           0       12.979363    0.623610   -2.402550
     59          6           0       13.807342    0.905472   -1.120489
     60          6           0       15.274087    0.251332   -1.285588
     61          6           0       13.107690    0.299621    0.116106
     62          6           0       12.953683    1.302753    1.285351
     63          6           0       13.114453    0.660133    2.698683
     64          6           0       11.864122    0.024447    3.228463
     65          6           0       11.101570    0.956461    4.176221
     66          6           0       12.015831   -1.373791    3.771474
     67          1           0       -2.480228    3.304396    0.223120
     68          1           0       -8.965715    3.498950    0.905570
     69          1           0       -9.052383   -2.829998   -0.556376
     70          1           0       -1.033571   -1.080694    1.109356
     71          1           0       -0.966662    1.323073   -0.621226
     72          1           0       -0.029833    0.991106    2.080361
     73          1           0       -1.379100    2.142251    2.196231
     74          1           0       -0.124695    2.446040    1.156705
     75          1           0       -1.163239   -0.860911   -1.857907
     76          1           0       -0.587781   -2.320471   -1.085643
     77          1           0        1.144568    0.127719   -0.645442
     78          1           0        0.892671   -0.288598   -2.382678
     79          1           0       -4.167696    6.283757   -0.761134
     80          1           0       -3.156904    5.504768    0.449917
     81          1           0       -4.343159    6.516399    1.038563
     82          1           0       -6.433415    7.483560   -0.710494
     83          1           0       -6.094354    7.296139    1.071609
     84          1           0       -7.591749    8.131649    0.500352
     85          1           0      -10.615578    1.740944   -0.594908
     86          1           0      -10.777567   -1.054891    0.440924
     87          1           0      -10.416324    1.730840    2.161091
     88          1           0      -11.622624    0.465282    1.650627
     89          1           0      -11.677513    2.163705    1.048170
     90          1           0      -10.242465   -1.551007   -2.164216
     91          1           0      -10.638048    0.315888   -2.207961
     92          1           0      -12.319582   -2.042791   -2.293392
     93          1           0      -12.840489   -0.297018   -2.322434
     94          1           0      -12.716309   -1.226769   -0.811826
     95          1           0       -7.669083   -5.650799   -0.036227
     96          1           0       -6.735920   -5.857531   -1.460440
     97          1           0       -8.273480   -4.895738   -1.547837
     98          1           0       -2.317579   -3.716147   -0.942978
     99          1           0       -0.214149   -6.263099    1.919473
    100          1           0       -0.158397   -4.828495    2.882882
    101          1           0        0.997232   -4.917767    1.589621
    102          1           0        4.253009   -2.724946   -1.840102
    103          1           0        4.199832   -3.136948   -0.212172
    104          1           0        6.258830   -1.584820   -1.690131
    105          1           0        4.617755   -1.358535    1.605842
    106          1           0        5.738273   -0.029323    1.963506
    107          1           0        6.314117   -1.699796    2.268711
    108          1           0        8.253294   -1.100975   -0.409796
    109          1           0        7.968798   -0.252014    1.168612
    110          1           0        7.824528    1.841533    0.024480
    111          1           0        6.428146    1.279043   -0.653611
    112          1           0        7.482954    1.567525   -2.694550
    113          1           0        8.073017    0.120651   -2.496066
    114          1           0        9.666674    1.995736   -1.083881
    115          1           0        9.847256    3.950631   -2.345492
    116          1           0        8.090914    3.603915   -2.213833
    117          1           0        8.893859    3.265243   -3.738885
    118          1           0       10.217531    1.271302   -3.990591
    119          1           0       10.403548    0.094933   -2.834092
    120          1           0       11.887809    2.233059   -1.692798
    121          1           0       12.137794    2.404878   -3.463739
    122          1           0       13.645531    0.641802   -3.265424
    123          1           0       12.668147   -0.419548   -2.464026
    124          1           0       13.938128    1.973738   -0.952450
    125          1           0       15.666821   -0.349430   -0.465305
    126          1           0       15.950041    1.062066   -1.558964
    127          1           0       15.243790   -0.515808   -2.058701
    128          1           0       13.554796   -0.642584    0.431222
    129          1           0       12.061431    0.055764   -0.069306
    130          1           0       11.940701    1.656752    1.091518
    131          1           0       13.619230    2.165922    1.269661
    132          1           0       13.566101    1.375080    3.385675
    133          1           0       13.789969   -0.173853    2.508583
    134          1           0       11.150215    0.004838    2.404533
    135          1           0       11.783244    1.685289    4.613538
    136          1           0       10.557277    0.440101    4.966896
    137          1           0       10.477990    1.650292    3.612441
    138          1           0       12.944743   -1.943123    3.823126
    139          1           0       11.371627   -1.999179    3.153084
    140          1           0       11.613152   -1.432489    4.782039
 ---------------------------------------------------------------------

 SCF Done:  E(RB-LYP) =  -3007.33896318     A.U. after   21 cycles

 Excitation energies and oscillator strengths:

 Excited State   1:      Singlet-A      1.8262 eV  678.90 nm  f=0.3079  <S**2>=0.000
     245 -> 248       -0.20898
     246 -> 247        0.68297
     246 <- 247       -0.14338
 This state for optimization and/or second-order correction.
 Total Energy, E(TD-HF/TD-DFT) =  -3007.27185008
 Copying the excited state density for this state as the 1-particle RhoCI density.

 Excited State   2:      Singlet-A      1.9643 eV  631.19 nm  f=0.0118  <S**2>=0.000
     244 -> 247        0.59708
     245 -> 247        0.35080
     246 -> 248        0.10691

 Excited State   3:      Singlet-A      2.0344 eV  609.45 nm  f=0.0103  <S**2>=0.000
     243 -> 247        0.57297
     244 -> 247        0.26776
     245 -> 247       -0.28696
     246 -> 248       -0.12072

 Excited State   4:      Singlet-A      2.0821 eV  595.49 nm  f=0.0318  <S**2>=0.000
     243 -> 247        0.40198
     244 -> 247       -0.25671
     245 -> 247        0.44618
     246 -> 248        0.25315

 Excited State   5:      Singlet-A      2.6699 eV  464.37 nm  f=0.0010  <S**2>=0.000
     241 -> 247        0.70529

 The electronic state is 1-A.
 Alpha  occ. eigenvalues --  -46.26427 -18.82428 -18.81419 -18.76276 -18.76157
 Alpha  occ. eigenvalues --  -18.75383 -18.75314 -14.03237 -14.02961 -14.01838
 Alpha  occ. eigenvalues --  -14.00070 -10.03997 -10.03596  -9.99843  -9.99366
 Alpha  occ. eigenvalues --   -9.97879  -9.97517  -9.96595  -9.96558  -9.96476
 Alpha  occ. eigenvalues --   -9.96428  -9.96420  -9.96258  -9.94562  -9.94522
 Alpha  occ. eigenvalues --   -9.94282  -9.94067  -9.93945  -9.93918  -9.93830
 Alpha  occ. eigenvalues --   -9.93811  -9.93685  -9.93369  -9.93308  -9.93088
 Alpha  occ. eigenvalues --   -9.93023  -9.93003  -9.92965  -9.92776  -9.92661
 Alpha  occ. eigenvalues --   -9.92587  -9.92437  -9.92431  -9.92405  -9.92392
 Alpha  occ. eigenvalues --   -9.92357  -9.92211  -9.92211  -9.91888  -9.91741
 Alpha  occ. eigenvalues --   -9.91592  -9.91508  -9.91391  -9.91252  -9.91192
 Alpha  occ. eigenvalues --   -9.91082  -9.91071  -9.91061  -9.91036  -9.91011
 Alpha  occ. eigenvalues --   -9.90889  -9.90735  -9.90700  -9.90650  -9.90635
 Alpha  occ. eigenvalues --   -9.90522  -2.91225  -1.71653  -1.71077  -1.70968
 Alpha  occ. eigenvalues --   -0.97243  -0.96960  -0.93394  -0.89340  -0.89032
 Alpha  occ. eigenvalues --   -0.88777  -0.87266  -0.86054  -0.85029  -0.84587
 Alpha  occ. eigenvalues --   -0.74865  -0.74124  -0.73255  -0.72777  -0.72300
 Alpha  occ. eigenvalues --   -0.72037  -0.71732  -0.71325  -0.71189  -0.70287
 Alpha  occ. eigenvalues --   -0.69851  -0.68560  -0.67920  -0.67686  -0.67339
 Alpha  occ. eigenvalues --   -0.66424  -0.65754  -0.65397  -0.64952  -0.64558
 Alpha  occ. eigenvalues --   -0.63891  -0.62913  -0.62322  -0.61713  -0.60588
 Alpha  occ. eigenvalues --   -0.60569  -0.60338  -0.59561  -0.59493  -0.59391
 Alpha  occ. eigenvalues --   -0.58575  -0.57757  -0.56716  -0.56035  -0.54518
 Alpha  occ. eigenvalues --   -0.53899  -0.53520  -0.53053  -0.52801  -0.51385
 Alpha  occ. eigenvalues --   -0.51247  -0.51076  -0.50913  -0.50388  -0.50137
 Alpha  occ. eigenvalues --   -0.49809  -0.49346  -0.49007  -0.48187  -0.46580
 Alpha  occ. eigenvalues --   -0.45751  -0.45623  -0.45175  -0.44611  -0.44287
 Alpha  occ. eigenvalues --   -0.43806  -0.43676  -0.42849  -0.42373  -0.41971
 Alpha  occ. eigenvalues --   -0.41721  -0.41506  -0.41472  -0.41249  -0.41174
 Alpha  occ. eigenvalues --   -0.40938  -0.40775  -0.40685  -0.40419  -0.39977
 Alpha  occ. eigenvalues --   -0.39842  -0.39647  -0.39517  -0.39511  -0.39349
 Alpha  occ. eigenvalues --   -0.38964  -0.38874  -0.38377  -0.38339  -0.38180
 Alpha  occ. eigenvalues --   -0.38137  -0.38015  -0.37608  -0.37507  -0.37415
 Alpha  occ. eigenvalues --   -0.37184  -0.36911  -0.36699  -0.36486  -0.36363
 Alpha  occ. eigenvalues --   -0.36093  -0.35840  -0.35704  -0.35496  -0.35450
 Alpha  occ. eigenvalues --   -0.35385  -0.35073  -0.35031  -0.34809  -0.34523
 Alpha  occ. eigenvalues --   -0.34458  -0.34395  -0.34089  -0.34039  -0.33850
 Alpha  occ. eigenvalues --   -0.33682  -0.33668  -0.33438  -0.33127  -0.33088
 Alpha  occ. eigenvalues --   -0.32950  -0.32750  -0.32640  -0.32473  -0.32352
 Alpha  occ. eigenvalues --   -0.32182  -0.32033  -0.31798  -0.31671  -0.31377
 Alpha  occ. eigenvalues --   -0.31292  -0.31136  -0.30908  -0.30869  -0.30700
 Alpha  occ. eigenvalues --   -0.30642  -0.30622  -0.30315  -0.30087  -0.29905
 Alpha  occ. eigenvalues --   -0.29495  -0.29411  -0.29149  -0.28686  -0.28483
 Alpha  occ. eigenvalues --   -0.28353  -0.28310  -0.27978  -0.27891  -0.27537
 Alpha  occ. eigenvalues --   -0.27243  -0.27088  -0.26793  -0.26706  -0.26660
 Alpha  occ. eigenvalues --   -0.26059  -0.25885  -0.25800  -0.25387  -0.25202
 Alpha  occ. eigenvalues --   -0.24913  -0.24525  -0.24500  -0.23726  -0.23710
 Alpha  occ. eigenvalues --   -0.23686  -0.22558  -0.21953  -0.21625  -0.21411
 Alpha  occ. eigenvalues --   -0.20834  -0.20544  -0.18466  -0.18195  -0.17080
 Alpha  occ. eigenvalues --   -0.15406
 Alpha virt. eigenvalues --   -0.11024  -0.06932  -0.05954  -0.04306  -0.02620
 Alpha virt. eigenvalues --   -0.01978  -0.01937  -0.01481  -0.01189   0.00446
 Alpha virt. eigenvalues --    0.00558   0.01263   0.01726   0.02514   0.02921

 Mulliken charges:
               1
     1  Mg   0.710488
     2  C    0.037493
     3  C   -0.046853
     4  C   -0.074047
     5  C   -0.092731
     6  N   -0.221586
     7  C   -0.103639
     8  C    0.068068
     9  C    0.011429
    10  C   -0.027266
    11  C    0.102093
    12  C    0.109376
    13  C    0.130750
    14  C    0.041763
    15  O   -0.213381
    16  O   -0.265766
    17  N   -0.255032
    18  C    0.154603
    19  C   -0.156076
    20  C    0.064035
    21  C    0.078576
    22  C    0.184994
    23  C   -0.121374
    24  O   -0.143054
    25  C    0.161280
    26  N   -0.281669
    27  C    0.094530
    28  C    0.003507
    29  C   -0.020515
    30  C    0.049590
    31  C    0.150356
    32  C    0.075103
    33  C    0.073692
    34  N   -0.231251
    35  C    0.133783
    36  C   -0.195512
    37  C    0.112526
    38  C    0.057255
    39  C    0.179678
    40  C   -0.053044
    41  O   -0.169921
    42  C   -0.004022
    43  C    0.134192
    44  O   -0.177536
    45  O   -0.264553
    46  C    0.204251
    47  C    0.321858
    48  C   -0.118265
    49  C   -0.195384
    50  C    0.155314
    51  C    0.160347
    52  C    0.096035
    53  C    0.100854
    54  C   -0.070329
    55  C    0.129364
    56  C    0.087264
    57  C    0.097168
    58  C    0.114192
    59  C   -0.078141
    60  C    0.091114
    61  C    0.109328
    62  C    0.019211
    63  C    0.131114
    64  C   -0.087087
    65  C    0.105873
    66  C    0.112614
    67  H   -0.072098
    68  H   -0.044254
    69  H   -0.068892
    70  H   -0.003631
    71  H   -0.015665
    72  H    0.000861
    73  H   -0.003932
    74  H   -0.023267
    75  H   -0.032824
    76  H    0.018632
    77  H   -0.005569
    78  H    0.012094
    79  H    0.017751
    80  H   -0.023465
    81  H   -0.012042
    82  H    0.007304
    83  H    0.001406
    84  H   -0.002335
    85  H   -0.026562
    86  H   -0.017133
    87  H   -0.006411
    88  H   -0.007989
    89  H   -0.015783
    90  H   -0.009199
    91  H   -0.008779
    92  H   -0.008556
    93  H   -0.001429
    94  H   -0.008961
    95  H    0.006391
    96  H    0.006987
    97  H   -0.004467
    98  H    0.029829
    99  H    0.026552
   100  H    0.011119
   101  H    0.027120
   102  H   -0.012088
   103  H    0.000909
   104  H   -0.046269
   105  H   -0.000166
   106  H   -0.010018
   107  H    0.006896
   108  H   -0.004712
   109  H   -0.039519
   110  H   -0.039324
   111  H   -0.025847
   112  H   -0.069082
   113  H   -0.051185
   114  H   -0.043509
   115  H   -0.012298
   116  H   -0.017526
   117  H   -0.014007
   118  H   -0.046124
   119  H   -0.039898
   120  H   -0.018367
   121  H   -0.017716
   122  H   -0.050882
   123  H   -0.032785
   124  H   -0.027683
   125  H   -0.018754
   126  H   -0.006375
   127  H   -0.023199
   128  H   -0.034029
   129  H   -0.034817
   130  H   -0.025758
   131  H   -0.028812
   132  H   -0.031843
   133  H   -0.041737
   134  H   -0.031383
   135  H   -0.035310
   136  H   -0.010479
   137  H   -0.028512
   138  H   -0.014268
   139  H   -0.023492
   140  H   -0.029859
 Sum of Mulliken charges =  -0.00000

 Dipole moment (field-independent basis, Debye):
    X=              2.6421    Y=              4.4501    Z=             -1.3539  Tot=              5.3495
 Quadrupole moment (field-independent basis, Debye-Ang):
   XX=           -378.2177   YY=           -421.1897   ZZ=           -409.2447
   XY=              2.1699   XZ=             16.8215   YZ=             -8.8435

 Normal termination of Gaussian 16 at Fri Apr 29 17:54:39 2022.
