 Gaussian 16, Revision A.03,
 Gaussian 16:  ES64L-G16RevA.03 25-Dec-2016

 -----------------------------------
 #p cam-b3lyp/Def2SVP td=(nstates=5)
 -----------------------------------

 -------------------------------------------------------
 step_401_chromophore_19 TDDFT with cam-b3lyp functional
 -------------------------------------------------------
 Symbolic Z-matrix:
 Charge =  0 Multiplicity = 1

                         Standard orientation:
 ---------------------------------------------------------------------
 Center     Atomic      Atomic             Coordinates (Angstroms)
 Number     Number       Type             X           Y           Z
 ---------------------------------------------------------------------
      1         12           0       -5.945556    0.362513    0.000372
      2          6           0       -3.508786   -2.152855    0.006488
      3          6           0       -3.412713    2.738747    0.176943
      4          6           0       -8.240167    2.746815    0.588777
      5          6           0       -8.282136   -2.089344   -0.334205
      6          7           0       -3.673125    0.280277    0.085739
      7          6           0       -2.873039   -0.862245    0.088472
      8          6           0       -1.401607   -0.618715    0.193624
      9          6           0       -1.455994    0.950088    0.278257
     10          6           0       -2.932945    1.420622    0.215719
     11          6           0       -0.724073    1.606775    1.508917
     12          6           0       -0.590574   -1.233306   -1.007966
     13          6           0        0.824928   -0.637903   -1.352633
     14          6           0        2.013236   -1.630389   -1.388244
     15          8           0        1.905257   -2.717283   -1.948046
     16          8           0        3.176596   -1.266794   -0.744017
     17          7           0       -5.839142    2.439175    0.292476
     18          6           0       -4.764410    3.226994    0.291087
     19          6           0       -5.152465    4.681118    0.386883
     20          6           0       -6.499886    4.714936    0.530701
     21          6           0       -6.948827    3.252828    0.532107
     22          6           0       -4.177157    5.813175    0.221697
     23          6           0       -7.356104    5.946825    0.507749
     24          8           0       -8.509289    5.846212    0.799631
     25          6           0       -6.850320    7.361047    0.289019
     26          7           0       -7.932168    0.354433    0.228736
     27          6           0       -8.687637    1.468221    0.328326
     28          6           0      -10.213546    1.069862    0.164231
     29          6           0      -10.259545   -0.408264   -0.266991
     30          6           0       -8.705045   -0.730595   -0.189791
     31          6           0      -11.037709    1.336767    1.356291
     32          6           0      -10.803864   -0.686395   -1.811967
     33          6           0      -12.281287   -1.072346   -1.798589
     34          7           0       -5.976724   -1.676607   -0.259271
     35          6           0       -6.988185   -2.557795   -0.412861
     36          6           0       -6.565403   -3.861081   -0.614963
     37          6           0       -5.217187   -3.784288   -0.324018
     38          6           0       -4.875258   -2.419025   -0.175613
     39          6           0       -7.390536   -5.144351   -0.960344
     40          6           0       -4.023171   -4.578588   -0.126874
     41          8           0       -3.908782   -5.835718   -0.082599
     42          6           0       -2.826192   -3.526744    0.001571
     43          6           0       -1.975661   -3.793422    1.220358
     44          8           0       -2.054899   -3.200820    2.282884
     45          8           0       -1.059610   -4.748375    0.912945
     46          6           0       -0.021804   -5.191454    1.863889
     47          6           0        4.285191   -2.260213   -0.854854
     48          6           0        5.700686   -1.635680   -0.755693
     49          6           0        6.305412   -1.093666    0.257039
     50          6           0        5.668106   -1.072896    1.654118
     51          6           0        7.642890   -0.380491    0.135708
     52          6           0        7.485352    1.019086   -0.605593
     53          6           0        8.152632    1.080431   -1.985363
     54          6           0        9.390741    1.905061   -2.134635
     55          6           0        9.035982    3.293205   -2.658926
     56          6           0       10.492794    1.176046   -2.939665
     57          6           0       11.922281    1.711806   -2.650123
     58          6           0       12.979363    0.623610   -2.402550
     59          6           0       13.807342    0.905472   -1.120489
     60          6           0       15.274087    0.251332   -1.285588
     61          6           0       13.107690    0.299621    0.116106
     62          6           0       12.953683    1.302753    1.285351
     63          6           0       13.114453    0.660133    2.698683
     64          6           0       11.864122    0.024447    3.228463
     65          6           0       11.101570    0.956461    4.176221
     66          6           0       12.015831   -1.373791    3.771474
     67          1           0       -2.480228    3.304396    0.223120
     68          1           0       -8.965715    3.498950    0.905570
     69          1           0       -9.052383   -2.829998   -0.556376
     70          1           0       -1.033571   -1.080694    1.109356
     71          1           0       -0.966662    1.323073   -0.621226
     72          1           0       -0.029833    0.991106    2.080361
     73          1           0       -1.379100    2.142251    2.196231
     74          1           0       -0.124695    2.446040    1.156705
     75          1           0       -1.163239   -0.860911   -1.857907
     76          1           0       -0.587781   -2.320471   -1.085643
     77          1           0        1.144568    0.127719   -0.645442
     78          1           0        0.892671   -0.288598   -2.382678
     79          1           0       -4.167696    6.283757   -0.761134
     80          1           0       -3.156904    5.504768    0.449917
     81          1           0       -4.343159    6.516399    1.038563
     82          1           0       -6.433415    7.483560   -0.710494
     83          1           0       -6.094354    7.296139    1.071609
     84          1           0       -7.591749    8.131649    0.500352
     85          1           0      -10.615578    1.740944   -0.594908
     86          1           0      -10.777567   -1.054891    0.440924
     87          1           0      -10.416324    1.730840    2.161091
     88          1           0      -11.622624    0.465282    1.650627
     89          1           0      -11.677513    2.163705    1.048170
     90          1           0      -10.242465   -1.551007   -2.164216
     91          1           0      -10.638048    0.315888   -2.207961
     92          1           0      -12.319582   -2.042791   -2.293392
     93          1           0      -12.840489   -0.297018   -2.322434
     94          1           0      -12.716309   -1.226769   -0.811826
     95          1           0       -7.669083   -5.650799   -0.036227
     96          1           0       -6.735920   -5.857531   -1.460440
     97          1           0       -8.273480   -4.895738   -1.547837
     98          1           0       -2.317579   -3.716147   -0.942978
     99          1           0       -0.214149   -6.263099    1.919473
    100          1           0       -0.158397   -4.828495    2.882882
    101          1           0        0.997232   -4.917767    1.589621
    102          1           0        4.253009   -2.724946   -1.840102
    103          1           0        4.199832   -3.136948   -0.212172
    104          1           0        6.258830   -1.584820   -1.690131
    105          1           0        4.617755   -1.358535    1.605842
    106          1           0        5.738273   -0.029323    1.963506
    107          1           0        6.314117   -1.699796    2.268711
    108          1           0        8.253294   -1.100975   -0.409796
    109          1           0        7.968798   -0.252014    1.168612
    110          1           0        7.824528    1.841533    0.024480
    111          1           0        6.428146    1.279043   -0.653611
    112          1           0        7.482954    1.567525   -2.694550
    113          1           0        8.073017    0.120651   -2.496066
    114          1           0        9.666674    1.995736   -1.083881
    115          1           0        9.847256    3.950631   -2.345492
    116          1           0        8.090914    3.603915   -2.213833
    117          1           0        8.893859    3.265243   -3.738885
    118          1           0       10.217531    1.271302   -3.990591
    119          1           0       10.403548    0.094933   -2.834092
    120          1           0       11.887809    2.233059   -1.692798
    121          1           0       12.137794    2.404878   -3.463739
    122          1           0       13.645531    0.641802   -3.265424
    123          1           0       12.668147   -0.419548   -2.464026
    124          1           0       13.938128    1.973738   -0.952450
    125          1           0       15.666821   -0.349430   -0.465305
    126          1           0       15.950041    1.062066   -1.558964
    127          1           0       15.243790   -0.515808   -2.058701
    128          1           0       13.554796   -0.642584    0.431222
    129          1           0       12.061431    0.055764   -0.069306
    130          1           0       11.940701    1.656752    1.091518
    131          1           0       13.619230    2.165922    1.269661
    132          1           0       13.566101    1.375080    3.385675
    133          1           0       13.789969   -0.173853    2.508583
    134          1           0       11.150215    0.004838    2.404533
    135          1           0       11.783244    1.685289    4.613538
    136          1           0       10.557277    0.440101    4.966896
    137          1           0       10.477990    1.650292    3.612441
    138          1           0       12.944743   -1.943123    3.823126
    139          1           0       11.371627   -1.999179    3.153084
    140          1           0       11.613152   -1.432489    4.782039
 ---------------------------------------------------------------------

 SCF Done:  E(RCAM-B3LYP) =  -3007.13366989     A.U. after   18 cycles

 Excitation energies and oscillator strengths:

 Excited State   1:      Singlet-A      1.7537 eV  706.98 nm  f=0.3857  <S**2>=0.000
     245 -> 248       -0.18818
     246 -> 247        0.68298
     245 <- 248       -0.10732
 This state for optimization and/or second-order correction.
 Total Energy, E(TD-HF/TD-DFT) =  -3007.06922246
 Copying the excited state density for this state as the 1-particle RhoCI density.

 Excited State   2:      Singlet-A      2.2772 eV  544.47 nm  f=0.0563  <S**2>=0.000
     245 -> 247        0.60762
     246 -> 248        0.35277

 Excited State   3:      Singlet-A      3.4229 eV  362.22 nm  f=0.5095  <S**2>=0.000
     243 -> 247       -0.31606
     243 -> 249       -0.19810
     243 -> 250       -0.11510
     245 -> 247       -0.27968
     246 -> 248        0.49498

 Excited State   4:      Singlet-A      3.4751 eV  356.77 nm  f=0.2534  <S**2>=0.000
     243 -> 247        0.44213
     243 -> 249        0.28210
     243 -> 250        0.17168
     244 -> 247       -0.14385
     245 -> 247       -0.19332
     246 -> 248        0.33233

 Excited State   5:      Singlet-A      3.7011 eV  335.00 nm  f=0.1267  <S**2>=0.000
     242 -> 247       -0.16749
     244 -> 247        0.62826
     245 -> 248        0.10953
     246 -> 248        0.11939

 The electronic state is 1-A.
 Alpha  occ. eigenvalues --  -46.87903 -19.25339 -19.24254 -19.19239 -19.19155
 Alpha  occ. eigenvalues --  -19.18889 -19.18156 -14.42135 -14.41760 -14.40590
 Alpha  occ. eigenvalues --  -14.38266 -10.39310 -10.38995 -10.35186 -10.34567
 Alpha  occ. eigenvalues --  -10.32063 -10.31454 -10.31412 -10.31273 -10.31123
 Alpha  occ. eigenvalues --  -10.30940 -10.30915 -10.30650 -10.28969 -10.28612
 Alpha  occ. eigenvalues --  -10.28594 -10.28251 -10.28073 -10.27893 -10.27817
 Alpha  occ. eigenvalues --  -10.27772 -10.27731 -10.27605 -10.27586 -10.27426
 Alpha  occ. eigenvalues --  -10.27226 -10.26891 -10.26803 -10.26723 -10.26690
 Alpha  occ. eigenvalues --  -10.26487 -10.26387 -10.26219 -10.26196 -10.26156
 Alpha  occ. eigenvalues --  -10.26135 -10.26114 -10.26081 -10.25837 -10.25269
 Alpha  occ. eigenvalues --  -10.25244 -10.25121 -10.25036 -10.24886 -10.24880
 Alpha  occ. eigenvalues --  -10.24772 -10.24749 -10.24721 -10.24713 -10.24655
 Alpha  occ. eigenvalues --  -10.24539 -10.24348 -10.24329 -10.24237 -10.24213
 Alpha  occ. eigenvalues --  -10.24182  -3.16616  -1.91517  -1.91054  -1.90951
 Alpha  occ. eigenvalues --   -1.15688  -1.15414  -1.12170  -1.07194  -1.06856
 Alpha  occ. eigenvalues --   -1.06764  -1.04718  -1.03952  -1.02646  -1.02158
 Alpha  occ. eigenvalues --   -0.91824  -0.91010  -0.90062  -0.89521  -0.89071
 Alpha  occ. eigenvalues --   -0.88941  -0.88546  -0.87949  -0.87917  -0.86778
 Alpha  occ. eigenvalues --   -0.86172  -0.84866  -0.84148  -0.83798  -0.83465
 Alpha  occ. eigenvalues --   -0.82469  -0.82176  -0.81290  -0.80738  -0.80463
 Alpha  occ. eigenvalues --   -0.79637  -0.78817  -0.77861  -0.77148  -0.75957
 Alpha  occ. eigenvalues --   -0.75892  -0.75652  -0.74828  -0.74757  -0.74655
 Alpha  occ. eigenvalues --   -0.73649  -0.72761  -0.71636  -0.70855  -0.69148
 Alpha  occ. eigenvalues --   -0.68670  -0.67973  -0.67629  -0.67222  -0.65558
 Alpha  occ. eigenvalues --   -0.65397  -0.65131  -0.64909  -0.64424  -0.64006
 Alpha  occ. eigenvalues --   -0.63773  -0.62993  -0.62906  -0.61762  -0.60368
 Alpha  occ. eigenvalues --   -0.59299  -0.59167  -0.58485  -0.57943  -0.57784
 Alpha  occ. eigenvalues --   -0.57219  -0.56961  -0.56193  -0.55493  -0.55252
 Alpha  occ. eigenvalues --   -0.54779  -0.54398  -0.54323  -0.54251  -0.54021
 Alpha  occ. eigenvalues --   -0.53754  -0.53601  -0.53398  -0.53021  -0.52878
 Alpha  occ. eigenvalues --   -0.52780  -0.52480  -0.52390  -0.52141  -0.51911
 Alpha  occ. eigenvalues --   -0.51656  -0.51318  -0.51220  -0.50778  -0.50674
 Alpha  occ. eigenvalues --   -0.50315  -0.50286  -0.50249  -0.50018  -0.49890
 Alpha  occ. eigenvalues --   -0.49318  -0.48974  -0.48933  -0.48834  -0.48630
 Alpha  occ. eigenvalues --   -0.48490  -0.48346  -0.48059  -0.47774  -0.47520
 Alpha  occ. eigenvalues --   -0.47322  -0.47297  -0.46841  -0.46771  -0.46375
 Alpha  occ. eigenvalues --   -0.46264  -0.46168  -0.46103  -0.45685  -0.45597
 Alpha  occ. eigenvalues --   -0.45518  -0.45359  -0.45293  -0.44818  -0.44758
 Alpha  occ. eigenvalues --   -0.44738  -0.44598  -0.44291  -0.44141  -0.43927
 Alpha  occ. eigenvalues --   -0.43879  -0.43771  -0.43462  -0.43331  -0.42956
 Alpha  occ. eigenvalues --   -0.42779  -0.42700  -0.42252  -0.42171  -0.42065
 Alpha  occ. eigenvalues --   -0.41967  -0.41945  -0.41694  -0.41563  -0.41138
 Alpha  occ. eigenvalues --   -0.40783  -0.40626  -0.40567  -0.40391  -0.39658
 Alpha  occ. eigenvalues --   -0.39625  -0.39237  -0.38974  -0.38875  -0.38372
 Alpha  occ. eigenvalues --   -0.38114  -0.38029  -0.37938  -0.37498  -0.37413
 Alpha  occ. eigenvalues --   -0.36865  -0.36617  -0.36528  -0.36213  -0.36062
 Alpha  occ. eigenvalues --   -0.35957  -0.35805  -0.34970  -0.34680  -0.34119
 Alpha  occ. eigenvalues --   -0.33926  -0.33679  -0.33073  -0.32364  -0.31048
 Alpha  occ. eigenvalues --   -0.31032  -0.30655  -0.29877  -0.29670  -0.23911
 Alpha  occ. eigenvalues --   -0.20606
 Alpha virt. eigenvalues --   -0.07904  -0.01873   0.00637   0.02641   0.03682
 Alpha virt. eigenvalues --    0.05133   0.05395   0.05779   0.05835   0.06467
 Alpha virt. eigenvalues --    0.06714   0.08303   0.08587   0.08963   0.09252

 Mulliken charges:
               1
     1  Mg   0.846542
     2  C    0.015592
     3  C   -0.067542
     4  C   -0.092184
     5  C   -0.091484
     6  N   -0.292508
     7  C   -0.056314
     8  C    0.021185
     9  C   -0.050538
    10  C    0.002909
    11  C    0.040587
    12  C    0.055769
    13  C    0.063522
    14  C    0.127402
    15  O   -0.255062
    16  O   -0.331502
    17  N   -0.341984
    18  C    0.169687
    19  C   -0.160795
    20  C    0.000743
    21  C    0.104806
    22  C    0.124871
    23  C   -0.045879
    24  O   -0.182242
    25  C    0.085439
    26  N   -0.354464
    27  C    0.110125
    28  C   -0.047002
    29  C   -0.068860
    30  C    0.059177
    31  C    0.085695
    32  C    0.025929
    33  C    0.011949
    34  N   -0.323233
    35  C    0.126471
    36  C   -0.189790
    37  C    0.028364
    38  C    0.086246
    39  C    0.134476
    40  C    0.050254
    41  O   -0.211454
    42  C   -0.082848
    43  C    0.220096
    44  O   -0.216392
    45  O   -0.328919
    46  C    0.170171
    47  C    0.288612
    48  C   -0.143664
    49  C   -0.209250
    50  C    0.094040
    51  C    0.100489
    52  C    0.039186
    53  C    0.041077
    54  C   -0.123872
    55  C    0.071087
    56  C    0.036546
    57  C    0.045950
    58  C    0.056174
    59  C   -0.138284
    60  C    0.035470
    61  C    0.062544
    62  C   -0.028440
    63  C    0.072161
    64  C   -0.147843
    65  C    0.050060
    66  C    0.049424
    67  H   -0.038149
    68  H   -0.002392
    69  H   -0.033867
    70  H    0.030864
    71  H    0.018055
    72  H    0.026814
    73  H    0.023000
    74  H    0.000721
    75  H   -0.000459
    76  H    0.047606
    77  H    0.025797
    78  H    0.042791
    79  H    0.045799
    80  H    0.007679
    81  H    0.017253
    82  H    0.035283
    83  H    0.023207
    84  H    0.034042
    85  H    0.007656
    86  H    0.015652
    87  H    0.019968
    88  H    0.017240
    89  H    0.009199
    90  H    0.018656
    91  H    0.016866
    92  H    0.014442
    93  H    0.021198
    94  H    0.013178
    95  H    0.032066
    96  H    0.033172
    97  H    0.017121
    98  H    0.070004
    99  H    0.048776
   100  H    0.036698
   101  H    0.045856
   102  H    0.021790
   103  H    0.027942
   104  H   -0.015862
   105  H    0.025306
   106  H    0.012361
   107  H    0.030173
   108  H    0.023707
   109  H   -0.009018
   110  H   -0.010566
   111  H    0.005531
   112  H   -0.035199
   113  H   -0.021669
   114  H   -0.014543
   115  H    0.011730
   116  H    0.006576
   117  H    0.009169
   118  H   -0.017482
   119  H   -0.010687
   120  H    0.005263
   121  H    0.010480
   122  H   -0.018204
   123  H   -0.003628
   124  H    0.004555
   125  H    0.005184
   126  H    0.016903
   127  H    0.000466
   128  H   -0.007258
   129  H   -0.009460
   130  H   -0.002772
   131  H   -0.000506
   132  H   -0.002156
   133  H   -0.012531
   134  H   -0.001464
   135  H   -0.010996
   136  H    0.013798
   137  H   -0.004672
   138  H    0.011384
   139  H    0.001002
   140  H   -0.004919
 Sum of Mulliken charges =  -0.00000

 Dipole moment (field-independent basis, Debye):
    X=              2.6886    Y=              5.6687    Z=             -1.3086  Tot=              6.4090
 Quadrupole moment (field-independent basis, Debye-Ang):
   XX=           -377.7235   YY=           -416.2455   ZZ=           -409.2159
   XY=             -4.6211   XZ=             17.0464   YZ=             -8.8569

 Normal termination of Gaussian 16 at Fri Apr 29 16:40:40 2022.
