 Gaussian 16, Revision A.03,
 Gaussian 16:  ES64L-G16RevA.03 25-Dec-2016

 ---------------------------------
 #p PBE1PBE/Def2SVP td=(nstates=5)
 ---------------------------------

 -----------------------------------------------------
 step_401_chromophore_19 TDDFT with PBE1PBE functional
 -----------------------------------------------------
 Symbolic Z-matrix:
 Charge =  0 Multiplicity = 1

                         Standard orientation:
 ---------------------------------------------------------------------
 Center     Atomic      Atomic             Coordinates (Angstroms)
 Number     Number       Type             X           Y           Z
 ---------------------------------------------------------------------
      1         12           0       -5.945556    0.362513    0.000372
      2          6           0       -3.508786   -2.152855    0.006488
      3          6           0       -3.412713    2.738747    0.176943
      4          6           0       -8.240167    2.746815    0.588777
      5          6           0       -8.282136   -2.089344   -0.334205
      6          7           0       -3.673125    0.280277    0.085739
      7          6           0       -2.873039   -0.862245    0.088472
      8          6           0       -1.401607   -0.618715    0.193624
      9          6           0       -1.455994    0.950088    0.278257
     10          6           0       -2.932945    1.420622    0.215719
     11          6           0       -0.724073    1.606775    1.508917
     12          6           0       -0.590574   -1.233306   -1.007966
     13          6           0        0.824928   -0.637903   -1.352633
     14          6           0        2.013236   -1.630389   -1.388244
     15          8           0        1.905257   -2.717283   -1.948046
     16          8           0        3.176596   -1.266794   -0.744017
     17          7           0       -5.839142    2.439175    0.292476
     18          6           0       -4.764410    3.226994    0.291087
     19          6           0       -5.152465    4.681118    0.386883
     20          6           0       -6.499886    4.714936    0.530701
     21          6           0       -6.948827    3.252828    0.532107
     22          6           0       -4.177157    5.813175    0.221697
     23          6           0       -7.356104    5.946825    0.507749
     24          8           0       -8.509289    5.846212    0.799631
     25          6           0       -6.850320    7.361047    0.289019
     26          7           0       -7.932168    0.354433    0.228736
     27          6           0       -8.687637    1.468221    0.328326
     28          6           0      -10.213546    1.069862    0.164231
     29          6           0      -10.259545   -0.408264   -0.266991
     30          6           0       -8.705045   -0.730595   -0.189791
     31          6           0      -11.037709    1.336767    1.356291
     32          6           0      -10.803864   -0.686395   -1.811967
     33          6           0      -12.281287   -1.072346   -1.798589
     34          7           0       -5.976724   -1.676607   -0.259271
     35          6           0       -6.988185   -2.557795   -0.412861
     36          6           0       -6.565403   -3.861081   -0.614963
     37          6           0       -5.217187   -3.784288   -0.324018
     38          6           0       -4.875258   -2.419025   -0.175613
     39          6           0       -7.390536   -5.144351   -0.960344
     40          6           0       -4.023171   -4.578588   -0.126874
     41          8           0       -3.908782   -5.835718   -0.082599
     42          6           0       -2.826192   -3.526744    0.001571
     43          6           0       -1.975661   -3.793422    1.220358
     44          8           0       -2.054899   -3.200820    2.282884
     45          8           0       -1.059610   -4.748375    0.912945
     46          6           0       -0.021804   -5.191454    1.863889
     47          6           0        4.285191   -2.260213   -0.854854
     48          6           0        5.700686   -1.635680   -0.755693
     49          6           0        6.305412   -1.093666    0.257039
     50          6           0        5.668106   -1.072896    1.654118
     51          6           0        7.642890   -0.380491    0.135708
     52          6           0        7.485352    1.019086   -0.605593
     53          6           0        8.152632    1.080431   -1.985363
     54          6           0        9.390741    1.905061   -2.134635
     55          6           0        9.035982    3.293205   -2.658926
     56          6           0       10.492794    1.176046   -2.939665
     57          6           0       11.922281    1.711806   -2.650123
     58          6           0       12.979363    0.623610   -2.402550
     59          6           0       13.807342    0.905472   -1.120489
     60          6           0       15.274087    0.251332   -1.285588
     61          6           0       13.107690    0.299621    0.116106
     62          6           0       12.953683    1.302753    1.285351
     63          6           0       13.114453    0.660133    2.698683
     64          6           0       11.864122    0.024447    3.228463
     65          6           0       11.101570    0.956461    4.176221
     66          6           0       12.015831   -1.373791    3.771474
     67          1           0       -2.480228    3.304396    0.223120
     68          1           0       -8.965715    3.498950    0.905570
     69          1           0       -9.052383   -2.829998   -0.556376
     70          1           0       -1.033571   -1.080694    1.109356
     71          1           0       -0.966662    1.323073   -0.621226
     72          1           0       -0.029833    0.991106    2.080361
     73          1           0       -1.379100    2.142251    2.196231
     74          1           0       -0.124695    2.446040    1.156705
     75          1           0       -1.163239   -0.860911   -1.857907
     76          1           0       -0.587781   -2.320471   -1.085643
     77          1           0        1.144568    0.127719   -0.645442
     78          1           0        0.892671   -0.288598   -2.382678
     79          1           0       -4.167696    6.283757   -0.761134
     80          1           0       -3.156904    5.504768    0.449917
     81          1           0       -4.343159    6.516399    1.038563
     82          1           0       -6.433415    7.483560   -0.710494
     83          1           0       -6.094354    7.296139    1.071609
     84          1           0       -7.591749    8.131649    0.500352
     85          1           0      -10.615578    1.740944   -0.594908
     86          1           0      -10.777567   -1.054891    0.440924
     87          1           0      -10.416324    1.730840    2.161091
     88          1           0      -11.622624    0.465282    1.650627
     89          1           0      -11.677513    2.163705    1.048170
     90          1           0      -10.242465   -1.551007   -2.164216
     91          1           0      -10.638048    0.315888   -2.207961
     92          1           0      -12.319582   -2.042791   -2.293392
     93          1           0      -12.840489   -0.297018   -2.322434
     94          1           0      -12.716309   -1.226769   -0.811826
     95          1           0       -7.669083   -5.650799   -0.036227
     96          1           0       -6.735920   -5.857531   -1.460440
     97          1           0       -8.273480   -4.895738   -1.547837
     98          1           0       -2.317579   -3.716147   -0.942978
     99          1           0       -0.214149   -6.263099    1.919473
    100          1           0       -0.158397   -4.828495    2.882882
    101          1           0        0.997232   -4.917767    1.589621
    102          1           0        4.253009   -2.724946   -1.840102
    103          1           0        4.199832   -3.136948   -0.212172
    104          1           0        6.258830   -1.584820   -1.690131
    105          1           0        4.617755   -1.358535    1.605842
    106          1           0        5.738273   -0.029323    1.963506
    107          1           0        6.314117   -1.699796    2.268711
    108          1           0        8.253294   -1.100975   -0.409796
    109          1           0        7.968798   -0.252014    1.168612
    110          1           0        7.824528    1.841533    0.024480
    111          1           0        6.428146    1.279043   -0.653611
    112          1           0        7.482954    1.567525   -2.694550
    113          1           0        8.073017    0.120651   -2.496066
    114          1           0        9.666674    1.995736   -1.083881
    115          1           0        9.847256    3.950631   -2.345492
    116          1           0        8.090914    3.603915   -2.213833
    117          1           0        8.893859    3.265243   -3.738885
    118          1           0       10.217531    1.271302   -3.990591
    119          1           0       10.403548    0.094933   -2.834092
    120          1           0       11.887809    2.233059   -1.692798
    121          1           0       12.137794    2.404878   -3.463739
    122          1           0       13.645531    0.641802   -3.265424
    123          1           0       12.668147   -0.419548   -2.464026
    124          1           0       13.938128    1.973738   -0.952450
    125          1           0       15.666821   -0.349430   -0.465305
    126          1           0       15.950041    1.062066   -1.558964
    127          1           0       15.243790   -0.515808   -2.058701
    128          1           0       13.554796   -0.642584    0.431222
    129          1           0       12.061431    0.055764   -0.069306
    130          1           0       11.940701    1.656752    1.091518
    131          1           0       13.619230    2.165922    1.269661
    132          1           0       13.566101    1.375080    3.385675
    133          1           0       13.789969   -0.173853    2.508583
    134          1           0       11.150215    0.004838    2.404533
    135          1           0       11.783244    1.685289    4.613538
    136          1           0       10.557277    0.440101    4.966896
    137          1           0       10.477990    1.650292    3.612441
    138          1           0       12.944743   -1.943123    3.823126
    139          1           0       11.371627   -1.999179    3.153084
    140          1           0       11.613152   -1.432489    4.782039
 ---------------------------------------------------------------------

 SCF Done:  E(RPBE1PBE) =  -3005.32065973     A.U. after   15 cycles

 Excitation energies and oscillator strengths:

 Excited State   1:      Singlet-A      1.8860 eV  657.40 nm  f=0.3752  <S**2>=0.000
     245 -> 248       -0.18551
     246 -> 247        0.68899
     246 <- 247       -0.10154
 This state for optimization and/or second-order correction.
 Total Energy, E(TD-HF/TD-DFT) =  -3005.25135136
 Copying the excited state density for this state as the 1-particle RhoCI density.

 Excited State   2:      Singlet-A      2.2756 eV  544.85 nm  f=0.0644  <S**2>=0.000
     245 -> 247        0.62665
     246 -> 248        0.31979

 Excited State   3:      Singlet-A      2.9819 eV  415.79 nm  f=0.0038  <S**2>=0.000
     244 -> 247        0.66048
     244 -> 249        0.20256

 Excited State   4:      Singlet-A      3.2211 eV  384.92 nm  f=0.0011  <S**2>=0.000
     242 -> 247        0.52670
     242 -> 249       -0.13856
     242 -> 250       -0.10596
     243 -> 247        0.41297

 Excited State   5:      Singlet-A      3.2332 eV  383.48 nm  f=0.3003  <S**2>=0.000
     242 -> 247        0.28105
     243 -> 247       -0.31087
     245 -> 247       -0.22449
     246 -> 248        0.49622

 The electronic state is 1-A.
 Alpha  occ. eigenvalues --  -46.91323 -19.26038 -19.24960 -19.19562 -19.19441
 Alpha  occ. eigenvalues --  -19.18899 -19.18643 -14.41652 -14.41356 -14.40112
 Alpha  occ. eigenvalues --  -14.38022 -10.36397 -10.36031 -10.32151 -10.31920
 Alpha  occ. eigenvalues --  -10.29498 -10.28844 -10.28826 -10.28760 -10.28708
 Alpha  occ. eigenvalues --  -10.28707 -10.28689 -10.28520 -10.26400 -10.26353
 Alpha  occ. eigenvalues --  -10.26137 -10.26112 -10.25826 -10.25769 -10.25683
 Alpha  occ. eigenvalues --  -10.25570 -10.25457 -10.25367 -10.25250 -10.24889
 Alpha  occ. eigenvalues --  -10.24838 -10.24723 -10.24650 -10.24454 -10.24157
 Alpha  occ. eigenvalues --  -10.23980 -10.23928 -10.23900 -10.23843 -10.23725
 Alpha  occ. eigenvalues --  -10.23723 -10.23613 -10.23610 -10.23237 -10.22936
 Alpha  occ. eigenvalues --  -10.22759 -10.22745 -10.22569 -10.22460 -10.22317
 Alpha  occ. eigenvalues --  -10.22314 -10.22281 -10.22269 -10.22199 -10.22166
 Alpha  occ. eigenvalues --  -10.22088 -10.22084 -10.21946 -10.21876 -10.21629
 Alpha  occ. eigenvalues --  -10.21562  -3.13612  -1.86456  -1.85971  -1.85870
 Alpha  occ. eigenvalues --   -1.10516  -1.10229  -1.06751  -1.02068  -1.01751
 Alpha  occ. eigenvalues --   -1.01677  -0.99619  -0.98462  -0.97251  -0.96782
 Alpha  occ. eigenvalues --   -0.86302  -0.85154  -0.84169  -0.83668  -0.83290
 Alpha  occ. eigenvalues --   -0.83084  -0.82796  -0.82243  -0.82037  -0.81164
 Alpha  occ. eigenvalues --   -0.80660  -0.79117  -0.78330  -0.78087  -0.77808
 Alpha  occ. eigenvalues --   -0.76655  -0.76187  -0.75550  -0.75039  -0.74678
 Alpha  occ. eigenvalues --   -0.73816  -0.73000  -0.72209  -0.71546  -0.70147
 Alpha  occ. eigenvalues --   -0.70049  -0.69982  -0.69132  -0.68961  -0.68813
 Alpha  occ. eigenvalues --   -0.67970  -0.67254  -0.65989  -0.65286  -0.63394
 Alpha  occ. eigenvalues --   -0.63058  -0.62371  -0.62071  -0.61459  -0.59954
 Alpha  occ. eigenvalues --   -0.59750  -0.59665  -0.59341  -0.58608  -0.58544
 Alpha  occ. eigenvalues --   -0.57951  -0.57596  -0.57070  -0.56417  -0.54792
 Alpha  occ. eigenvalues --   -0.53894  -0.53798  -0.53156  -0.52361  -0.52298
 Alpha  occ. eigenvalues --   -0.51763  -0.51423  -0.50741  -0.49938  -0.49742
 Alpha  occ. eigenvalues --   -0.49329  -0.48917  -0.48875  -0.48585  -0.48488
 Alpha  occ. eigenvalues --   -0.48186  -0.48152  -0.47860  -0.47608  -0.47437
 Alpha  occ. eigenvalues --   -0.47295  -0.47024  -0.46908  -0.46733  -0.46414
 Alpha  occ. eigenvalues --   -0.46267  -0.45910  -0.45662  -0.45397  -0.45251
 Alpha  occ. eigenvalues --   -0.44926  -0.44800  -0.44773  -0.44667  -0.44526
 Alpha  occ. eigenvalues --   -0.43879  -0.43604  -0.43523  -0.43419  -0.43161
 Alpha  occ. eigenvalues --   -0.43075  -0.42898  -0.42698  -0.42426  -0.42215
 Alpha  occ. eigenvalues --   -0.41971  -0.41924  -0.41506  -0.41398  -0.41141
 Alpha  occ. eigenvalues --   -0.41006  -0.40815  -0.40776  -0.40473  -0.40356
 Alpha  occ. eigenvalues --   -0.40248  -0.40187  -0.40086  -0.39605  -0.39547
 Alpha  occ. eigenvalues --   -0.39413  -0.39295  -0.39014  -0.38914  -0.38691
 Alpha  occ. eigenvalues --   -0.38558  -0.38507  -0.38276  -0.38090  -0.37788
 Alpha  occ. eigenvalues --   -0.37590  -0.37423  -0.37056  -0.37037  -0.36911
 Alpha  occ. eigenvalues --   -0.36837  -0.36665  -0.36558  -0.36399  -0.36069
 Alpha  occ. eigenvalues --   -0.35627  -0.35442  -0.35338  -0.35227  -0.34527
 Alpha  occ. eigenvalues --   -0.34439  -0.34038  -0.33956  -0.33694  -0.33148
 Alpha  occ. eigenvalues --   -0.33103  -0.33051  -0.32748  -0.32561  -0.32235
 Alpha  occ. eigenvalues --   -0.31779  -0.31555  -0.31417  -0.31346  -0.31021
 Alpha  occ. eigenvalues --   -0.30970  -0.30622  -0.29889  -0.29886  -0.29038
 Alpha  occ. eigenvalues --   -0.28936  -0.28518  -0.28507  -0.27771  -0.26373
 Alpha  occ. eigenvalues --   -0.26314  -0.25583  -0.25443  -0.24953  -0.20804
 Alpha  occ. eigenvalues --   -0.18284
 Alpha virt. eigenvalues --   -0.10509  -0.05345  -0.03638  -0.01713   0.00588
 Alpha virt. eigenvalues --    0.00932   0.01008   0.01186   0.01468   0.03187
 Alpha virt. eigenvalues --    0.03215   0.04232   0.04662   0.05461   0.05888

 Mulliken charges:
               1
     1  Mg   1.002072
     2  C    0.013045
     3  C   -0.058882
     4  C   -0.082219
     5  C   -0.076428
     6  N   -0.395637
     7  C    0.023319
     8  C   -0.046653
     9  C   -0.134790
    10  C    0.047557
    11  C   -0.016440
    12  C    0.004475
    13  C   -0.015327
    14  C    0.196442
    15  O   -0.284537
    16  O   -0.361654
    17  N   -0.456281
    18  C    0.188340
    19  C   -0.186298
    20  C   -0.050007
    21  C    0.129318
    22  C    0.065950
    23  C    0.008826
    24  O   -0.218791
    25  C    0.008376
    26  N   -0.460610
    27  C    0.137207
    28  C   -0.118220
    29  C   -0.138885
    30  C    0.094140
    31  C    0.028466
    32  C   -0.038164
    33  C   -0.056855
    34  N   -0.457571
    35  C    0.129815
    36  C   -0.188176
    37  C   -0.030530
    38  C    0.133523
    39  C    0.080318
    40  C    0.148489
    41  O   -0.253513
    42  C   -0.189693
    43  C    0.308504
    44  O   -0.252428
    45  O   -0.362586
    46  C    0.117815
    47  C    0.241355
    48  C   -0.149027
    49  C   -0.250697
    50  C    0.026134
    51  C    0.033898
    52  C   -0.023750
    53  C   -0.007752
    54  C   -0.217768
    55  C    0.007838
    56  C   -0.010789
    57  C   -0.020281
    58  C    0.004719
    59  C   -0.231558
    60  C   -0.022314
    61  C    0.017130
    62  C   -0.092651
    63  C    0.012245
    64  C   -0.242903
    65  C   -0.007069
    66  C   -0.009561
    67  H   -0.003984
    68  H    0.028968
    69  H   -0.002451
    70  H    0.069447
    71  H    0.056197
    72  H    0.053047
    73  H    0.050807
    74  H    0.027745
    75  H    0.033955
    76  H    0.080268
    77  H    0.058525
    78  H    0.074664
    79  H    0.071645
    80  H    0.034786
    81  H    0.044433
    82  H    0.061937
    83  H    0.050950
    84  H    0.060934
    85  H    0.044711
    86  H    0.051164
    87  H    0.048313
    88  H    0.043676
    89  H    0.036533
    90  H    0.051538
    91  H    0.050387
    92  H    0.041982
    93  H    0.049112
    94  H    0.040015
    95  H    0.060764
    96  H    0.061053
    97  H    0.043663
    98  H    0.106003
    99  H    0.070218
   100  H    0.057314
   101  H    0.066521
   102  H    0.048685
   103  H    0.054420
   104  H    0.015373
   105  H    0.053398
   106  H    0.041415
   107  H    0.058636
   108  H    0.055326
   109  H    0.024364
   110  H    0.020509
   111  H    0.037931
   112  H   -0.000077
   113  H    0.009338
   114  H    0.027204
   115  H    0.039996
   116  H    0.035521
   117  H    0.036573
   118  H    0.015545
   119  H    0.020675
   120  H    0.040192
   121  H    0.042120
   122  H    0.016319
   123  H    0.026846
   124  H    0.040612
   125  H    0.031777
   126  H    0.044560
   127  H    0.027491
   128  H    0.023048
   129  H    0.024236
   130  H    0.031706
   131  H    0.031095
   132  H    0.029063
   133  H    0.022756
   134  H    0.038763
   135  H    0.016650
   136  H    0.040165
   137  H    0.022819
   138  H    0.037354
   139  H    0.028454
   140  H    0.022278
 Sum of Mulliken charges =  -0.00000

 Dipole moment (field-independent basis, Debye):
    X=              2.6600    Y=              5.1748    Z=             -1.4234  Tot=              5.9900
 Quadrupole moment (field-independent basis, Debye-Ang):
   XX=           -371.8897   YY=           -414.0430   ZZ=           -406.8426
   XY=             -0.9441   XZ=             17.5815   YZ=             -8.7335

 Normal termination of Gaussian 16 at Fri Apr 29 17:05:49 2022.
