 Gaussian 16, Revision A.03,
 Gaussian 16:  ES64L-G16RevA.03 25-Dec-2016

 --------------------------------
 #p wB97XD/Def2SVP td=(nstates=5)
 --------------------------------

 ----------------------------------------------------
 step_401_chromophore_19 TDDFT with wB97XD functional
 ----------------------------------------------------
 Symbolic Z-matrix:
 Charge =  0 Multiplicity = 1

                         Standard orientation:
 ---------------------------------------------------------------------
 Center     Atomic      Atomic             Coordinates (Angstroms)
 Number     Number       Type             X           Y           Z
 ---------------------------------------------------------------------
      1         12           0       -5.945556    0.362513    0.000372
      2          6           0       -3.508786   -2.152855    0.006488
      3          6           0       -3.412713    2.738747    0.176943
      4          6           0       -8.240167    2.746815    0.588777
      5          6           0       -8.282136   -2.089344   -0.334205
      6          7           0       -3.673125    0.280277    0.085739
      7          6           0       -2.873039   -0.862245    0.088472
      8          6           0       -1.401607   -0.618715    0.193624
      9          6           0       -1.455994    0.950088    0.278257
     10          6           0       -2.932945    1.420622    0.215719
     11          6           0       -0.724073    1.606775    1.508917
     12          6           0       -0.590574   -1.233306   -1.007966
     13          6           0        0.824928   -0.637903   -1.352633
     14          6           0        2.013236   -1.630389   -1.388244
     15          8           0        1.905257   -2.717283   -1.948046
     16          8           0        3.176596   -1.266794   -0.744017
     17          7           0       -5.839142    2.439175    0.292476
     18          6           0       -4.764410    3.226994    0.291087
     19          6           0       -5.152465    4.681118    0.386883
     20          6           0       -6.499886    4.714936    0.530701
     21          6           0       -6.948827    3.252828    0.532107
     22          6           0       -4.177157    5.813175    0.221697
     23          6           0       -7.356104    5.946825    0.507749
     24          8           0       -8.509289    5.846212    0.799631
     25          6           0       -6.850320    7.361047    0.289019
     26          7           0       -7.932168    0.354433    0.228736
     27          6           0       -8.687637    1.468221    0.328326
     28          6           0      -10.213546    1.069862    0.164231
     29          6           0      -10.259545   -0.408264   -0.266991
     30          6           0       -8.705045   -0.730595   -0.189791
     31          6           0      -11.037709    1.336767    1.356291
     32          6           0      -10.803864   -0.686395   -1.811967
     33          6           0      -12.281287   -1.072346   -1.798589
     34          7           0       -5.976724   -1.676607   -0.259271
     35          6           0       -6.988185   -2.557795   -0.412861
     36          6           0       -6.565403   -3.861081   -0.614963
     37          6           0       -5.217187   -3.784288   -0.324018
     38          6           0       -4.875258   -2.419025   -0.175613
     39          6           0       -7.390536   -5.144351   -0.960344
     40          6           0       -4.023171   -4.578588   -0.126874
     41          8           0       -3.908782   -5.835718   -0.082599
     42          6           0       -2.826192   -3.526744    0.001571
     43          6           0       -1.975661   -3.793422    1.220358
     44          8           0       -2.054899   -3.200820    2.282884
     45          8           0       -1.059610   -4.748375    0.912945
     46          6           0       -0.021804   -5.191454    1.863889
     47          6           0        4.285191   -2.260213   -0.854854
     48          6           0        5.700686   -1.635680   -0.755693
     49          6           0        6.305412   -1.093666    0.257039
     50          6           0        5.668106   -1.072896    1.654118
     51          6           0        7.642890   -0.380491    0.135708
     52          6           0        7.485352    1.019086   -0.605593
     53          6           0        8.152632    1.080431   -1.985363
     54          6           0        9.390741    1.905061   -2.134635
     55          6           0        9.035982    3.293205   -2.658926
     56          6           0       10.492794    1.176046   -2.939665
     57          6           0       11.922281    1.711806   -2.650123
     58          6           0       12.979363    0.623610   -2.402550
     59          6           0       13.807342    0.905472   -1.120489
     60          6           0       15.274087    0.251332   -1.285588
     61          6           0       13.107690    0.299621    0.116106
     62          6           0       12.953683    1.302753    1.285351
     63          6           0       13.114453    0.660133    2.698683
     64          6           0       11.864122    0.024447    3.228463
     65          6           0       11.101570    0.956461    4.176221
     66          6           0       12.015831   -1.373791    3.771474
     67          1           0       -2.480228    3.304396    0.223120
     68          1           0       -8.965715    3.498950    0.905570
     69          1           0       -9.052383   -2.829998   -0.556376
     70          1           0       -1.033571   -1.080694    1.109356
     71          1           0       -0.966662    1.323073   -0.621226
     72          1           0       -0.029833    0.991106    2.080361
     73          1           0       -1.379100    2.142251    2.196231
     74          1           0       -0.124695    2.446040    1.156705
     75          1           0       -1.163239   -0.860911   -1.857907
     76          1           0       -0.587781   -2.320471   -1.085643
     77          1           0        1.144568    0.127719   -0.645442
     78          1           0        0.892671   -0.288598   -2.382678
     79          1           0       -4.167696    6.283757   -0.761134
     80          1           0       -3.156904    5.504768    0.449917
     81          1           0       -4.343159    6.516399    1.038563
     82          1           0       -6.433415    7.483560   -0.710494
     83          1           0       -6.094354    7.296139    1.071609
     84          1           0       -7.591749    8.131649    0.500352
     85          1           0      -10.615578    1.740944   -0.594908
     86          1           0      -10.777567   -1.054891    0.440924
     87          1           0      -10.416324    1.730840    2.161091
     88          1           0      -11.622624    0.465282    1.650627
     89          1           0      -11.677513    2.163705    1.048170
     90          1           0      -10.242465   -1.551007   -2.164216
     91          1           0      -10.638048    0.315888   -2.207961
     92          1           0      -12.319582   -2.042791   -2.293392
     93          1           0      -12.840489   -0.297018   -2.322434
     94          1           0      -12.716309   -1.226769   -0.811826
     95          1           0       -7.669083   -5.650799   -0.036227
     96          1           0       -6.735920   -5.857531   -1.460440
     97          1           0       -8.273480   -4.895738   -1.547837
     98          1           0       -2.317579   -3.716147   -0.942978
     99          1           0       -0.214149   -6.263099    1.919473
    100          1           0       -0.158397   -4.828495    2.882882
    101          1           0        0.997232   -4.917767    1.589621
    102          1           0        4.253009   -2.724946   -1.840102
    103          1           0        4.199832   -3.136948   -0.212172
    104          1           0        6.258830   -1.584820   -1.690131
    105          1           0        4.617755   -1.358535    1.605842
    106          1           0        5.738273   -0.029323    1.963506
    107          1           0        6.314117   -1.699796    2.268711
    108          1           0        8.253294   -1.100975   -0.409796
    109          1           0        7.968798   -0.252014    1.168612
    110          1           0        7.824528    1.841533    0.024480
    111          1           0        6.428146    1.279043   -0.653611
    112          1           0        7.482954    1.567525   -2.694550
    113          1           0        8.073017    0.120651   -2.496066
    114          1           0        9.666674    1.995736   -1.083881
    115          1           0        9.847256    3.950631   -2.345492
    116          1           0        8.090914    3.603915   -2.213833
    117          1           0        8.893859    3.265243   -3.738885
    118          1           0       10.217531    1.271302   -3.990591
    119          1           0       10.403548    0.094933   -2.834092
    120          1           0       11.887809    2.233059   -1.692798
    121          1           0       12.137794    2.404878   -3.463739
    122          1           0       13.645531    0.641802   -3.265424
    123          1           0       12.668147   -0.419548   -2.464026
    124          1           0       13.938128    1.973738   -0.952450
    125          1           0       15.666821   -0.349430   -0.465305
    126          1           0       15.950041    1.062066   -1.558964
    127          1           0       15.243790   -0.515808   -2.058701
    128          1           0       13.554796   -0.642584    0.431222
    129          1           0       12.061431    0.055764   -0.069306
    130          1           0       11.940701    1.656752    1.091518
    131          1           0       13.619230    2.165922    1.269661
    132          1           0       13.566101    1.375080    3.385675
    133          1           0       13.789969   -0.173853    2.508583
    134          1           0       11.150215    0.004838    2.404533
    135          1           0       11.783244    1.685289    4.613538
    136          1           0       10.557277    0.440101    4.966896
    137          1           0       10.477990    1.650292    3.612441
    138          1           0       12.944743   -1.943123    3.823126
    139          1           0       11.371627   -1.999179    3.153084
    140          1           0       11.613152   -1.432489    4.782039
 ---------------------------------------------------------------------

 SCF Done:  E(RwB97XD) =  -3007.83008718     A.U. after   19 cycles

 Excitation energies and oscillator strengths:

 Excited State   1:      Singlet-A      1.7059 eV  726.80 nm  f=0.3840  <S**2>=0.000
     245 -> 248       -0.19186
     246 -> 247        0.68110
     245 <- 248       -0.11558
 This state for optimization and/or second-order correction.
 Total Energy, E(TD-HF/TD-DFT) =  -3007.76739702
 Copying the excited state density for this state as the 1-particle RhoCI density.

 Excited State   2:      Singlet-A      2.2256 eV  557.07 nm  f=0.0552  <S**2>=0.000
     245 -> 247        0.60668
     246 -> 248        0.35298

 Excited State   3:      Singlet-A      3.4460 eV  359.79 nm  f=0.6588  <S**2>=0.000
     243 -> 247       -0.24184
     243 -> 249       -0.13646
     245 -> 247       -0.31360
     246 -> 248        0.55345
     245 <- 247        0.10524

 Excited State   4:      Singlet-A      3.5091 eV  353.32 nm  f=0.1198  <S**2>=0.000
     243 -> 247        0.30755
     243 -> 249        0.23588
     243 -> 250        0.15539
     244 -> 247        0.38891
     244 -> 249        0.24632
     244 -> 250        0.14551
     245 -> 247       -0.12839
     246 -> 248        0.22234

 Excited State   5:      Singlet-A      3.7305 eV  332.36 nm  f=0.1206  <S**2>=0.000
     242 -> 247        0.23957
     242 -> 249       -0.10998
     243 -> 247        0.42538
     244 -> 247       -0.41313
     245 -> 248        0.12370
     246 -> 248        0.10593

 The electronic state is 1-A.
 Alpha  occ. eigenvalues --  -46.94261 -19.30578 -19.29462 -19.24184 -19.24071
 Alpha  occ. eigenvalues --  -19.23937 -19.23198 -14.46756 -14.46354 -14.45244
 Alpha  occ. eigenvalues --  -14.42843 -10.43124 -10.42811 -10.39172 -10.38582
 Alpha  occ. eigenvalues --  -10.35991 -10.35553 -10.35433 -10.35208 -10.35162
 Alpha  occ. eigenvalues --  -10.35021 -10.34927 -10.34664 -10.33181 -10.32689
 Alpha  occ. eigenvalues --  -10.32530 -10.32314 -10.32108 -10.31972 -10.31844
 Alpha  occ. eigenvalues --  -10.31768 -10.31676 -10.31641 -10.31582 -10.31539
 Alpha  occ. eigenvalues --  -10.31324 -10.30918 -10.30864 -10.30664 -10.30600
 Alpha  occ. eigenvalues --  -10.30449 -10.30324 -10.30245 -10.30195 -10.30157
 Alpha  occ. eigenvalues --  -10.30065 -10.30048 -10.29991 -10.29662 -10.29209
 Alpha  occ. eigenvalues --  -10.29076 -10.29038 -10.28955 -10.28805 -10.28732
 Alpha  occ. eigenvalues --  -10.28684 -10.28647 -10.28623 -10.28604 -10.28495
 Alpha  occ. eigenvalues --  -10.28452 -10.28280 -10.28234 -10.28201 -10.28051
 Alpha  occ. eigenvalues --  -10.27980  -3.20388  -1.93984  -1.93497  -1.93400
 Alpha  occ. eigenvalues --   -1.17864  -1.17562  -1.14423  -1.09360  -1.09060
 Alpha  occ. eigenvalues --   -1.08953  -1.06749  -1.06044  -1.04656  -1.04189
 Alpha  occ. eigenvalues --   -0.93775  -0.92796  -0.91823  -0.91306  -0.91017
 Alpha  occ. eigenvalues --   -0.90847  -0.90420  -0.89933  -0.89688  -0.88707
 Alpha  occ. eigenvalues --   -0.88106  -0.86752  -0.85978  -0.85654  -0.85398
 Alpha  occ. eigenvalues --   -0.84321  -0.84122  -0.83200  -0.82661  -0.82355
 Alpha  occ. eigenvalues --   -0.81493  -0.80797  -0.79759  -0.79070  -0.77755
 Alpha  occ. eigenvalues --   -0.77730  -0.77574  -0.76707  -0.76635  -0.76475
 Alpha  occ. eigenvalues --   -0.75564  -0.74755  -0.73574  -0.72833  -0.71035
 Alpha  occ. eigenvalues --   -0.70683  -0.69888  -0.69653  -0.69079  -0.67478
 Alpha  occ. eigenvalues --   -0.67327  -0.67103  -0.66843  -0.66220  -0.66008
 Alpha  occ. eigenvalues --   -0.65592  -0.64989  -0.64710  -0.63740  -0.62404
 Alpha  occ. eigenvalues --   -0.61267  -0.61165  -0.60477  -0.59847  -0.59718
 Alpha  occ. eigenvalues --   -0.59188  -0.58871  -0.58215  -0.57388  -0.57165
 Alpha  occ. eigenvalues --   -0.56712  -0.56358  -0.56247  -0.56204  -0.55888
 Alpha  occ. eigenvalues --   -0.55615  -0.55516  -0.55273  -0.54922  -0.54813
 Alpha  occ. eigenvalues --   -0.54736  -0.54367  -0.54292  -0.54100  -0.53770
 Alpha  occ. eigenvalues --   -0.53587  -0.53218  -0.53204  -0.52703  -0.52597
 Alpha  occ. eigenvalues --   -0.52293  -0.52230  -0.52134  -0.51949  -0.51802
 Alpha  occ. eigenvalues --   -0.51185  -0.50877  -0.50818  -0.50786  -0.50593
 Alpha  occ. eigenvalues --   -0.50434  -0.50266  -0.49994  -0.49687  -0.49442
 Alpha  occ. eigenvalues --   -0.49192  -0.49180  -0.48756  -0.48637  -0.48283
 Alpha  occ. eigenvalues --   -0.48163  -0.48049  -0.48011  -0.47595  -0.47510
 Alpha  occ. eigenvalues --   -0.47406  -0.47284  -0.47212  -0.46742  -0.46704
 Alpha  occ. eigenvalues --   -0.46613  -0.46496  -0.46180  -0.46076  -0.45854
 Alpha  occ. eigenvalues --   -0.45764  -0.45686  -0.45356  -0.45242  -0.44944
 Alpha  occ. eigenvalues --   -0.44694  -0.44574  -0.44137  -0.44098  -0.43988
 Alpha  occ. eigenvalues --   -0.43893  -0.43792  -0.43601  -0.43485  -0.43095
 Alpha  occ. eigenvalues --   -0.42700  -0.42520  -0.42421  -0.42301  -0.41584
 Alpha  occ. eigenvalues --   -0.41476  -0.41073  -0.40895  -0.40728  -0.40213
 Alpha  occ. eigenvalues --   -0.40046  -0.39940  -0.39795  -0.39518  -0.39245
 Alpha  occ. eigenvalues --   -0.38786  -0.38464  -0.38449  -0.38274  -0.37979
 Alpha  occ. eigenvalues --   -0.37966  -0.37637  -0.36793  -0.36678  -0.35953
 Alpha  occ. eigenvalues --   -0.35867  -0.35594  -0.35313  -0.34595  -0.33070
 Alpha  occ. eigenvalues --   -0.33066  -0.32831  -0.31841  -0.31795  -0.25866
 Alpha  occ. eigenvalues --   -0.22430
 Alpha virt. eigenvalues --   -0.06248   0.00025   0.02683   0.04778   0.06721
 Alpha virt. eigenvalues --    0.07463   0.07724   0.08018   0.08247   0.09450
 Alpha virt. eigenvalues --    0.09864   0.11017   0.11419   0.12192   0.12666

 Mulliken charges:
               1
     1  Mg   0.989971
     2  C    0.008462
     3  C   -0.080610
     4  C   -0.101526
     5  C   -0.094327
     6  N   -0.362423
     7  C   -0.012353
     8  C   -0.023449
     9  C   -0.106859
    10  C    0.036062
    11  C   -0.006562
    12  C    0.018912
    13  C    0.001329
    14  C    0.187190
    15  O   -0.283644
    16  O   -0.361685
    17  N   -0.424438
    18  C    0.186789
    19  C   -0.177660
    20  C   -0.041548
    21  C    0.126465
    22  C    0.078383
    23  C    0.002918
    24  O   -0.213840
    25  C    0.024094
    26  N   -0.429700
    27  C    0.127867
    28  C   -0.094339
    29  C   -0.112939
    30  C    0.079914
    31  C    0.036952
    32  C   -0.019028
    33  C   -0.042460
    34  N   -0.416305
    35  C    0.127020
    36  C   -0.193299
    37  C   -0.024547
    38  C    0.118386
    39  C    0.093062
    40  C    0.127035
    41  O   -0.245634
    42  C   -0.153519
    43  C    0.285684
    44  O   -0.246526
    45  O   -0.361006
    46  C    0.133572
    47  C    0.256280
    48  C   -0.162957
    49  C   -0.233431
    50  C    0.042174
    51  C    0.050772
    52  C   -0.006622
    53  C    0.004958
    54  C   -0.180630
    55  C    0.021341
    56  C    0.000462
    57  C    0.002908
    58  C    0.015201
    59  C   -0.197874
    60  C   -0.010494
    61  C    0.028239
    62  C   -0.072128
    63  C    0.031368
    64  C   -0.211942
    65  C    0.004811
    66  C    0.000860
    67  H   -0.012886
    68  H    0.025481
    69  H   -0.008322
    70  H    0.058368
    71  H    0.043858
    72  H    0.049413
    73  H    0.044268
    74  H    0.021628
    75  H    0.024615
    76  H    0.070347
    77  H    0.050894
    78  H    0.069363
    79  H    0.069040
    80  H    0.031455
    81  H    0.039723
    82  H    0.057784
    83  H    0.041478
    84  H    0.061253
    85  H    0.033452
    86  H    0.038829
    87  H    0.041712
    88  H    0.038812
    89  H    0.031606
    90  H    0.041842
    91  H    0.040522
    92  H    0.036373
    93  H    0.043301
    94  H    0.033103
    95  H    0.055100
    96  H    0.056529
    97  H    0.037528
    98  H    0.098861
    99  H    0.066397
   100  H    0.053280
   101  H    0.062656
   102  H    0.044036
   103  H    0.049820
   104  H    0.010226
   105  H    0.048276
   106  H    0.034050
   107  H    0.052746
   108  H    0.046994
   109  H    0.017356
   110  H    0.012796
   111  H    0.029396
   112  H   -0.010723
   113  H   -0.000345
   114  H    0.008620
   115  H    0.034422
   116  H    0.028204
   117  H    0.029947
   118  H    0.006714
   119  H    0.010840
   120  H    0.022630
   121  H    0.036248
   122  H    0.007863
   123  H    0.018825
   124  H    0.028645
   125  H    0.026253
   126  H    0.039409
   127  H    0.020671
   128  H    0.013358
   129  H    0.011882
   130  H    0.018890
   131  H    0.023532
   132  H    0.022051
   133  H    0.009527
   134  H    0.024200
   135  H    0.009157
   136  H    0.034763
   137  H    0.016709
   138  H    0.032845
   139  H    0.022664
   140  H    0.015702
 Sum of Mulliken charges =  -0.00000

 Dipole moment (field-independent basis, Debye):
    X=              2.6830    Y=              5.9035    Z=             -1.3296  Tot=              6.6195
 Quadrupole moment (field-independent basis, Debye-Ang):
   XX=           -372.5833   YY=           -411.5957   ZZ=           -406.4386
   XY=             -5.3572   XZ=             17.2254   YZ=             -8.7985

 Normal termination of Gaussian 16 at Fri Apr 29 17:41:12 2022.
