 Gaussian 16, Revision A.03,
 Gaussian 16:  ES64L-G16RevA.03 25-Dec-2016

 --------------------
 #p ZINDO=(nstates=5)
 --------------------

 -----------------------------
 step_401_chromophore_19 ZINDO
 -----------------------------
 Symbolic Z-matrix:
 Charge =  0 Multiplicity = 1

                         Standard orientation:
 ---------------------------------------------------------------------
 Center     Atomic      Atomic             Coordinates (Angstroms)
 Number     Number       Type             X           Y           Z
 ---------------------------------------------------------------------
      1         12           0       -5.945556    0.362513    0.000372
      2          6           0       -3.508786   -2.152855    0.006488
      3          6           0       -3.412713    2.738747    0.176943
      4          6           0       -8.240167    2.746815    0.588777
      5          6           0       -8.282136   -2.089344   -0.334205
      6          7           0       -3.673125    0.280277    0.085739
      7          6           0       -2.873039   -0.862245    0.088472
      8          6           0       -1.401607   -0.618715    0.193624
      9          6           0       -1.455994    0.950088    0.278257
     10          6           0       -2.932945    1.420622    0.215719
     11          6           0       -0.724073    1.606775    1.508917
     12          6           0       -0.590574   -1.233306   -1.007966
     13          6           0        0.824928   -0.637903   -1.352633
     14          6           0        2.013236   -1.630389   -1.388244
     15          8           0        1.905257   -2.717283   -1.948046
     16          8           0        3.176596   -1.266794   -0.744017
     17          7           0       -5.839142    2.439175    0.292476
     18          6           0       -4.764410    3.226994    0.291087
     19          6           0       -5.152465    4.681118    0.386883
     20          6           0       -6.499886    4.714936    0.530701
     21          6           0       -6.948827    3.252828    0.532107
     22          6           0       -4.177157    5.813175    0.221697
     23          6           0       -7.356104    5.946825    0.507749
     24          8           0       -8.509289    5.846212    0.799631
     25          6           0       -6.850320    7.361047    0.289019
     26          7           0       -7.932168    0.354433    0.228736
     27          6           0       -8.687637    1.468221    0.328326
     28          6           0      -10.213546    1.069862    0.164231
     29          6           0      -10.259545   -0.408264   -0.266991
     30          6           0       -8.705045   -0.730595   -0.189791
     31          6           0      -11.037709    1.336767    1.356291
     32          6           0      -10.803864   -0.686395   -1.811967
     33          6           0      -12.281287   -1.072346   -1.798589
     34          7           0       -5.976724   -1.676607   -0.259271
     35          6           0       -6.988185   -2.557795   -0.412861
     36          6           0       -6.565403   -3.861081   -0.614963
     37          6           0       -5.217187   -3.784288   -0.324018
     38          6           0       -4.875258   -2.419025   -0.175613
     39          6           0       -7.390536   -5.144351   -0.960344
     40          6           0       -4.023171   -4.578588   -0.126874
     41          8           0       -3.908782   -5.835718   -0.082599
     42          6           0       -2.826192   -3.526744    0.001571
     43          6           0       -1.975661   -3.793422    1.220358
     44          8           0       -2.054899   -3.200820    2.282884
     45          8           0       -1.059610   -4.748375    0.912945
     46          6           0       -0.021804   -5.191454    1.863889
     47          6           0        4.285191   -2.260213   -0.854854
     48          6           0        5.700686   -1.635680   -0.755693
     49          6           0        6.305412   -1.093666    0.257039
     50          6           0        5.668106   -1.072896    1.654118
     51          6           0        7.642890   -0.380491    0.135708
     52          6           0        7.485352    1.019086   -0.605593
     53          6           0        8.152632    1.080431   -1.985363
     54          6           0        9.390741    1.905061   -2.134635
     55          6           0        9.035982    3.293205   -2.658926
     56          6           0       10.492794    1.176046   -2.939665
     57          6           0       11.922281    1.711806   -2.650123
     58          6           0       12.979363    0.623610   -2.402550
     59          6           0       13.807342    0.905472   -1.120489
     60          6           0       15.274087    0.251332   -1.285588
     61          6           0       13.107690    0.299621    0.116106
     62          6           0       12.953683    1.302753    1.285351
     63          6           0       13.114453    0.660133    2.698683
     64          6           0       11.864122    0.024447    3.228463
     65          6           0       11.101570    0.956461    4.176221
     66          6           0       12.015831   -1.373791    3.771474
     67          1           0       -2.480228    3.304396    0.223120
     68          1           0       -8.965715    3.498950    0.905570
     69          1           0       -9.052383   -2.829998   -0.556376
     70          1           0       -1.033571   -1.080694    1.109356
     71          1           0       -0.966662    1.323073   -0.621226
     72          1           0       -0.029833    0.991106    2.080361
     73          1           0       -1.379100    2.142251    2.196231
     74          1           0       -0.124695    2.446040    1.156705
     75          1           0       -1.163239   -0.860911   -1.857907
     76          1           0       -0.587781   -2.320471   -1.085643
     77          1           0        1.144568    0.127719   -0.645442
     78          1           0        0.892671   -0.288598   -2.382678
     79          1           0       -4.167696    6.283757   -0.761134
     80          1           0       -3.156904    5.504768    0.449917
     81          1           0       -4.343159    6.516399    1.038563
     82          1           0       -6.433415    7.483560   -0.710494
     83          1           0       -6.094354    7.296139    1.071609
     84          1           0       -7.591749    8.131649    0.500352
     85          1           0      -10.615578    1.740944   -0.594908
     86          1           0      -10.777567   -1.054891    0.440924
     87          1           0      -10.416324    1.730840    2.161091
     88          1           0      -11.622624    0.465282    1.650627
     89          1           0      -11.677513    2.163705    1.048170
     90          1           0      -10.242465   -1.551007   -2.164216
     91          1           0      -10.638048    0.315888   -2.207961
     92          1           0      -12.319582   -2.042791   -2.293392
     93          1           0      -12.840489   -0.297018   -2.322434
     94          1           0      -12.716309   -1.226769   -0.811826
     95          1           0       -7.669083   -5.650799   -0.036227
     96          1           0       -6.735920   -5.857531   -1.460440
     97          1           0       -8.273480   -4.895738   -1.547837
     98          1           0       -2.317579   -3.716147   -0.942978
     99          1           0       -0.214149   -6.263099    1.919473
    100          1           0       -0.158397   -4.828495    2.882882
    101          1           0        0.997232   -4.917767    1.589621
    102          1           0        4.253009   -2.724946   -1.840102
    103          1           0        4.199832   -3.136948   -0.212172
    104          1           0        6.258830   -1.584820   -1.690131
    105          1           0        4.617755   -1.358535    1.605842
    106          1           0        5.738273   -0.029323    1.963506
    107          1           0        6.314117   -1.699796    2.268711
    108          1           0        8.253294   -1.100975   -0.409796
    109          1           0        7.968798   -0.252014    1.168612
    110          1           0        7.824528    1.841533    0.024480
    111          1           0        6.428146    1.279043   -0.653611
    112          1           0        7.482954    1.567525   -2.694550
    113          1           0        8.073017    0.120651   -2.496066
    114          1           0        9.666674    1.995736   -1.083881
    115          1           0        9.847256    3.950631   -2.345492
    116          1           0        8.090914    3.603915   -2.213833
    117          1           0        8.893859    3.265243   -3.738885
    118          1           0       10.217531    1.271302   -3.990591
    119          1           0       10.403548    0.094933   -2.834092
    120          1           0       11.887809    2.233059   -1.692798
    121          1           0       12.137794    2.404878   -3.463739
    122          1           0       13.645531    0.641802   -3.265424
    123          1           0       12.668147   -0.419548   -2.464026
    124          1           0       13.938128    1.973738   -0.952450
    125          1           0       15.666821   -0.349430   -0.465305
    126          1           0       15.950041    1.062066   -1.558964
    127          1           0       15.243790   -0.515808   -2.058701
    128          1           0       13.554796   -0.642584    0.431222
    129          1           0       12.061431    0.055764   -0.069306
    130          1           0       11.940701    1.656752    1.091518
    131          1           0       13.619230    2.165922    1.269661
    132          1           0       13.566101    1.375080    3.385675
    133          1           0       13.789969   -0.173853    2.508583
    134          1           0       11.150215    0.004838    2.404533
    135          1           0       11.783244    1.685289    4.613538
    136          1           0       10.557277    0.440101    4.966896
    137          1           0       10.477990    1.650292    3.612441
    138          1           0       12.944743   -1.943123    3.823126
    139          1           0       11.371627   -1.999179    3.153084
    140          1           0       11.613152   -1.432489    4.782039
 ---------------------------------------------------------------------

 SCF Done:  E(RZINDO/S) =  -474.268127270     A.U. after   19 cycles

 Excitation energies and oscillator strengths:

 Excited State   1:      Singlet-A      1.3214 eV  938.28 nm  f=0.5701  <S**2>=0.000
     175 ->178        -0.17689
     176 ->177         0.66715
 This state for optimization and/or second-order correction.
 Total Energy, E(CIS/TDA) =  -474.219566865
 Copying the excited state density for this state as the 1-particle RhoCI density.

 Excited State   2:      Singlet-A      1.9360 eV  640.43 nm  f=0.0061  <S**2>=0.000
     175 ->177         0.49016
     176 ->178         0.48303

 Excited State   3:      Singlet-A      2.9090 eV  426.21 nm  f=0.0068  <S**2>=0.000
     168 ->177         0.26233
     168 ->178        -0.12300
     168 ->179        -0.38731
     168 ->180         0.26206
     168 ->185        -0.21539
     169 ->177         0.13583
     169 ->179        -0.19091
     169 ->180         0.12855
     169 ->185        -0.10382

 Excited State   4:      Singlet-A      2.9503 eV  420.24 nm  f=0.2421  <S**2>=0.000
     171 ->179        -0.10815
     171 ->180        -0.13808
     175 ->177         0.19952
     176 ->178        -0.19259
     176 ->179         0.50356
     176 ->180         0.24936

 Excited State   5:      Singlet-A      3.0054 eV  412.54 nm  f=0.9633  <S**2>=0.000
     171 ->177        -0.11172
     171 ->179        -0.11054
     171 ->180        -0.13838
     175 ->177        -0.40728
     176 ->178         0.44021
     176 ->179         0.21096

 The electronic state is 1-A.
 Alpha  occ. eigenvalues --   -1.86192  -1.80840  -1.78594  -1.71559  -1.70248
 Alpha  occ. eigenvalues --   -1.69867  -1.66169  -1.62887  -1.62591  -1.56225
 Alpha  occ. eigenvalues --   -1.55494  -1.52610  -1.48143  -1.47167  -1.46693
 Alpha  occ. eigenvalues --   -1.43197  -1.41613  -1.40959  -1.39360  -1.38466
 Alpha  occ. eigenvalues --   -1.35833  -1.32302  -1.31948  -1.31578  -1.29134
 Alpha  occ. eigenvalues --   -1.26992  -1.24991  -1.22111  -1.21448  -1.18506
 Alpha  occ. eigenvalues --   -1.17021  -1.16853  -1.15451  -1.13228  -1.12756
 Alpha  occ. eigenvalues --   -1.12362  -1.12070  -1.11871  -1.04476  -1.03100
 Alpha  occ. eigenvalues --   -1.02564  -1.01198  -0.99586  -0.97625  -0.96298
 Alpha  occ. eigenvalues --   -0.95080  -0.94134  -0.93771  -0.93356  -0.93227
 Alpha  occ. eigenvalues --   -0.90777  -0.90369  -0.90197  -0.88748  -0.88261
 Alpha  occ. eigenvalues --   -0.86555  -0.83527  -0.82457  -0.81837  -0.80321
 Alpha  occ. eigenvalues --   -0.78861  -0.78116  -0.76684  -0.76150  -0.76007
 Alpha  occ. eigenvalues --   -0.75667  -0.74614  -0.74202  -0.73964  -0.73572
 Alpha  occ. eigenvalues --   -0.73133  -0.72182  -0.71988  -0.71872  -0.71090
 Alpha  occ. eigenvalues --   -0.70621  -0.69437  -0.68915  -0.68731  -0.67781
 Alpha  occ. eigenvalues --   -0.67468  -0.67008  -0.66386  -0.66221  -0.65798
 Alpha  occ. eigenvalues --   -0.65564  -0.64083  -0.63770  -0.63694  -0.63388
 Alpha  occ. eigenvalues --   -0.63298  -0.62862  -0.62471  -0.62291  -0.61880
 Alpha  occ. eigenvalues --   -0.61776  -0.61296  -0.60383  -0.60220  -0.59985
 Alpha  occ. eigenvalues --   -0.59769  -0.59095  -0.58608  -0.58517  -0.58124
 Alpha  occ. eigenvalues --   -0.57664  -0.57490  -0.57319  -0.56765  -0.56542
 Alpha  occ. eigenvalues --   -0.56160  -0.55722  -0.55549  -0.55381  -0.54816
 Alpha  occ. eigenvalues --   -0.54157  -0.54093  -0.53526  -0.53218  -0.52945
 Alpha  occ. eigenvalues --   -0.52668  -0.52095  -0.51516  -0.51453  -0.51071
 Alpha  occ. eigenvalues --   -0.50994  -0.50906  -0.50573  -0.50023  -0.49858
 Alpha  occ. eigenvalues --   -0.49626  -0.49477  -0.49375  -0.48835  -0.48559
 Alpha  occ. eigenvalues --   -0.48414  -0.48283  -0.48173  -0.48004  -0.47460
 Alpha  occ. eigenvalues --   -0.47133  -0.46882  -0.46781  -0.46331  -0.46188
 Alpha  occ. eigenvalues --   -0.45914  -0.45649  -0.45626  -0.45346  -0.45157
 Alpha  occ. eigenvalues --   -0.45019  -0.44536  -0.44127  -0.43603  -0.43358
 Alpha  occ. eigenvalues --   -0.43261  -0.42815  -0.42502  -0.41800  -0.41715
 Alpha  occ. eigenvalues --   -0.41532  -0.41213  -0.40696  -0.38649  -0.38178
 Alpha  occ. eigenvalues --   -0.38031  -0.37077  -0.35851  -0.35232  -0.34501
 Alpha  occ. eigenvalues --   -0.33764  -0.33161  -0.32350  -0.31913  -0.26634
 Alpha  occ. eigenvalues --   -0.21321
 Alpha virt. eigenvalues --   -0.07653  -0.02143  -0.00362   0.01516   0.02273
 Alpha virt. eigenvalues --    0.02894   0.03360   0.03420   0.05141   0.05684
 Alpha virt. eigenvalues --    0.06080   0.06663   0.06809   0.07522   0.08188

 Mulliken charges:
               1
     1  Mg   0.425496
     2  C   -0.050197
     3  C   -0.113762
     4  C   -0.054115
     5  C   -0.054727
     6  N   -0.300753
     7  C    0.105382
     8  C    0.014717
     9  C    0.014952
    10  C    0.155681
    11  C   -0.057127
    12  C   -0.023941
    13  C    0.005958
    14  C    0.456205
    15  O   -0.527237
    16  O   -0.264217
    17  N   -0.310722
    18  C    0.153708
    19  C    0.019932
    20  C   -0.022120
    21  C    0.130241
    22  C   -0.042655
    23  C    0.328796
    24  O   -0.513178
    25  C   -0.029875
    26  N   -0.249215
    27  C    0.158613
    28  C    0.013605
    29  C   -0.023291
    30  C    0.056072
    31  C   -0.048082
    32  C   -0.042835
    33  C   -0.058948
    34  N   -0.315238
    35  C    0.090329
    36  C    0.015588
    37  C   -0.056751
    38  C    0.109700
    39  C   -0.042696
    40  C    0.317044
    41  O   -0.547121
    42  C    0.053534
    43  C    0.495405
    44  O   -0.529345
    45  O   -0.264270
    46  C    0.074626
    47  C    0.101025
    48  C   -0.099892
    49  C    0.007152
    50  C   -0.049797
    51  C   -0.024057
    52  C   -0.026433
    53  C   -0.038951
    54  C   -0.003873
    55  C   -0.050463
    56  C   -0.036693
    57  C   -0.035355
    58  C   -0.031348
    59  C   -0.010694
    60  C   -0.070352
    61  C   -0.033975
    62  C   -0.042943
    63  C   -0.031830
    64  C    0.002435
    65  C   -0.060581
    66  C   -0.056393
    67  H    0.026389
    68  H    0.043387
    69  H    0.022471
    70  H    0.048059
    71  H    0.025802
    72  H    0.029102
    73  H    0.024966
    74  H    0.006868
    75  H    0.013959
    76  H    0.051297
    77  H    0.032041
    78  H    0.051173
    79  H    0.041622
    80  H    0.018930
    81  H    0.029001
    82  H    0.038317
    83  H    0.043127
    84  H    0.046241
    85  H    0.025504
    86  H    0.038347
    87  H    0.024286
    88  H    0.027988
    89  H    0.015889
    90  H    0.038498
    91  H    0.036196
    92  H    0.018297
    93  H    0.020963
    94  H    0.022687
    95  H    0.033631
    96  H    0.034500
    97  H    0.024772
    98  H    0.063352
    99  H    0.040614
   100  H    0.042058
   101  H    0.044527
   102  H    0.040047
   103  H    0.050545
   104  H    0.018833
   105  H    0.031118
   106  H    0.023249
   107  H    0.034204
   108  H    0.032727
   109  H    0.021294
   110  H    0.015170
   111  H    0.019118
   112  H    0.000628
   113  H    0.021926
   114  H    0.015267
   115  H    0.016009
   116  H    0.017618
   117  H    0.024198
   118  H    0.012816
   119  H    0.017374
   120  H    0.020070
   121  H    0.027116
   122  H    0.003728
   123  H    0.028045
   124  H    0.028712
   125  H    0.022357
   126  H    0.019861
   127  H    0.015699
   128  H    0.023111
   129  H    0.012007
   130  H    0.016157
   131  H    0.017122
   132  H    0.023350
   133  H    0.013567
   134  H    0.015564
   135  H    0.011173
   136  H    0.024724
   137  H    0.013111
   138  H    0.025761
   139  H    0.008950
   140  H    0.012665
 Sum of Mulliken charges =  -0.00000

 Dipole moment (field-independent basis, Debye):
    X=              3.2934    Y=             11.1797    Z=             -2.0026  Tot=             11.8255
 N-N= 4.268352646378D+03 E-N= 0.000000000000D+00  KE=-9.211383790971D+03
 Leave Link  601 at Fri Apr 29 17:54:47 2022, MaxMem=  6710886400 cpu:               0.8 elap:               0.1
 (Enter /sw/apps/gaussian-16.0/g16/l9999.exe)
 1\1\GINC-BP1-COMPUTE137\SP\RZINDO CIS\STO-3G\C55H74Mg1N4O6\OF15641\29-
 Apr-2022\0\\#p ZINDO=(nstates=5)\\step_401_chromophore_19 ZINDO\\0,1\M
 g,0,25.905,50.69,26.035\C,0,23.813,51.793,28.618\C,0,28.038,49.328,28.
 42\C,0,28.206,50.143,23.647\C,0,23.626,51.94,23.838\N,0,25.909,50.583,
 28.308\C,0,24.955,51.114,29.176\C,0,25.235,50.929,30.633\C,0,26.605,50
 .172,30.487\C,0,26.951,50.014,28.983\C,0,27.827,50.787,31.268\C,0,24.0
 83,50.165,31.387\C,0,24.419,49.42,32.732\C,0,23.576,49.801,33.974\O,0,

 Normal termination of Gaussian 16 at Fri Apr 29 17:54:47 2022.
