 Gaussian 16, Revision A.03,
 Gaussian 16:  ES64L-G16RevA.03 25-Dec-2016

 ------------------------------
 #p blyp/Def2SVP td=(nstates=5)
 ------------------------------

 ---------------------------------------------------
 step_1351_chromophore_15 TDDFT with blyp functional
 ---------------------------------------------------
 Symbolic Z-matrix:
 Charge =  0 Multiplicity = 1

                         Standard orientation:
 ---------------------------------------------------------------------
 Center     Atomic      Atomic             Coordinates (Angstroms)
 Number     Number       Type             X           Y           Z
 ---------------------------------------------------------------------
      1         12           0       -4.792519    1.083054   -0.094754
      2          6           0       -4.561418   -2.498685    0.456569
      3          6           0       -1.253465    0.944503   -0.122190
      4          6           0       -4.810754    4.453988    0.122457
      5          6           0       -8.048447    0.775971    0.507904
      6          7           0       -3.205039   -0.590963    0.299275
      7          6           0       -3.309109   -1.919014    0.229771
      8          6           0       -1.991895   -2.628056   -0.026117
      9          6           0       -0.993162   -1.497967    0.351844
     10          6           0       -1.875835   -0.264206    0.216520
     11          6           0       -0.343585   -1.708230    1.744710
     12          6           0       -1.917599   -3.141476   -1.518916
     13          6           0       -0.650823   -3.943310   -2.129863
     14          6           0        0.571526   -4.137050   -1.290009
     15          8           0        0.666551   -4.977545   -0.389177
     16          8           0        1.668715   -3.376921   -1.707262
     17          7           0       -3.277676    2.506426   -0.251814
     18          6           0       -1.888745    2.261483   -0.225253
     19          6           0       -1.217468    3.499095   -0.480881
     20          6           0       -2.275359    4.560763   -0.472653
     21          6           0       -3.554244    3.855885   -0.176841
     22          6           0        0.238498    3.620376   -0.711004
     23          6           0       -2.183420    6.025191   -0.589187
     24          8           0       -3.188800    6.751151   -0.536774
     25          6           0       -0.860648    6.661531   -0.715773
     26          7           0       -6.205921    2.374771    0.276692
     27          6           0       -6.031896    3.747370    0.336051
     28          6           0       -7.361900    4.475056    0.590249
     29          6           0       -8.387063    3.323956    0.488292
     30          6           0       -7.556091    2.067390    0.385715
     31          6           0       -7.438249    5.341591    1.815229
     32          6           0       -9.556512    3.556025   -0.504243
     33          6           0      -10.967863    3.397074    0.134340
     34          7           0       -6.139997   -0.528449    0.239340
     35          6           0       -7.496439   -0.450873    0.419462
     36          6           0       -8.042871   -1.838673    0.695974
     37          6           0       -6.915451   -2.669501    0.648344
     38          6           0       -5.746190   -1.819219    0.457196
     39          6           0       -9.425914   -2.252775    1.113840
     40          6           0       -6.486961   -3.985562    0.872071
     41          8           0       -7.169233   -4.986879    1.079733
     42          6           0       -4.908945   -3.934279    0.935550
     43          6           0       -4.336077   -5.072526    0.242778
     44          8           0       -4.674259   -5.543633   -0.849186
     45          8           0       -3.277284   -5.450184    0.954735
     46          6           0       -2.507980   -6.517257    0.300812
     47          6           0        2.940362   -3.806577   -1.028264
     48          6           0        4.094694   -2.965147   -1.611891
     49          6           0        5.411840   -3.031806   -1.316081
     50          6           0        5.968345   -4.183235   -0.494505
     51          6           0        6.477271   -2.162975   -2.073224
     52          6           0        6.379877   -0.651591   -1.817529
     53          6           0        6.863947    0.152027   -3.101190
     54          6           0        7.891592    1.267045   -2.762737
     55          6           0        7.809503    2.460889   -3.690685
     56          6           0        9.295211    0.602525   -2.791352
     57          6           0        9.786739    0.298388   -1.343888
     58          6           0       11.011998    1.267835   -1.031064
     59          6           0       10.584898    2.410566   -0.095433
     60          6           0       10.678734    3.772429   -0.814760
     61          6           0       11.225813    2.419796    1.239965
     62          6           0       10.508383    1.539935    2.346701
     63          6           0       11.464652    0.386070    2.853890
     64          6           0       11.640584    0.350912    4.379451
     65          6           0       13.144143    0.334406    4.679357
     66          6           0       10.857111   -0.898332    4.871874
     67          1           0       -0.173414    0.859718   -0.258236
     68          1           0       -4.936845    5.500931    0.404927
     69          1           0       -9.126774    0.657197    0.636803
     70          1           0       -1.813753   -3.496770    0.606530
     71          1           0       -0.205369   -1.490056   -0.401563
     72          1           0        0.660065   -2.088350    1.554246
     73          1           0       -0.911397   -2.520606    2.200162
     74          1           0       -0.373061   -0.796137    2.339865
     75          1           0       -2.102427   -2.290362   -2.173231
     76          1           0       -2.755213   -3.830098   -1.628249
     77          1           0       -0.316006   -3.536449   -3.083869
     78          1           0       -0.960837   -4.976948   -2.282375
     79          1           0        0.665019    4.024404    0.206138
     80          1           0        0.364244    4.371171   -1.492191
     81          1           0        0.632926    2.681218   -1.100237
     82          1           0       -0.487532    6.635898   -1.740209
     83          1           0       -0.173507    6.157398   -0.036806
     84          1           0       -0.887290    7.723011   -0.469339
     85          1           0       -7.452103    5.115071   -0.287681
     86          1           0       -8.815180    3.388141    1.489156
     87          1           0       -6.435804    5.598543    2.158421
     88          1           0       -8.131299    4.928778    2.548831
     89          1           0       -7.844091    6.287369    1.457741
     90          1           0       -9.411070    2.943481   -1.394464
     91          1           0       -9.552915    4.559790   -0.928853
     92          1           0      -11.418672    4.387621    0.192793
     93          1           0      -10.939027    2.902935    1.104889
     94          1           0      -11.568985    2.848337   -0.591533
     95          1           0       -9.320000   -3.063264    1.834828
     96          1           0      -10.080583   -2.519618    0.283974
     97          1           0       -9.715684   -1.324542    1.607118
     98          1           0       -4.742143   -4.106227    1.999173
     99          1           0       -2.863513   -7.547137    0.265624
    100          1           0       -1.634233   -6.422684    0.945665
    101          1           0       -2.335761   -6.390590   -0.768167
    102          1           0        3.152170   -4.847199   -1.273096
    103          1           0        2.922439   -3.697441    0.056593
    104          1           0        3.830264   -2.144172   -2.278540
    105          1           0        6.935009   -4.489651   -0.893839
    106          1           0        5.296705   -5.042170   -0.484229
    107          1           0        6.148339   -3.805174    0.511315
    108          1           0        6.564089   -2.517314   -3.100994
    109          1           0        7.410315   -2.553760   -1.666971
    110          1           0        7.079656   -0.342457   -1.040641
    111          1           0        5.337515   -0.375409   -1.657054
    112          1           0        5.969777    0.718772   -3.361649
    113          1           0        7.194541   -0.572239   -3.846302
    114          1           0        7.849373    1.691125   -1.760520
    115          1           0        8.670709    2.364260   -4.351097
    116          1           0        7.788919    3.306482   -3.002908
    117          1           0        6.865600    2.391258   -4.232986
    118          1           0        9.982872    1.150567   -3.436716
    119          1           0        9.289778   -0.388976   -3.242654
    120          1           0       10.109134   -0.743032   -1.356834
    121          1           0        9.024193    0.483568   -0.586940
    122          1           0       11.461765    1.763363   -1.890426
    123          1           0       11.605579    0.489848   -0.550381
    124          1           0        9.509264    2.354687    0.073203
    125          1           0        9.720932    4.280788   -0.706889
    126          1           0       10.864348    3.764886   -1.888143
    127          1           0       11.557765    4.331265   -0.491967
    128          1           0       11.092340    3.438401    1.603573
    129          1           0       12.307008    2.344026    1.120150
    130          1           0        9.653528    1.035108    1.897075
    131          1           0       10.121751    2.278123    3.049341
    132          1           0       12.468065    0.288839    2.439721
    133          1           0       11.054003   -0.554042    2.486357
    134          1           0       11.267818    1.228379    4.907086
    135          1           0       13.234843    1.059416    5.487686
    136          1           0       13.783749    0.571919    3.829950
    137          1           0       13.570844   -0.575551    5.100811
    138          1           0       11.210591   -1.166704    5.867324
    139          1           0       10.904246   -1.765398    4.213744
    140          1           0        9.797482   -0.693115    5.025724
 ---------------------------------------------------------------------

 SCF Done:  E(RB-LYP) =  -3007.31649312     A.U. after   22 cycles

 Excitation energies and oscillator strengths:

 Excited State   1:      Singlet-A      1.6169 eV  766.82 nm  f=0.0031  <S**2>=0.000
     244 -> 247        0.53067
     245 -> 247        0.46345
 This state for optimization and/or second-order correction.
 Total Energy, E(TD-HF/TD-DFT) =  -3007.25707473
 Copying the excited state density for this state as the 1-particle RhoCI density.

 Excited State   2:      Singlet-A      1.7555 eV  706.25 nm  f=0.3013  <S**2>=0.000
     245 -> 248        0.17608
     246 -> 247        0.68984
     246 <- 247       -0.15364

 Excited State   3:      Singlet-A      1.8611 eV  666.18 nm  f=0.0200  <S**2>=0.000
     243 -> 247        0.49501
     244 -> 247        0.34004
     245 -> 247       -0.33731
     246 -> 248        0.11875

 Excited State   4:      Singlet-A      2.0052 eV  618.33 nm  f=0.0249  <S**2>=0.000
     242 -> 247       -0.13364
     243 -> 247        0.49142
     244 -> 247       -0.27212
     245 -> 247        0.32933
     246 -> 248       -0.22409

 Excited State   5:      Singlet-A      2.2232 eV  557.67 nm  f=0.0146  <S**2>=0.000
     242 -> 247        0.67612
     246 -> 248       -0.10183

 The electronic state is 1-A.
 Alpha  occ. eigenvalues --  -46.26570 -18.83297 -18.83094 -18.77583 -18.76445
 Alpha  occ. eigenvalues --  -18.75469 -18.74072 -14.03376 -14.03300 -14.01088
 Alpha  occ. eigenvalues --  -14.01044 -10.04843 -10.03413  -9.98969  -9.98884
 Alpha  occ. eigenvalues --   -9.98420  -9.97241  -9.97103  -9.96800  -9.96407
 Alpha  occ. eigenvalues --   -9.96107  -9.95986  -9.95852  -9.95834  -9.94724
 Alpha  occ. eigenvalues --   -9.94689  -9.94577  -9.94396  -9.93987  -9.93730
 Alpha  occ. eigenvalues --   -9.93712  -9.93618  -9.93588  -9.93565  -9.93210
 Alpha  occ. eigenvalues --   -9.93185  -9.93031  -9.92970  -9.92933  -9.92706
 Alpha  occ. eigenvalues --   -9.92550  -9.92482  -9.92475  -9.92412  -9.92248
 Alpha  occ. eigenvalues --   -9.92226  -9.92191  -9.92166  -9.92026  -9.91973
 Alpha  occ. eigenvalues --   -9.91951  -9.91892  -9.91428  -9.91390  -9.91384
 Alpha  occ. eigenvalues --   -9.91241  -9.91152  -9.91020  -9.90922  -9.90873
 Alpha  occ. eigenvalues --   -9.90783  -9.90717  -9.90649  -9.90599  -9.90588
 Alpha  occ. eigenvalues --   -9.90524  -2.91409  -1.71812  -1.71317  -1.71114
 Alpha  occ. eigenvalues --   -0.99449  -0.97459  -0.90840  -0.89656  -0.89612
 Alpha  occ. eigenvalues --   -0.89367  -0.87108  -0.85841  -0.84978  -0.83404
 Alpha  occ. eigenvalues --   -0.75943  -0.73730  -0.73051  -0.72736  -0.72498
 Alpha  occ. eigenvalues --   -0.72102  -0.71752  -0.71280  -0.71032  -0.70375
 Alpha  occ. eigenvalues --   -0.69773  -0.69057  -0.68509  -0.67806  -0.67368
 Alpha  occ. eigenvalues --   -0.66511  -0.66203  -0.65651  -0.64946  -0.64530
 Alpha  occ. eigenvalues --   -0.64340  -0.63002  -0.62588  -0.61582  -0.60957
 Alpha  occ. eigenvalues --   -0.60454  -0.60276  -0.60114  -0.59342  -0.59022
 Alpha  occ. eigenvalues --   -0.58312  -0.57492  -0.57046  -0.56191  -0.54959
 Alpha  occ. eigenvalues --   -0.54218  -0.53828  -0.52664  -0.52495  -0.52023
 Alpha  occ. eigenvalues --   -0.51296  -0.51271  -0.50595  -0.50255  -0.50049
 Alpha  occ. eigenvalues --   -0.49896  -0.49723  -0.49573  -0.48760  -0.46529
 Alpha  occ. eigenvalues --   -0.46211  -0.45840  -0.45373  -0.45084  -0.44494
 Alpha  occ. eigenvalues --   -0.44178  -0.42906  -0.42680  -0.42531  -0.42417
 Alpha  occ. eigenvalues --   -0.42234  -0.41833  -0.41645  -0.41452  -0.41274
 Alpha  occ. eigenvalues --   -0.41007  -0.40609  -0.40415  -0.40220  -0.40042
 Alpha  occ. eigenvalues --   -0.39910  -0.39726  -0.39642  -0.39321  -0.39067
 Alpha  occ. eigenvalues --   -0.38956  -0.38723  -0.38646  -0.38532  -0.38236
 Alpha  occ. eigenvalues --   -0.38081  -0.38035  -0.37882  -0.37655  -0.37448
 Alpha  occ. eigenvalues --   -0.37187  -0.36974  -0.36844  -0.36757  -0.36469
 Alpha  occ. eigenvalues --   -0.36327  -0.36220  -0.35990  -0.35933  -0.35665
 Alpha  occ. eigenvalues --   -0.35519  -0.35112  -0.35055  -0.34934  -0.34801
 Alpha  occ. eigenvalues --   -0.34788  -0.34565  -0.34445  -0.34405  -0.34262
 Alpha  occ. eigenvalues --   -0.34021  -0.33849  -0.33804  -0.33489  -0.33261
 Alpha  occ. eigenvalues --   -0.33037  -0.32761  -0.32737  -0.32560  -0.32450
 Alpha  occ. eigenvalues --   -0.32135  -0.32023  -0.31664  -0.31540  -0.31486
 Alpha  occ. eigenvalues --   -0.31205  -0.31124  -0.30773  -0.30633  -0.30557
 Alpha  occ. eigenvalues --   -0.30416  -0.30351  -0.30063  -0.30012  -0.29932
 Alpha  occ. eigenvalues --   -0.29845  -0.29442  -0.29281  -0.29057  -0.29011
 Alpha  occ. eigenvalues --   -0.28990  -0.28799  -0.28717  -0.28140  -0.28110
 Alpha  occ. eigenvalues --   -0.27981  -0.27566  -0.27281  -0.26743  -0.26588
 Alpha  occ. eigenvalues --   -0.26166  -0.26138  -0.25718  -0.25587  -0.25395
 Alpha  occ. eigenvalues --   -0.25260  -0.24794  -0.23925  -0.23631  -0.23450
 Alpha  occ. eigenvalues --   -0.22422  -0.22237  -0.22226  -0.21528  -0.20760
 Alpha  occ. eigenvalues --   -0.20377  -0.19242  -0.18600  -0.17716  -0.17251
 Alpha  occ. eigenvalues --   -0.15811
 Alpha virt. eigenvalues --   -0.11710  -0.07303  -0.06505  -0.04735  -0.04265
 Alpha virt. eigenvalues --   -0.03018  -0.02489  -0.02036  -0.01881   0.00309
 Alpha virt. eigenvalues --    0.00967   0.01688   0.01805   0.02441   0.02594

 Mulliken charges:
               1
     1  Mg   0.716021
     2  C    0.027400
     3  C   -0.086130
     4  C   -0.023410
     5  C   -0.088652
     6  N   -0.162095
     7  C   -0.116284
     8  C    0.029074
     9  C   -0.046315
    10  C    0.047527
    11  C    0.157709
    12  C    0.089724
    13  C    0.177968
    14  C    0.061394
    15  O   -0.219548
    16  O   -0.295781
    17  N   -0.330343
    18  C    0.154429
    19  C   -0.168222
    20  C    0.034529
    21  C    0.143033
    22  C    0.181987
    23  C   -0.098157
    24  O   -0.195574
    25  C    0.137506
    26  N   -0.326770
    27  C   -0.001506
    28  C   -0.034300
    29  C    0.063854
    30  C    0.094210
    31  C    0.162271
    32  C    0.098007
    33  C    0.057560
    34  N   -0.248313
    35  C    0.102537
    36  C   -0.180689
    37  C    0.110642
    38  C    0.090051
    39  C    0.175806
    40  C   -0.076315
    41  O   -0.134383
    42  C    0.080432
    43  C    0.077311
    44  O   -0.198447
    45  O   -0.235056
    46  C    0.214022
    47  C    0.310069
    48  C   -0.109586
    49  C   -0.188929
    50  C    0.138251
    51  C    0.124684
    52  C    0.095607
    53  C    0.120247
    54  C   -0.140550
    55  C    0.152677
    56  C    0.104938
    57  C   -0.002650
    58  C    0.153523
    59  C   -0.104752
    60  C    0.094847
    61  C    0.120990
    62  C    0.090388
    63  C    0.116508
    64  C   -0.084841
    65  C    0.098117
    66  C    0.100521
    67  H   -0.050140
    68  H   -0.031833
    69  H   -0.067602
    70  H   -0.023719
    71  H   -0.032852
    72  H   -0.001168
    73  H   -0.007573
    74  H   -0.002876
    75  H   -0.019219
    76  H    0.005567
    77  H   -0.003635
    78  H    0.007414
    79  H    0.019733
    80  H   -0.007466
    81  H   -0.000464
    82  H    0.013118
    83  H   -0.010020
    84  H   -0.015952
    85  H   -0.016590
    86  H   -0.033512
    87  H    0.001129
    88  H   -0.005581
    89  H   -0.015792
    90  H   -0.022925
    91  H   -0.026637
    92  H   -0.005944
    93  H    0.008071
    94  H   -0.007563
    95  H    0.014607
    96  H    0.021313
    97  H   -0.008236
    98  H    0.002043
    99  H    0.012935
   100  H    0.028294
   101  H    0.005840
   102  H    0.012397
   103  H    0.021479
   104  H   -0.032902
   105  H   -0.008225
   106  H   -0.008746
   107  H    0.002155
   108  H   -0.006886
   109  H   -0.051080
   110  H   -0.027633
   111  H   -0.016648
   112  H   -0.042803
   113  H   -0.019023
   114  H   -0.038048
   115  H   -0.015046
   116  H   -0.012943
   117  H   -0.029097
   118  H   -0.037580
   119  H   -0.048130
   120  H   -0.032853
   121  H    0.013177
   122  H   -0.026586
   123  H   -0.036326
   124  H   -0.048049
   125  H   -0.013591
   126  H   -0.030811
   127  H   -0.021377
   128  H   -0.058552
   129  H   -0.032410
   130  H   -0.031556
   131  H   -0.018841
   132  H   -0.038924
   133  H   -0.045826
   134  H   -0.028424
   135  H   -0.022218
   136  H   -0.011243
   137  H   -0.024698
   138  H   -0.028112
   139  H   -0.012328
   140  H   -0.023227
 Sum of Mulliken charges =  -0.00000

 Dipole moment (field-independent basis, Debye):
    X=              3.7881    Y=              2.1003    Z=             -0.1811  Tot=              4.3352
 Quadrupole moment (field-independent basis, Debye-Ang):
   XX=           -383.7299   YY=           -444.3404   ZZ=           -404.2117
   XY=            -39.9129   XZ=             -4.8884   YZ=              6.8019

 Normal termination of Gaussian 16 at Wed May  4 04:38:14 2022.
