 Gaussian 16, Revision A.03,
 Gaussian 16:  ES64L-G16RevA.03 25-Dec-2016

 -----------------------------------
 #p cam-b3lyp/Def2SVP td=(nstates=5)
 -----------------------------------

 --------------------------------------------------------
 step_1351_chromophore_15 TDDFT with cam-b3lyp functional
 --------------------------------------------------------
 Symbolic Z-matrix:
 Charge =  0 Multiplicity = 1

                         Standard orientation:
 ---------------------------------------------------------------------
 Center     Atomic      Atomic             Coordinates (Angstroms)
 Number     Number       Type             X           Y           Z
 ---------------------------------------------------------------------
      1         12           0       -4.792519    1.083054   -0.094754
      2          6           0       -4.561418   -2.498685    0.456569
      3          6           0       -1.253465    0.944503   -0.122190
      4          6           0       -4.810754    4.453988    0.122457
      5          6           0       -8.048447    0.775971    0.507904
      6          7           0       -3.205039   -0.590963    0.299275
      7          6           0       -3.309109   -1.919014    0.229771
      8          6           0       -1.991895   -2.628056   -0.026117
      9          6           0       -0.993162   -1.497967    0.351844
     10          6           0       -1.875835   -0.264206    0.216520
     11          6           0       -0.343585   -1.708230    1.744710
     12          6           0       -1.917599   -3.141476   -1.518916
     13          6           0       -0.650823   -3.943310   -2.129863
     14          6           0        0.571526   -4.137050   -1.290009
     15          8           0        0.666551   -4.977545   -0.389177
     16          8           0        1.668715   -3.376921   -1.707262
     17          7           0       -3.277676    2.506426   -0.251814
     18          6           0       -1.888745    2.261483   -0.225253
     19          6           0       -1.217468    3.499095   -0.480881
     20          6           0       -2.275359    4.560763   -0.472653
     21          6           0       -3.554244    3.855885   -0.176841
     22          6           0        0.238498    3.620376   -0.711004
     23          6           0       -2.183420    6.025191   -0.589187
     24          8           0       -3.188800    6.751151   -0.536774
     25          6           0       -0.860648    6.661531   -0.715773
     26          7           0       -6.205921    2.374771    0.276692
     27          6           0       -6.031896    3.747370    0.336051
     28          6           0       -7.361900    4.475056    0.590249
     29          6           0       -8.387063    3.323956    0.488292
     30          6           0       -7.556091    2.067390    0.385715
     31          6           0       -7.438249    5.341591    1.815229
     32          6           0       -9.556512    3.556025   -0.504243
     33          6           0      -10.967863    3.397074    0.134340
     34          7           0       -6.139997   -0.528449    0.239340
     35          6           0       -7.496439   -0.450873    0.419462
     36          6           0       -8.042871   -1.838673    0.695974
     37          6           0       -6.915451   -2.669501    0.648344
     38          6           0       -5.746190   -1.819219    0.457196
     39          6           0       -9.425914   -2.252775    1.113840
     40          6           0       -6.486961   -3.985562    0.872071
     41          8           0       -7.169233   -4.986879    1.079733
     42          6           0       -4.908945   -3.934279    0.935550
     43          6           0       -4.336077   -5.072526    0.242778
     44          8           0       -4.674259   -5.543633   -0.849186
     45          8           0       -3.277284   -5.450184    0.954735
     46          6           0       -2.507980   -6.517257    0.300812
     47          6           0        2.940362   -3.806577   -1.028264
     48          6           0        4.094694   -2.965147   -1.611891
     49          6           0        5.411840   -3.031806   -1.316081
     50          6           0        5.968345   -4.183235   -0.494505
     51          6           0        6.477271   -2.162975   -2.073224
     52          6           0        6.379877   -0.651591   -1.817529
     53          6           0        6.863947    0.152027   -3.101190
     54          6           0        7.891592    1.267045   -2.762737
     55          6           0        7.809503    2.460889   -3.690685
     56          6           0        9.295211    0.602525   -2.791352
     57          6           0        9.786739    0.298388   -1.343888
     58          6           0       11.011998    1.267835   -1.031064
     59          6           0       10.584898    2.410566   -0.095433
     60          6           0       10.678734    3.772429   -0.814760
     61          6           0       11.225813    2.419796    1.239965
     62          6           0       10.508383    1.539935    2.346701
     63          6           0       11.464652    0.386070    2.853890
     64          6           0       11.640584    0.350912    4.379451
     65          6           0       13.144143    0.334406    4.679357
     66          6           0       10.857111   -0.898332    4.871874
     67          1           0       -0.173414    0.859718   -0.258236
     68          1           0       -4.936845    5.500931    0.404927
     69          1           0       -9.126774    0.657197    0.636803
     70          1           0       -1.813753   -3.496770    0.606530
     71          1           0       -0.205369   -1.490056   -0.401563
     72          1           0        0.660065   -2.088350    1.554246
     73          1           0       -0.911397   -2.520606    2.200162
     74          1           0       -0.373061   -0.796137    2.339865
     75          1           0       -2.102427   -2.290362   -2.173231
     76          1           0       -2.755213   -3.830098   -1.628249
     77          1           0       -0.316006   -3.536449   -3.083869
     78          1           0       -0.960837   -4.976948   -2.282375
     79          1           0        0.665019    4.024404    0.206138
     80          1           0        0.364244    4.371171   -1.492191
     81          1           0        0.632926    2.681218   -1.100237
     82          1           0       -0.487532    6.635898   -1.740209
     83          1           0       -0.173507    6.157398   -0.036806
     84          1           0       -0.887290    7.723011   -0.469339
     85          1           0       -7.452103    5.115071   -0.287681
     86          1           0       -8.815180    3.388141    1.489156
     87          1           0       -6.435804    5.598543    2.158421
     88          1           0       -8.131299    4.928778    2.548831
     89          1           0       -7.844091    6.287369    1.457741
     90          1           0       -9.411070    2.943481   -1.394464
     91          1           0       -9.552915    4.559790   -0.928853
     92          1           0      -11.418672    4.387621    0.192793
     93          1           0      -10.939027    2.902935    1.104889
     94          1           0      -11.568985    2.848337   -0.591533
     95          1           0       -9.320000   -3.063264    1.834828
     96          1           0      -10.080583   -2.519618    0.283974
     97          1           0       -9.715684   -1.324542    1.607118
     98          1           0       -4.742143   -4.106227    1.999173
     99          1           0       -2.863513   -7.547137    0.265624
    100          1           0       -1.634233   -6.422684    0.945665
    101          1           0       -2.335761   -6.390590   -0.768167
    102          1           0        3.152170   -4.847199   -1.273096
    103          1           0        2.922439   -3.697441    0.056593
    104          1           0        3.830264   -2.144172   -2.278540
    105          1           0        6.935009   -4.489651   -0.893839
    106          1           0        5.296705   -5.042170   -0.484229
    107          1           0        6.148339   -3.805174    0.511315
    108          1           0        6.564089   -2.517314   -3.100994
    109          1           0        7.410315   -2.553760   -1.666971
    110          1           0        7.079656   -0.342457   -1.040641
    111          1           0        5.337515   -0.375409   -1.657054
    112          1           0        5.969777    0.718772   -3.361649
    113          1           0        7.194541   -0.572239   -3.846302
    114          1           0        7.849373    1.691125   -1.760520
    115          1           0        8.670709    2.364260   -4.351097
    116          1           0        7.788919    3.306482   -3.002908
    117          1           0        6.865600    2.391258   -4.232986
    118          1           0        9.982872    1.150567   -3.436716
    119          1           0        9.289778   -0.388976   -3.242654
    120          1           0       10.109134   -0.743032   -1.356834
    121          1           0        9.024193    0.483568   -0.586940
    122          1           0       11.461765    1.763363   -1.890426
    123          1           0       11.605579    0.489848   -0.550381
    124          1           0        9.509264    2.354687    0.073203
    125          1           0        9.720932    4.280788   -0.706889
    126          1           0       10.864348    3.764886   -1.888143
    127          1           0       11.557765    4.331265   -0.491967
    128          1           0       11.092340    3.438401    1.603573
    129          1           0       12.307008    2.344026    1.120150
    130          1           0        9.653528    1.035108    1.897075
    131          1           0       10.121751    2.278123    3.049341
    132          1           0       12.468065    0.288839    2.439721
    133          1           0       11.054003   -0.554042    2.486357
    134          1           0       11.267818    1.228379    4.907086
    135          1           0       13.234843    1.059416    5.487686
    136          1           0       13.783749    0.571919    3.829950
    137          1           0       13.570844   -0.575551    5.100811
    138          1           0       11.210591   -1.166704    5.867324
    139          1           0       10.904246   -1.765398    4.213744
    140          1           0        9.797482   -0.693115    5.025724
 ---------------------------------------------------------------------

 SCF Done:  E(RCAM-B3LYP) =  -3007.10829636     A.U. after   18 cycles

 Excitation energies and oscillator strengths:

 Excited State   1:      Singlet-A      1.6739 eV  740.69 nm  f=0.3776  <S**2>=0.000
     245 -> 248        0.17682
     246 -> 247        0.68613
     245 <- 248        0.10752
 This state for optimization and/or second-order correction.
 Total Energy, E(TD-HF/TD-DFT) =  -3007.04678127
 Copying the excited state density for this state as the 1-particle RhoCI density.

 Excited State   2:      Singlet-A      2.2007 eV  563.38 nm  f=0.0757  <S**2>=0.000
     245 -> 247        0.62349
     246 -> 248       -0.31718

 Excited State   3:      Singlet-A      3.0993 eV  400.04 nm  f=0.0066  <S**2>=0.000
     244 -> 247        0.68023
     246 -> 248        0.10667

 Excited State   4:      Singlet-A      3.3047 eV  375.17 nm  f=0.1150  <S**2>=0.000
     239 -> 247       -0.29586
     239 -> 249        0.20768
     240 -> 247        0.39532
     240 -> 249       -0.22695
     241 -> 247        0.16349
     245 -> 247        0.12040
     246 -> 248        0.27872

 Excited State   5:      Singlet-A      3.4044 eV  364.19 nm  f=0.3013  <S**2>=0.000
     239 -> 247        0.10938
     240 -> 247       -0.17515
     240 -> 249        0.11808
     241 -> 247        0.20826
     243 -> 247       -0.33345
     243 -> 249       -0.12816
     243 -> 250       -0.16990
     245 -> 247        0.20920
     246 -> 248        0.41118

 The electronic state is 1-A.
 Alpha  occ. eigenvalues --  -46.88077 -19.26509 -19.26026 -19.20667 -19.19710
 Alpha  occ. eigenvalues --  -19.19130 -19.16751 -14.42352 -14.42165 -14.39736
 Alpha  occ. eigenvalues --  -14.39225 -10.40269 -10.39006 -10.34605 -10.33145
 Alpha  occ. eigenvalues --  -10.33104 -10.32013 -10.31651 -10.31458 -10.30781
 Alpha  occ. eigenvalues --  -10.30600 -10.30193 -10.29951 -10.29820 -10.29547
 Alpha  occ. eigenvalues --  -10.29516 -10.28749 -10.28503 -10.28278 -10.28213
 Alpha  occ. eigenvalues --  -10.28135 -10.27722 -10.27614 -10.27595 -10.27200
 Alpha  occ. eigenvalues --  -10.27068 -10.26970 -10.26859 -10.26790 -10.26563
 Alpha  occ. eigenvalues --  -10.26412 -10.26347 -10.26250 -10.26148 -10.26037
 Alpha  occ. eigenvalues --  -10.25930 -10.25870 -10.25768 -10.25743 -10.25732
 Alpha  occ. eigenvalues --  -10.25685 -10.25593 -10.25574 -10.25140 -10.25097
 Alpha  occ. eigenvalues --  -10.25077 -10.24944 -10.24793 -10.24574 -10.24441
 Alpha  occ. eigenvalues --  -10.24433 -10.24301 -10.24269 -10.24254 -10.24150
 Alpha  occ. eigenvalues --  -10.24074  -3.16829  -1.91704  -1.91322  -1.91112
 Alpha  occ. eigenvalues --   -1.18238  -1.15935  -1.09652  -1.07564  -1.07518
 Alpha  occ. eigenvalues --   -1.07498  -1.04993  -1.03694  -1.02720  -1.00400
 Alpha  occ. eigenvalues --   -0.93432  -0.90596  -0.89859  -0.89404  -0.89266
 Alpha  occ. eigenvalues --   -0.88803  -0.88407  -0.87870  -0.87804  -0.87009
 Alpha  occ. eigenvalues --   -0.86230  -0.85372  -0.84856  -0.83989  -0.83486
 Alpha  occ. eigenvalues --   -0.82585  -0.82280  -0.81530  -0.80734  -0.80377
 Alpha  occ. eigenvalues --   -0.80244  -0.78807  -0.78167  -0.77014  -0.76606
 Alpha  occ. eigenvalues --   -0.75809  -0.75621  -0.75338  -0.74594  -0.74250
 Alpha  occ. eigenvalues --   -0.73393  -0.72567  -0.71965  -0.71037  -0.69754
 Alpha  occ. eigenvalues --   -0.68980  -0.68381  -0.67059  -0.66775  -0.66279
 Alpha  occ. eigenvalues --   -0.65523  -0.65329  -0.64600  -0.64320  -0.64044
 Alpha  occ. eigenvalues --   -0.63703  -0.63679  -0.63473  -0.62628  -0.60373
 Alpha  occ. eigenvalues --   -0.59819  -0.59174  -0.58763  -0.58661  -0.58078
 Alpha  occ. eigenvalues --   -0.57537  -0.56310  -0.56085  -0.55894  -0.55758
 Alpha  occ. eigenvalues --   -0.55429  -0.54855  -0.54559  -0.54419  -0.54228
 Alpha  occ. eigenvalues --   -0.53765  -0.53320  -0.53155  -0.52961  -0.52827
 Alpha  occ. eigenvalues --   -0.52562  -0.52205  -0.52057  -0.51968  -0.51665
 Alpha  occ. eigenvalues --   -0.51483  -0.51301  -0.51238  -0.50971  -0.50687
 Alpha  occ. eigenvalues --   -0.50372  -0.50300  -0.50137  -0.49804  -0.49703
 Alpha  occ. eigenvalues --   -0.49560  -0.49433  -0.49326  -0.48881  -0.48683
 Alpha  occ. eigenvalues --   -0.48478  -0.48314  -0.48299  -0.48060  -0.47915
 Alpha  occ. eigenvalues --   -0.47569  -0.47191  -0.47127  -0.46821  -0.46640
 Alpha  occ. eigenvalues --   -0.46604  -0.46551  -0.46425  -0.46240  -0.46198
 Alpha  occ. eigenvalues --   -0.46119  -0.45861  -0.45499  -0.45437  -0.45199
 Alpha  occ. eigenvalues --   -0.44807  -0.44595  -0.44418  -0.44307  -0.44272
 Alpha  occ. eigenvalues --   -0.44070  -0.43871  -0.43522  -0.43136  -0.43022
 Alpha  occ. eigenvalues --   -0.42682  -0.42484  -0.42184  -0.42031  -0.41918
 Alpha  occ. eigenvalues --   -0.41774  -0.41602  -0.41539  -0.41262  -0.41217
 Alpha  occ. eigenvalues --   -0.40934  -0.40734  -0.40367  -0.40248  -0.40141
 Alpha  occ. eigenvalues --   -0.40033  -0.39966  -0.39742  -0.39362  -0.39016
 Alpha  occ. eigenvalues --   -0.38868  -0.38642  -0.38158  -0.37731  -0.37502
 Alpha  occ. eigenvalues --   -0.37338  -0.37273  -0.36973  -0.36522  -0.36398
 Alpha  occ. eigenvalues --   -0.35849  -0.35294  -0.34769  -0.34644  -0.34358
 Alpha  occ. eigenvalues --   -0.33812  -0.33125  -0.32544  -0.31577  -0.30764
 Alpha  occ. eigenvalues --   -0.30451  -0.30065  -0.29513  -0.27990  -0.24317
 Alpha  occ. eigenvalues --   -0.21074
 Alpha virt. eigenvalues --   -0.08786  -0.02231  -0.00242   0.02254   0.02603
 Alpha virt. eigenvalues --    0.03496   0.04546   0.05005   0.05444   0.06744
 Alpha virt. eigenvalues --    0.07991   0.08071   0.08162   0.08727   0.09056

 Mulliken charges:
               1
     1  Mg   0.847157
     2  C    0.001813
     3  C   -0.086829
     4  C   -0.034389
     5  C   -0.104968
     6  N   -0.223649
     7  C   -0.070116
     8  C   -0.028350
     9  C   -0.100908
    10  C    0.054199
    11  C    0.105282
    12  C    0.045610
    13  C    0.109385
    14  C    0.138967
    15  O   -0.259397
    16  O   -0.360058
    17  N   -0.414343
    18  C    0.152051
    19  C   -0.170767
    20  C   -0.039241
    21  C    0.160078
    22  C    0.120437
    23  C   -0.018713
    24  O   -0.241845
    25  C    0.053401
    26  N   -0.405539
    27  C    0.018798
    28  C   -0.081342
    29  C    0.000405
    30  C    0.120585
    31  C    0.098515
    32  C    0.040819
    33  C   -0.004561
    34  N   -0.337531
    35  C    0.116669
    36  C   -0.166608
    37  C    0.032477
    38  C    0.127153
    39  C    0.126535
    40  C    0.026875
    41  O   -0.170073
    42  C   -0.001506
    43  C    0.165024
    44  O   -0.236838
    45  O   -0.297398
    46  C    0.173550
    47  C    0.280525
    48  C   -0.125707
    49  C   -0.209220
    50  C    0.070334
    51  C    0.070634
    52  C    0.044618
    53  C    0.062570
    54  C   -0.191189
    55  C    0.094404
    56  C    0.053516
    57  C   -0.049556
    58  C    0.098352
    59  C   -0.157586
    60  C    0.037353
    61  C    0.061570
    62  C    0.039112
    63  C    0.060333
    64  C   -0.146240
    65  C    0.037836
    66  C    0.043434
    67  H   -0.015725
    68  H    0.005815
    69  H   -0.034213
    70  H    0.012537
    71  H    0.001779
    72  H    0.019927
    73  H    0.014741
    74  H    0.023629
    75  H    0.012671
    76  H    0.032517
    77  H    0.032282
    78  H    0.036913
    79  H    0.043447
    80  H    0.017541
    81  H    0.024221
    82  H    0.040577
    83  H    0.016637
    84  H    0.018863
    85  H    0.019100
    86  H    0.002888
    87  H    0.027160
    88  H    0.017748
    89  H    0.009521
    90  H    0.007296
    91  H    0.004701
    92  H    0.018377
    93  H    0.028081
    94  H    0.016776
    95  H    0.043477
    96  H    0.049697
    97  H    0.015605
    98  H    0.047061
    99  H    0.038288
   100  H    0.054021
   101  H    0.028126
   102  H    0.038327
   103  H    0.047309
   104  H    0.000741
   105  H    0.016501
   106  H    0.014561
   107  H    0.027138
   108  H    0.022240
   109  H   -0.021589
   110  H   -0.000600
   111  H    0.011376
   112  H   -0.012306
   113  H    0.008453
   114  H   -0.008319
   115  H    0.007985
   116  H    0.009792
   117  H   -0.003277
   118  H   -0.009519
   119  H   -0.019374
   120  H   -0.003566
   121  H    0.029705
   122  H    0.001215
   123  H   -0.007388
   124  H   -0.017761
   125  H    0.009687
   126  H   -0.006704
   127  H    0.003825
   128  H   -0.024685
   129  H   -0.004435
   130  H   -0.004668
   131  H    0.008957
   132  H   -0.011043
   133  H   -0.017004
   134  H    0.002915
   135  H    0.001936
   136  H    0.012288
   137  H    0.000547
   138  H   -0.003497
   139  H    0.010407
   140  H    0.001835
 Sum of Mulliken charges =  -0.00000

 Dipole moment (field-independent basis, Debye):
    X=              3.4372    Y=              1.3970    Z=             -0.1354  Tot=              3.7127
 Quadrupole moment (field-independent basis, Debye-Ang):
   XX=           -375.5724   YY=           -443.3835   ZZ=           -404.1006
   XY=            -37.2537   XZ=             -6.3135   YZ=              6.5307

 Normal termination of Gaussian 16 at Wed May  4 03:40:15 2022.
