 Gaussian 16, Revision A.03,
 Gaussian 16:  ES64L-G16RevA.03 25-Dec-2016

 ---------------------------------
 #p PBE1PBE/Def2SVP td=(nstates=5)
 ---------------------------------

 ------------------------------------------------------
 step_1351_chromophore_15 TDDFT with PBE1PBE functional
 ------------------------------------------------------
 Symbolic Z-matrix:
 Charge =  0 Multiplicity = 1

                         Standard orientation:
 ---------------------------------------------------------------------
 Center     Atomic      Atomic             Coordinates (Angstroms)
 Number     Number       Type             X           Y           Z
 ---------------------------------------------------------------------
      1         12           0       -4.792519    1.083054   -0.094754
      2          6           0       -4.561418   -2.498685    0.456569
      3          6           0       -1.253465    0.944503   -0.122190
      4          6           0       -4.810754    4.453988    0.122457
      5          6           0       -8.048447    0.775971    0.507904
      6          7           0       -3.205039   -0.590963    0.299275
      7          6           0       -3.309109   -1.919014    0.229771
      8          6           0       -1.991895   -2.628056   -0.026117
      9          6           0       -0.993162   -1.497967    0.351844
     10          6           0       -1.875835   -0.264206    0.216520
     11          6           0       -0.343585   -1.708230    1.744710
     12          6           0       -1.917599   -3.141476   -1.518916
     13          6           0       -0.650823   -3.943310   -2.129863
     14          6           0        0.571526   -4.137050   -1.290009
     15          8           0        0.666551   -4.977545   -0.389177
     16          8           0        1.668715   -3.376921   -1.707262
     17          7           0       -3.277676    2.506426   -0.251814
     18          6           0       -1.888745    2.261483   -0.225253
     19          6           0       -1.217468    3.499095   -0.480881
     20          6           0       -2.275359    4.560763   -0.472653
     21          6           0       -3.554244    3.855885   -0.176841
     22          6           0        0.238498    3.620376   -0.711004
     23          6           0       -2.183420    6.025191   -0.589187
     24          8           0       -3.188800    6.751151   -0.536774
     25          6           0       -0.860648    6.661531   -0.715773
     26          7           0       -6.205921    2.374771    0.276692
     27          6           0       -6.031896    3.747370    0.336051
     28          6           0       -7.361900    4.475056    0.590249
     29          6           0       -8.387063    3.323956    0.488292
     30          6           0       -7.556091    2.067390    0.385715
     31          6           0       -7.438249    5.341591    1.815229
     32          6           0       -9.556512    3.556025   -0.504243
     33          6           0      -10.967863    3.397074    0.134340
     34          7           0       -6.139997   -0.528449    0.239340
     35          6           0       -7.496439   -0.450873    0.419462
     36          6           0       -8.042871   -1.838673    0.695974
     37          6           0       -6.915451   -2.669501    0.648344
     38          6           0       -5.746190   -1.819219    0.457196
     39          6           0       -9.425914   -2.252775    1.113840
     40          6           0       -6.486961   -3.985562    0.872071
     41          8           0       -7.169233   -4.986879    1.079733
     42          6           0       -4.908945   -3.934279    0.935550
     43          6           0       -4.336077   -5.072526    0.242778
     44          8           0       -4.674259   -5.543633   -0.849186
     45          8           0       -3.277284   -5.450184    0.954735
     46          6           0       -2.507980   -6.517257    0.300812
     47          6           0        2.940362   -3.806577   -1.028264
     48          6           0        4.094694   -2.965147   -1.611891
     49          6           0        5.411840   -3.031806   -1.316081
     50          6           0        5.968345   -4.183235   -0.494505
     51          6           0        6.477271   -2.162975   -2.073224
     52          6           0        6.379877   -0.651591   -1.817529
     53          6           0        6.863947    0.152027   -3.101190
     54          6           0        7.891592    1.267045   -2.762737
     55          6           0        7.809503    2.460889   -3.690685
     56          6           0        9.295211    0.602525   -2.791352
     57          6           0        9.786739    0.298388   -1.343888
     58          6           0       11.011998    1.267835   -1.031064
     59          6           0       10.584898    2.410566   -0.095433
     60          6           0       10.678734    3.772429   -0.814760
     61          6           0       11.225813    2.419796    1.239965
     62          6           0       10.508383    1.539935    2.346701
     63          6           0       11.464652    0.386070    2.853890
     64          6           0       11.640584    0.350912    4.379451
     65          6           0       13.144143    0.334406    4.679357
     66          6           0       10.857111   -0.898332    4.871874
     67          1           0       -0.173414    0.859718   -0.258236
     68          1           0       -4.936845    5.500931    0.404927
     69          1           0       -9.126774    0.657197    0.636803
     70          1           0       -1.813753   -3.496770    0.606530
     71          1           0       -0.205369   -1.490056   -0.401563
     72          1           0        0.660065   -2.088350    1.554246
     73          1           0       -0.911397   -2.520606    2.200162
     74          1           0       -0.373061   -0.796137    2.339865
     75          1           0       -2.102427   -2.290362   -2.173231
     76          1           0       -2.755213   -3.830098   -1.628249
     77          1           0       -0.316006   -3.536449   -3.083869
     78          1           0       -0.960837   -4.976948   -2.282375
     79          1           0        0.665019    4.024404    0.206138
     80          1           0        0.364244    4.371171   -1.492191
     81          1           0        0.632926    2.681218   -1.100237
     82          1           0       -0.487532    6.635898   -1.740209
     83          1           0       -0.173507    6.157398   -0.036806
     84          1           0       -0.887290    7.723011   -0.469339
     85          1           0       -7.452103    5.115071   -0.287681
     86          1           0       -8.815180    3.388141    1.489156
     87          1           0       -6.435804    5.598543    2.158421
     88          1           0       -8.131299    4.928778    2.548831
     89          1           0       -7.844091    6.287369    1.457741
     90          1           0       -9.411070    2.943481   -1.394464
     91          1           0       -9.552915    4.559790   -0.928853
     92          1           0      -11.418672    4.387621    0.192793
     93          1           0      -10.939027    2.902935    1.104889
     94          1           0      -11.568985    2.848337   -0.591533
     95          1           0       -9.320000   -3.063264    1.834828
     96          1           0      -10.080583   -2.519618    0.283974
     97          1           0       -9.715684   -1.324542    1.607118
     98          1           0       -4.742143   -4.106227    1.999173
     99          1           0       -2.863513   -7.547137    0.265624
    100          1           0       -1.634233   -6.422684    0.945665
    101          1           0       -2.335761   -6.390590   -0.768167
    102          1           0        3.152170   -4.847199   -1.273096
    103          1           0        2.922439   -3.697441    0.056593
    104          1           0        3.830264   -2.144172   -2.278540
    105          1           0        6.935009   -4.489651   -0.893839
    106          1           0        5.296705   -5.042170   -0.484229
    107          1           0        6.148339   -3.805174    0.511315
    108          1           0        6.564089   -2.517314   -3.100994
    109          1           0        7.410315   -2.553760   -1.666971
    110          1           0        7.079656   -0.342457   -1.040641
    111          1           0        5.337515   -0.375409   -1.657054
    112          1           0        5.969777    0.718772   -3.361649
    113          1           0        7.194541   -0.572239   -3.846302
    114          1           0        7.849373    1.691125   -1.760520
    115          1           0        8.670709    2.364260   -4.351097
    116          1           0        7.788919    3.306482   -3.002908
    117          1           0        6.865600    2.391258   -4.232986
    118          1           0        9.982872    1.150567   -3.436716
    119          1           0        9.289778   -0.388976   -3.242654
    120          1           0       10.109134   -0.743032   -1.356834
    121          1           0        9.024193    0.483568   -0.586940
    122          1           0       11.461765    1.763363   -1.890426
    123          1           0       11.605579    0.489848   -0.550381
    124          1           0        9.509264    2.354687    0.073203
    125          1           0        9.720932    4.280788   -0.706889
    126          1           0       10.864348    3.764886   -1.888143
    127          1           0       11.557765    4.331265   -0.491967
    128          1           0       11.092340    3.438401    1.603573
    129          1           0       12.307008    2.344026    1.120150
    130          1           0        9.653528    1.035108    1.897075
    131          1           0       10.121751    2.278123    3.049341
    132          1           0       12.468065    0.288839    2.439721
    133          1           0       11.054003   -0.554042    2.486357
    134          1           0       11.267818    1.228379    4.907086
    135          1           0       13.234843    1.059416    5.487686
    136          1           0       13.783749    0.571919    3.829950
    137          1           0       13.570844   -0.575551    5.100811
    138          1           0       11.210591   -1.166704    5.867324
    139          1           0       10.904246   -1.765398    4.213744
    140          1           0        9.797482   -0.693115    5.025724
 ---------------------------------------------------------------------

 SCF Done:  E(RPBE1PBE) =  -3005.29704305     A.U. after   15 cycles

 Excitation energies and oscillator strengths:

 Excited State   1:      Singlet-A      1.8031 eV  687.60 nm  f=0.3664  <S**2>=0.000
     245 -> 248       -0.17540
     246 -> 247        0.69331
     246 <- 247       -0.10962
 This state for optimization and/or second-order correction.
 Total Energy, E(TD-HF/TD-DFT) =  -3005.23077885
 Copying the excited state density for this state as the 1-particle RhoCI density.

 Excited State   2:      Singlet-A      2.1853 eV  567.37 nm  f=0.0734  <S**2>=0.000
     245 -> 247        0.63889
     246 -> 248        0.28190

 Excited State   3:      Singlet-A      2.7209 eV  455.68 nm  f=0.0116  <S**2>=0.000
     244 -> 247        0.69107

 Excited State   4:      Singlet-A      2.7802 eV  445.95 nm  f=0.0005  <S**2>=0.000
     243 -> 247        0.67821
     243 -> 249        0.11191
     243 -> 250        0.11196

 Excited State   5:      Singlet-A      2.8993 eV  427.63 nm  f=0.0041  <S**2>=0.000
     239 -> 247        0.12151
     241 -> 247        0.64430
     241 -> 249       -0.18933
     246 -> 248       -0.12147

 The electronic state is 1-A.
 Alpha  occ. eigenvalues --  -46.91495 -19.27025 -19.26716 -19.20916 -19.19831
 Alpha  occ. eigenvalues --  -19.19058 -19.17317 -14.41770 -14.41727 -14.39243
 Alpha  occ. eigenvalues --  -14.39125 -10.37297 -10.35848 -10.31465 -10.30546
 Alpha  occ. eigenvalues --  -10.30530 -10.29444 -10.29117 -10.28600 -10.28574
 Alpha  occ. eigenvalues --  -10.28143 -10.28063 -10.27986 -10.27705 -10.27099
 Alpha  occ. eigenvalues --  -10.26920 -10.26239 -10.26099 -10.25889 -10.25856
 Alpha  occ. eigenvalues --  -10.25817 -10.25679 -10.25372 -10.25359 -10.24909
 Alpha  occ. eigenvalues --  -10.24907 -10.24846 -10.24363 -10.24217 -10.24086
 Alpha  occ. eigenvalues --  -10.24082 -10.24061 -10.24016 -10.23841 -10.23623
 Alpha  occ. eigenvalues --  -10.23554 -10.23324 -10.23324 -10.23277 -10.23273
 Alpha  occ. eigenvalues --  -10.23250 -10.23162 -10.23060 -10.22825 -10.22771
 Alpha  occ. eigenvalues --  -10.22737 -10.22502 -10.22417 -10.22179 -10.22046
 Alpha  occ. eigenvalues --  -10.21901 -10.21841 -10.21827 -10.21738 -10.21582
 Alpha  occ. eigenvalues --  -10.21484  -3.13819  -1.86636  -1.86233  -1.86026
 Alpha  occ. eigenvalues --   -1.12900  -1.10711  -1.04103  -1.02513  -1.02369
 Alpha  occ. eigenvalues --   -1.02229  -0.99521  -0.98177  -0.97246  -0.95357
 Alpha  occ. eigenvalues --   -0.87591  -0.84714  -0.84003  -0.83698  -0.83460
 Alpha  occ. eigenvalues --   -0.82971  -0.82737  -0.82043  -0.81984  -0.81279
 Alpha  occ. eigenvalues --   -0.80551  -0.79683  -0.79073  -0.78223  -0.77778
 Alpha  occ. eigenvalues --   -0.76811  -0.76496  -0.75928  -0.74992  -0.74623
 Alpha  occ. eigenvalues --   -0.74443  -0.73010  -0.72514  -0.71456  -0.70808
 Alpha  occ. eigenvalues --   -0.69907  -0.69842  -0.69743  -0.68769  -0.68445
 Alpha  occ. eigenvalues --   -0.67728  -0.66943  -0.66402  -0.65368  -0.64040
 Alpha  occ. eigenvalues --   -0.63371  -0.62615  -0.61367  -0.61254  -0.60672
 Alpha  occ. eigenvalues --   -0.59827  -0.59761  -0.59159  -0.58591  -0.58427
 Alpha  occ. eigenvalues --   -0.58216  -0.57993  -0.57864  -0.56849  -0.54749
 Alpha  occ. eigenvalues --   -0.54331  -0.53833  -0.53309  -0.53025  -0.52567
 Alpha  occ. eigenvalues --   -0.52176  -0.50840  -0.50557  -0.50246  -0.50136
 Alpha  occ. eigenvalues --   -0.49915  -0.49344  -0.49106  -0.48993  -0.48801
 Alpha  occ. eigenvalues --   -0.48293  -0.47858  -0.47701  -0.47499  -0.47385
 Alpha  occ. eigenvalues --   -0.47176  -0.46768  -0.46628  -0.46515  -0.46052
 Alpha  occ. eigenvalues --   -0.45993  -0.45827  -0.45757  -0.45515  -0.45359
 Alpha  occ. eigenvalues --   -0.45059  -0.44846  -0.44670  -0.44515  -0.44224
 Alpha  occ. eigenvalues --   -0.44084  -0.44022  -0.43983  -0.43566  -0.43325
 Alpha  occ. eigenvalues --   -0.43170  -0.43020  -0.42909  -0.42718  -0.42524
 Alpha  occ. eigenvalues --   -0.42169  -0.41884  -0.41774  -0.41551  -0.41457
 Alpha  occ. eigenvalues --   -0.41306  -0.41219  -0.41069  -0.40939  -0.40863
 Alpha  occ. eigenvalues --   -0.40754  -0.40487  -0.40180  -0.40119  -0.39875
 Alpha  occ. eigenvalues --   -0.39517  -0.39360  -0.39148  -0.39058  -0.38971
 Alpha  occ. eigenvalues --   -0.38859  -0.38595  -0.38238  -0.37955  -0.37766
 Alpha  occ. eigenvalues --   -0.37622  -0.37431  -0.37055  -0.36809  -0.36777
 Alpha  occ. eigenvalues --   -0.36666  -0.36404  -0.36332  -0.36122  -0.35980
 Alpha  occ. eigenvalues --   -0.35760  -0.35593  -0.35220  -0.35207  -0.35010
 Alpha  occ. eigenvalues --   -0.34890  -0.34807  -0.34574  -0.34222  -0.33772
 Alpha  occ. eigenvalues --   -0.33642  -0.33622  -0.32956  -0.32673  -0.32516
 Alpha  occ. eigenvalues --   -0.32256  -0.32155  -0.31927  -0.31546  -0.31248
 Alpha  occ. eigenvalues --   -0.30769  -0.30257  -0.29874  -0.29508  -0.29168
 Alpha  occ. eigenvalues --   -0.28789  -0.28669  -0.27507  -0.26918  -0.25892
 Alpha  occ. eigenvalues --   -0.25557  -0.25343  -0.24548  -0.23966  -0.21163
 Alpha  occ. eigenvalues --   -0.18719
 Alpha virt. eigenvalues --   -0.11298  -0.05719  -0.04343  -0.02202  -0.01147
 Alpha virt. eigenvalues --   -0.00109   0.00004   0.00705   0.00992   0.03285
 Alpha virt. eigenvalues --    0.03852   0.04501   0.04555   0.05394   0.05597

 Mulliken charges:
               1
     1  Mg   0.997767
     2  C    0.003229
     3  C   -0.076163
     4  C   -0.023760
     5  C   -0.104479
     6  N   -0.322813
     7  C   -0.001165
     8  C   -0.107497
     9  C   -0.178963
    10  C    0.090126
    11  C    0.048183
    12  C    0.001846
    13  C    0.032071
    14  C    0.201881
    15  O   -0.290099
    16  O   -0.389786
    17  N   -0.523539
    18  C    0.179367
    19  C   -0.196108
    20  C   -0.083476
    21  C    0.188217
    22  C    0.054487
    23  C    0.030200
    24  O   -0.276431
    25  C   -0.019734
    26  N   -0.515154
    27  C    0.057575
    28  C   -0.154151
    29  C   -0.076219
    30  C    0.149658
    31  C    0.037787
    32  C   -0.015326
    33  C   -0.078912
    34  N   -0.458128
    35  C    0.141119
    36  C   -0.184545
    37  C   -0.017449
    38  C    0.166036
    39  C    0.071229
    40  C    0.126898
    41  O   -0.218878
    42  C   -0.114121
    43  C    0.256905
    44  O   -0.273555
    45  O   -0.330683
    46  C    0.115566
    47  C    0.238344
    48  C   -0.130791
    49  C   -0.251629
    50  C    0.000956
    51  C    0.009563
    52  C   -0.021022
    53  C    0.003010
    54  C   -0.280041
    55  C    0.033775
    56  C    0.011152
    57  C   -0.118247
    58  C    0.047799
    59  C   -0.245213
    60  C   -0.019526
    61  C    0.004860
    62  C   -0.022445
    63  C    0.008516
    64  C   -0.239657
    65  C   -0.019529
    66  C   -0.017438
    67  H    0.014485
    68  H    0.036203
    69  H    0.000552
    70  H    0.054130
    71  H    0.040844
    72  H    0.049006
    73  H    0.043307
    74  H    0.050951
    75  H    0.044622
    76  H    0.069415
    77  H    0.063145
    78  H    0.070277
    79  H    0.072743
    80  H    0.048798
    81  H    0.052806
    82  H    0.067513
    83  H    0.044838
    84  H    0.047797
    85  H    0.057073
    86  H    0.042752
    87  H    0.054174
    88  H    0.045087
    89  H    0.037806
    90  H    0.039585
    91  H    0.036075
    92  H    0.045894
    93  H    0.053651
    94  H    0.044909
    95  H    0.069798
    96  H    0.075208
    97  H    0.041930
    98  H    0.083910
    99  H    0.060451
   100  H    0.074071
   101  H    0.050808
   102  H    0.064751
   103  H    0.073325
   104  H    0.030633
   105  H    0.043511
   106  H    0.041664
   107  H    0.056037
   108  H    0.052924
   109  H    0.012321
   110  H    0.037074
   111  H    0.043632
   112  H    0.021861
   113  H    0.039603
   114  H    0.031723
   115  H    0.035121
   116  H    0.037477
   117  H    0.024359
   118  H    0.020406
   119  H    0.013679
   120  H    0.029072
   121  H    0.058768
   122  H    0.032472
   123  H    0.026408
   124  H    0.021903
   125  H    0.036451
   126  H    0.020314
   127  H    0.031099
   128  H    0.010678
   129  H    0.027307
   130  H    0.029010
   131  H    0.039138
   132  H    0.018842
   133  H    0.015193
   134  H    0.039066
   135  H    0.029489
   136  H    0.038313
   137  H    0.027665
   138  H    0.024878
   139  H    0.037020
   140  H    0.030745
 Sum of Mulliken charges =  -0.00000

 Dipole moment (field-independent basis, Debye):
    X=              3.8725    Y=              2.0584    Z=             -0.1932  Tot=              4.3898
 Quadrupole moment (field-independent basis, Debye-Ang):
   XX=           -374.4557   YY=           -439.0782   ZZ=           -401.7312
   XY=            -40.7133   XZ=             -6.0495   YZ=              6.5581

 Normal termination of Gaussian 16 at Wed May  4 03:56:09 2022.
