 Gaussian 16, Revision A.03,
 Gaussian 16:  ES64L-G16RevA.03 25-Dec-2016

 --------------------------------
 #p wB97XD/Def2SVP td=(nstates=5)
 --------------------------------

 -----------------------------------------------------
 step_1351_chromophore_15 TDDFT with wB97XD functional
 -----------------------------------------------------
 Symbolic Z-matrix:
 Charge =  0 Multiplicity = 1

                         Standard orientation:
 ---------------------------------------------------------------------
 Center     Atomic      Atomic             Coordinates (Angstroms)
 Number     Number       Type             X           Y           Z
 ---------------------------------------------------------------------
      1         12           0       -4.792519    1.083054   -0.094754
      2          6           0       -4.561418   -2.498685    0.456569
      3          6           0       -1.253465    0.944503   -0.122190
      4          6           0       -4.810754    4.453988    0.122457
      5          6           0       -8.048447    0.775971    0.507904
      6          7           0       -3.205039   -0.590963    0.299275
      7          6           0       -3.309109   -1.919014    0.229771
      8          6           0       -1.991895   -2.628056   -0.026117
      9          6           0       -0.993162   -1.497967    0.351844
     10          6           0       -1.875835   -0.264206    0.216520
     11          6           0       -0.343585   -1.708230    1.744710
     12          6           0       -1.917599   -3.141476   -1.518916
     13          6           0       -0.650823   -3.943310   -2.129863
     14          6           0        0.571526   -4.137050   -1.290009
     15          8           0        0.666551   -4.977545   -0.389177
     16          8           0        1.668715   -3.376921   -1.707262
     17          7           0       -3.277676    2.506426   -0.251814
     18          6           0       -1.888745    2.261483   -0.225253
     19          6           0       -1.217468    3.499095   -0.480881
     20          6           0       -2.275359    4.560763   -0.472653
     21          6           0       -3.554244    3.855885   -0.176841
     22          6           0        0.238498    3.620376   -0.711004
     23          6           0       -2.183420    6.025191   -0.589187
     24          8           0       -3.188800    6.751151   -0.536774
     25          6           0       -0.860648    6.661531   -0.715773
     26          7           0       -6.205921    2.374771    0.276692
     27          6           0       -6.031896    3.747370    0.336051
     28          6           0       -7.361900    4.475056    0.590249
     29          6           0       -8.387063    3.323956    0.488292
     30          6           0       -7.556091    2.067390    0.385715
     31          6           0       -7.438249    5.341591    1.815229
     32          6           0       -9.556512    3.556025   -0.504243
     33          6           0      -10.967863    3.397074    0.134340
     34          7           0       -6.139997   -0.528449    0.239340
     35          6           0       -7.496439   -0.450873    0.419462
     36          6           0       -8.042871   -1.838673    0.695974
     37          6           0       -6.915451   -2.669501    0.648344
     38          6           0       -5.746190   -1.819219    0.457196
     39          6           0       -9.425914   -2.252775    1.113840
     40          6           0       -6.486961   -3.985562    0.872071
     41          8           0       -7.169233   -4.986879    1.079733
     42          6           0       -4.908945   -3.934279    0.935550
     43          6           0       -4.336077   -5.072526    0.242778
     44          8           0       -4.674259   -5.543633   -0.849186
     45          8           0       -3.277284   -5.450184    0.954735
     46          6           0       -2.507980   -6.517257    0.300812
     47          6           0        2.940362   -3.806577   -1.028264
     48          6           0        4.094694   -2.965147   -1.611891
     49          6           0        5.411840   -3.031806   -1.316081
     50          6           0        5.968345   -4.183235   -0.494505
     51          6           0        6.477271   -2.162975   -2.073224
     52          6           0        6.379877   -0.651591   -1.817529
     53          6           0        6.863947    0.152027   -3.101190
     54          6           0        7.891592    1.267045   -2.762737
     55          6           0        7.809503    2.460889   -3.690685
     56          6           0        9.295211    0.602525   -2.791352
     57          6           0        9.786739    0.298388   -1.343888
     58          6           0       11.011998    1.267835   -1.031064
     59          6           0       10.584898    2.410566   -0.095433
     60          6           0       10.678734    3.772429   -0.814760
     61          6           0       11.225813    2.419796    1.239965
     62          6           0       10.508383    1.539935    2.346701
     63          6           0       11.464652    0.386070    2.853890
     64          6           0       11.640584    0.350912    4.379451
     65          6           0       13.144143    0.334406    4.679357
     66          6           0       10.857111   -0.898332    4.871874
     67          1           0       -0.173414    0.859718   -0.258236
     68          1           0       -4.936845    5.500931    0.404927
     69          1           0       -9.126774    0.657197    0.636803
     70          1           0       -1.813753   -3.496770    0.606530
     71          1           0       -0.205369   -1.490056   -0.401563
     72          1           0        0.660065   -2.088350    1.554246
     73          1           0       -0.911397   -2.520606    2.200162
     74          1           0       -0.373061   -0.796137    2.339865
     75          1           0       -2.102427   -2.290362   -2.173231
     76          1           0       -2.755213   -3.830098   -1.628249
     77          1           0       -0.316006   -3.536449   -3.083869
     78          1           0       -0.960837   -4.976948   -2.282375
     79          1           0        0.665019    4.024404    0.206138
     80          1           0        0.364244    4.371171   -1.492191
     81          1           0        0.632926    2.681218   -1.100237
     82          1           0       -0.487532    6.635898   -1.740209
     83          1           0       -0.173507    6.157398   -0.036806
     84          1           0       -0.887290    7.723011   -0.469339
     85          1           0       -7.452103    5.115071   -0.287681
     86          1           0       -8.815180    3.388141    1.489156
     87          1           0       -6.435804    5.598543    2.158421
     88          1           0       -8.131299    4.928778    2.548831
     89          1           0       -7.844091    6.287369    1.457741
     90          1           0       -9.411070    2.943481   -1.394464
     91          1           0       -9.552915    4.559790   -0.928853
     92          1           0      -11.418672    4.387621    0.192793
     93          1           0      -10.939027    2.902935    1.104889
     94          1           0      -11.568985    2.848337   -0.591533
     95          1           0       -9.320000   -3.063264    1.834828
     96          1           0      -10.080583   -2.519618    0.283974
     97          1           0       -9.715684   -1.324542    1.607118
     98          1           0       -4.742143   -4.106227    1.999173
     99          1           0       -2.863513   -7.547137    0.265624
    100          1           0       -1.634233   -6.422684    0.945665
    101          1           0       -2.335761   -6.390590   -0.768167
    102          1           0        3.152170   -4.847199   -1.273096
    103          1           0        2.922439   -3.697441    0.056593
    104          1           0        3.830264   -2.144172   -2.278540
    105          1           0        6.935009   -4.489651   -0.893839
    106          1           0        5.296705   -5.042170   -0.484229
    107          1           0        6.148339   -3.805174    0.511315
    108          1           0        6.564089   -2.517314   -3.100994
    109          1           0        7.410315   -2.553760   -1.666971
    110          1           0        7.079656   -0.342457   -1.040641
    111          1           0        5.337515   -0.375409   -1.657054
    112          1           0        5.969777    0.718772   -3.361649
    113          1           0        7.194541   -0.572239   -3.846302
    114          1           0        7.849373    1.691125   -1.760520
    115          1           0        8.670709    2.364260   -4.351097
    116          1           0        7.788919    3.306482   -3.002908
    117          1           0        6.865600    2.391258   -4.232986
    118          1           0        9.982872    1.150567   -3.436716
    119          1           0        9.289778   -0.388976   -3.242654
    120          1           0       10.109134   -0.743032   -1.356834
    121          1           0        9.024193    0.483568   -0.586940
    122          1           0       11.461765    1.763363   -1.890426
    123          1           0       11.605579    0.489848   -0.550381
    124          1           0        9.509264    2.354687    0.073203
    125          1           0        9.720932    4.280788   -0.706889
    126          1           0       10.864348    3.764886   -1.888143
    127          1           0       11.557765    4.331265   -0.491967
    128          1           0       11.092340    3.438401    1.603573
    129          1           0       12.307008    2.344026    1.120150
    130          1           0        9.653528    1.035108    1.897075
    131          1           0       10.121751    2.278123    3.049341
    132          1           0       12.468065    0.288839    2.439721
    133          1           0       11.054003   -0.554042    2.486357
    134          1           0       11.267818    1.228379    4.907086
    135          1           0       13.234843    1.059416    5.487686
    136          1           0       13.783749    0.571919    3.829950
    137          1           0       13.570844   -0.575551    5.100811
    138          1           0       11.210591   -1.166704    5.867324
    139          1           0       10.904246   -1.765398    4.213744
    140          1           0        9.797482   -0.693115    5.025724
 ---------------------------------------------------------------------

 SCF Done:  E(RwB97XD) =  -3007.80732170     A.U. after   19 cycles

 Excitation energies and oscillator strengths:

 Excited State   1:      Singlet-A      1.6313 eV  760.05 nm  f=0.3764  <S**2>=0.000
     245 -> 248        0.18009
     246 -> 247        0.68393
     245 <- 248        0.11552
 This state for optimization and/or second-order correction.
 Total Energy, E(TD-HF/TD-DFT) =  -3007.74737356
 Copying the excited state density for this state as the 1-particle RhoCI density.

 Excited State   2:      Singlet-A      2.1475 eV  577.35 nm  f=0.0739  <S**2>=0.000
     245 -> 247        0.62144
     246 -> 248       -0.31862

 Excited State   3:      Singlet-A      3.1547 eV  393.02 nm  f=0.0066  <S**2>=0.000
     241 -> 247       -0.10611
     244 -> 247        0.66656
     244 -> 249        0.11844
     246 -> 248        0.12563

 Excited State   4:      Singlet-A      3.3053 eV  375.10 nm  f=0.1142  <S**2>=0.000
     239 -> 247       -0.24705
     239 -> 249        0.19122
     240 -> 247        0.38231
     240 -> 249       -0.24620
     241 -> 247        0.23679
     241 -> 249       -0.11445
     245 -> 247        0.11929
     246 -> 248        0.27704

 Excited State   5:      Singlet-A      3.4106 eV  363.52 nm  f=0.3806  <S**2>=0.000
     240 -> 247       -0.34149
     240 -> 249        0.15702
     241 -> 247        0.26262
     245 -> 247        0.21855
     246 -> 248        0.46182

 The electronic state is 1-A.
 Alpha  occ. eigenvalues --  -46.94425 -19.31754 -19.31265 -19.25598 -19.24714
 Alpha  occ. eigenvalues --  -19.24286 -19.21696 -14.46966 -14.46779 -14.44386
 Alpha  occ. eigenvalues --  -14.43786 -10.44097 -10.42874 -10.38697 -10.37030
 Alpha  occ. eigenvalues --  -10.36997 -10.36118 -10.35728 -10.35252 -10.34913
 Alpha  occ. eigenvalues --  -10.34569 -10.34161 -10.34085 -10.33898 -10.33652
 Alpha  occ. eigenvalues --  -10.33447 -10.32696 -10.32545 -10.32379 -10.32371
 Alpha  occ. eigenvalues --  -10.32235 -10.31744 -10.31659 -10.31659 -10.31217
 Alpha  occ. eigenvalues --  -10.31098 -10.30969 -10.30822 -10.30742 -10.30587
 Alpha  occ. eigenvalues --  -10.30364 -10.30258 -10.30204 -10.29997 -10.29980
 Alpha  occ. eigenvalues --  -10.29883 -10.29858 -10.29766 -10.29629 -10.29595
 Alpha  occ. eigenvalues --  -10.29563 -10.29527 -10.29495 -10.29075 -10.29055
 Alpha  occ. eigenvalues --  -10.29046 -10.28752 -10.28721 -10.28499 -10.28365
 Alpha  occ. eigenvalues --  -10.28252 -10.28207 -10.28166 -10.28128 -10.27964
 Alpha  occ. eigenvalues --  -10.27877  -3.20599  -1.94166  -1.93763  -1.93555
 Alpha  occ. eigenvalues --   -1.20456  -1.18099  -1.11971  -1.09797  -1.09725
 Alpha  occ. eigenvalues --   -1.09610  -1.07020  -1.05749  -1.04764  -1.02349
 Alpha  occ. eigenvalues --   -0.95485  -0.92358  -0.91655  -0.91266  -0.91119
 Alpha  occ. eigenvalues --   -0.90603  -0.90337  -0.89809  -0.89622  -0.88955
 Alpha  occ. eigenvalues --   -0.88109  -0.87261  -0.86785  -0.85826  -0.85379
 Alpha  occ. eigenvalues --   -0.84494  -0.84148  -0.83426  -0.82601  -0.82266
 Alpha  occ. eigenvalues --   -0.82121  -0.80743  -0.80087  -0.78928  -0.78552
 Alpha  occ. eigenvalues --   -0.77582  -0.77475  -0.77276  -0.76411  -0.76075
 Alpha  occ. eigenvalues --   -0.75333  -0.74563  -0.73943  -0.72978  -0.71735
 Alpha  occ. eigenvalues --   -0.70968  -0.70232  -0.68926  -0.68711  -0.68232
 Alpha  occ. eigenvalues --   -0.67381  -0.67296  -0.66593  -0.66104  -0.66026
 Alpha  occ. eigenvalues --   -0.65691  -0.65487  -0.65463  -0.64450  -0.62346
 Alpha  occ. eigenvalues --   -0.61794  -0.61172  -0.60727  -0.60636  -0.60067
 Alpha  occ. eigenvalues --   -0.59532  -0.58278  -0.58090  -0.57797  -0.57710
 Alpha  occ. eigenvalues --   -0.57360  -0.56788  -0.56512  -0.56332  -0.56156
 Alpha  occ. eigenvalues --   -0.55675  -0.55307  -0.55062  -0.54836  -0.54712
 Alpha  occ. eigenvalues --   -0.54482  -0.54092  -0.53914  -0.53860  -0.53661
 Alpha  occ. eigenvalues --   -0.53413  -0.53208  -0.53144  -0.52846  -0.52581
 Alpha  occ. eigenvalues --   -0.52270  -0.52178  -0.52016  -0.51733  -0.51649
 Alpha  occ. eigenvalues --   -0.51458  -0.51351  -0.51244  -0.50782  -0.50594
 Alpha  occ. eigenvalues --   -0.50407  -0.50201  -0.50166  -0.49962  -0.49853
 Alpha  occ. eigenvalues --   -0.49482  -0.49094  -0.49063  -0.48718  -0.48553
 Alpha  occ. eigenvalues --   -0.48546  -0.48444  -0.48302  -0.48144  -0.48128
 Alpha  occ. eigenvalues --   -0.47977  -0.47801  -0.47416  -0.47328  -0.47112
 Alpha  occ. eigenvalues --   -0.46798  -0.46522  -0.46381  -0.46229  -0.46153
 Alpha  occ. eigenvalues --   -0.46016  -0.45726  -0.45509  -0.45094  -0.44887
 Alpha  occ. eigenvalues --   -0.44592  -0.44402  -0.44106  -0.43900  -0.43840
 Alpha  occ. eigenvalues --   -0.43711  -0.43504  -0.43454  -0.43202  -0.43074
 Alpha  occ. eigenvalues --   -0.42804  -0.42634  -0.42230  -0.42165  -0.42037
 Alpha  occ. eigenvalues --   -0.41886  -0.41866  -0.41602  -0.41260  -0.40845
 Alpha  occ. eigenvalues --   -0.40705  -0.40551  -0.40013  -0.39762  -0.39618
 Alpha  occ. eigenvalues --   -0.39227  -0.39175  -0.38942  -0.38523  -0.38237
 Alpha  occ. eigenvalues --   -0.37692  -0.37138  -0.36722  -0.36587  -0.36319
 Alpha  occ. eigenvalues --   -0.35637  -0.35358  -0.34389  -0.33757  -0.32902
 Alpha  occ. eigenvalues --   -0.32666  -0.32116  -0.31365  -0.30074  -0.26257
 Alpha  occ. eigenvalues --   -0.22884
 Alpha virt. eigenvalues --   -0.07121  -0.00309   0.01785   0.04408   0.05536
 Alpha virt. eigenvalues --    0.05911   0.06637   0.07382   0.07719   0.09699
 Alpha virt. eigenvalues --    0.10447   0.11113   0.11228   0.12201   0.12370

 Mulliken charges:
               1
     1  Mg   0.984974
     2  C   -0.009741
     3  C   -0.088629
     4  C   -0.041361
     5  C   -0.119851
     6  N   -0.286536
     7  C   -0.030964
     8  C   -0.071285
     9  C   -0.149780
    10  C    0.070253
    11  C    0.057848
    12  C    0.009964
    13  C    0.049948
    14  C    0.188745
    15  O   -0.287077
    16  O   -0.388426
    17  N   -0.493323
    18  C    0.164329
    19  C   -0.186029
    20  C   -0.081817
    21  C    0.178465
    22  C    0.068196
    23  C    0.026740
    24  O   -0.273799
    25  C   -0.009127
    26  N   -0.483670
    27  C    0.042495
    28  C   -0.127897
    29  C   -0.046381
    30  C    0.144252
    31  C    0.048540
    32  C   -0.006537
    33  C   -0.061437
    34  N   -0.423527
    35  C    0.136358
    36  C   -0.179069
    37  C   -0.010903
    38  C    0.158875
    39  C    0.084571
    40  C    0.106325
    41  O   -0.205640
    42  C   -0.072230
    43  C    0.231946
    44  O   -0.266319
    45  O   -0.327536
    46  C    0.130237
    47  C    0.252317
    48  C   -0.142117
    49  C   -0.237673
    50  C    0.017422
    51  C    0.028148
    52  C   -0.001468
    53  C    0.020257
    54  C   -0.242384
    55  C    0.046258
    56  C    0.019198
    57  C   -0.088965
    58  C    0.058520
    59  C   -0.209467
    60  C   -0.008357
    61  C    0.017771
    62  C   -0.006705
    63  C    0.024658
    64  C   -0.212731
    65  C   -0.009119
    66  C   -0.004826
    67  H    0.008622
    68  H    0.031548
    69  H   -0.007872
    70  H    0.034673
    71  H    0.027702
    72  H    0.043400
    73  H    0.035563
    74  H    0.046255
    75  H    0.038534
    76  H    0.056146
    77  H    0.060084
    78  H    0.063203
    79  H    0.066475
    80  H    0.040098
    81  H    0.046768
    82  H    0.062836
    83  H    0.037112
    84  H    0.045256
    85  H    0.045879
    86  H    0.025840
    87  H    0.048433
    88  H    0.038971
    89  H    0.032047
    90  H    0.032269
    91  H    0.029763
    92  H    0.040816
    93  H    0.047270
    94  H    0.039195
    95  H    0.067235
    96  H    0.073574
    97  H    0.035837
    98  H    0.078387
    99  H    0.058062
   100  H    0.074025
   101  H    0.043420
   102  H    0.058115
   103  H    0.068537
   104  H    0.027473
   105  H    0.037912
   106  H    0.035583
   107  H    0.050249
   108  H    0.045479
   109  H    0.002205
   110  H    0.024505
   111  H    0.034992
   112  H    0.012335
   113  H    0.029476
   114  H    0.013719
   115  H    0.028547
   116  H    0.032605
   117  H    0.018248
   118  H    0.010162
   119  H    0.003564
   120  H    0.022411
   121  H    0.039555
   122  H    0.022576
   123  H    0.017560
   124  H    0.003866
   125  H    0.031783
   126  H    0.013004
   127  H    0.025107
   128  H    0.001474
   129  H    0.018705
   130  H    0.019611
   131  H    0.033017
   132  H    0.008158
   133  H    0.005655
   134  H    0.029489
   135  H    0.023913
   136  H    0.032216
   137  H    0.022161
   138  H    0.018686
   139  H    0.030409
   140  H    0.024607
 Sum of Mulliken charges =  -0.00000

 Dipole moment (field-independent basis, Debye):
    X=              3.3517    Y=              1.2713    Z=             -0.1132  Tot=              3.5865
 Quadrupole moment (field-independent basis, Debye-Ang):
   XX=           -369.0073   YY=           -439.6226   ZZ=           -401.2414
   XY=            -36.8949   XZ=             -6.5949   YZ=              6.2238

 Normal termination of Gaussian 16 at Wed May  4 04:25:34 2022.
