 Gaussian 16, Revision A.03,
 Gaussian 16:  ES64L-G16RevA.03 25-Dec-2016

 --------------------
 #p ZINDO=(nstates=5)
 --------------------

 ------------------------------
 step_1351_chromophore_15 ZINDO
 ------------------------------
 Symbolic Z-matrix:
 Charge =  0 Multiplicity = 1

                         Standard orientation:
 ---------------------------------------------------------------------
 Center     Atomic      Atomic             Coordinates (Angstroms)
 Number     Number       Type             X           Y           Z
 ---------------------------------------------------------------------
      1         12           0       -4.792519    1.083054   -0.094754
      2          6           0       -4.561418   -2.498685    0.456569
      3          6           0       -1.253465    0.944503   -0.122190
      4          6           0       -4.810754    4.453988    0.122457
      5          6           0       -8.048447    0.775971    0.507904
      6          7           0       -3.205039   -0.590963    0.299275
      7          6           0       -3.309109   -1.919014    0.229771
      8          6           0       -1.991895   -2.628056   -0.026117
      9          6           0       -0.993162   -1.497967    0.351844
     10          6           0       -1.875835   -0.264206    0.216520
     11          6           0       -0.343585   -1.708230    1.744710
     12          6           0       -1.917599   -3.141476   -1.518916
     13          6           0       -0.650823   -3.943310   -2.129863
     14          6           0        0.571526   -4.137050   -1.290009
     15          8           0        0.666551   -4.977545   -0.389177
     16          8           0        1.668715   -3.376921   -1.707262
     17          7           0       -3.277676    2.506426   -0.251814
     18          6           0       -1.888745    2.261483   -0.225253
     19          6           0       -1.217468    3.499095   -0.480881
     20          6           0       -2.275359    4.560763   -0.472653
     21          6           0       -3.554244    3.855885   -0.176841
     22          6           0        0.238498    3.620376   -0.711004
     23          6           0       -2.183420    6.025191   -0.589187
     24          8           0       -3.188800    6.751151   -0.536774
     25          6           0       -0.860648    6.661531   -0.715773
     26          7           0       -6.205921    2.374771    0.276692
     27          6           0       -6.031896    3.747370    0.336051
     28          6           0       -7.361900    4.475056    0.590249
     29          6           0       -8.387063    3.323956    0.488292
     30          6           0       -7.556091    2.067390    0.385715
     31          6           0       -7.438249    5.341591    1.815229
     32          6           0       -9.556512    3.556025   -0.504243
     33          6           0      -10.967863    3.397074    0.134340
     34          7           0       -6.139997   -0.528449    0.239340
     35          6           0       -7.496439   -0.450873    0.419462
     36          6           0       -8.042871   -1.838673    0.695974
     37          6           0       -6.915451   -2.669501    0.648344
     38          6           0       -5.746190   -1.819219    0.457196
     39          6           0       -9.425914   -2.252775    1.113840
     40          6           0       -6.486961   -3.985562    0.872071
     41          8           0       -7.169233   -4.986879    1.079733
     42          6           0       -4.908945   -3.934279    0.935550
     43          6           0       -4.336077   -5.072526    0.242778
     44          8           0       -4.674259   -5.543633   -0.849186
     45          8           0       -3.277284   -5.450184    0.954735
     46          6           0       -2.507980   -6.517257    0.300812
     47          6           0        2.940362   -3.806577   -1.028264
     48          6           0        4.094694   -2.965147   -1.611891
     49          6           0        5.411840   -3.031806   -1.316081
     50          6           0        5.968345   -4.183235   -0.494505
     51          6           0        6.477271   -2.162975   -2.073224
     52          6           0        6.379877   -0.651591   -1.817529
     53          6           0        6.863947    0.152027   -3.101190
     54          6           0        7.891592    1.267045   -2.762737
     55          6           0        7.809503    2.460889   -3.690685
     56          6           0        9.295211    0.602525   -2.791352
     57          6           0        9.786739    0.298388   -1.343888
     58          6           0       11.011998    1.267835   -1.031064
     59          6           0       10.584898    2.410566   -0.095433
     60          6           0       10.678734    3.772429   -0.814760
     61          6           0       11.225813    2.419796    1.239965
     62          6           0       10.508383    1.539935    2.346701
     63          6           0       11.464652    0.386070    2.853890
     64          6           0       11.640584    0.350912    4.379451
     65          6           0       13.144143    0.334406    4.679357
     66          6           0       10.857111   -0.898332    4.871874
     67          1           0       -0.173414    0.859718   -0.258236
     68          1           0       -4.936845    5.500931    0.404927
     69          1           0       -9.126774    0.657197    0.636803
     70          1           0       -1.813753   -3.496770    0.606530
     71          1           0       -0.205369   -1.490056   -0.401563
     72          1           0        0.660065   -2.088350    1.554246
     73          1           0       -0.911397   -2.520606    2.200162
     74          1           0       -0.373061   -0.796137    2.339865
     75          1           0       -2.102427   -2.290362   -2.173231
     76          1           0       -2.755213   -3.830098   -1.628249
     77          1           0       -0.316006   -3.536449   -3.083869
     78          1           0       -0.960837   -4.976948   -2.282375
     79          1           0        0.665019    4.024404    0.206138
     80          1           0        0.364244    4.371171   -1.492191
     81          1           0        0.632926    2.681218   -1.100237
     82          1           0       -0.487532    6.635898   -1.740209
     83          1           0       -0.173507    6.157398   -0.036806
     84          1           0       -0.887290    7.723011   -0.469339
     85          1           0       -7.452103    5.115071   -0.287681
     86          1           0       -8.815180    3.388141    1.489156
     87          1           0       -6.435804    5.598543    2.158421
     88          1           0       -8.131299    4.928778    2.548831
     89          1           0       -7.844091    6.287369    1.457741
     90          1           0       -9.411070    2.943481   -1.394464
     91          1           0       -9.552915    4.559790   -0.928853
     92          1           0      -11.418672    4.387621    0.192793
     93          1           0      -10.939027    2.902935    1.104889
     94          1           0      -11.568985    2.848337   -0.591533
     95          1           0       -9.320000   -3.063264    1.834828
     96          1           0      -10.080583   -2.519618    0.283974
     97          1           0       -9.715684   -1.324542    1.607118
     98          1           0       -4.742143   -4.106227    1.999173
     99          1           0       -2.863513   -7.547137    0.265624
    100          1           0       -1.634233   -6.422684    0.945665
    101          1           0       -2.335761   -6.390590   -0.768167
    102          1           0        3.152170   -4.847199   -1.273096
    103          1           0        2.922439   -3.697441    0.056593
    104          1           0        3.830264   -2.144172   -2.278540
    105          1           0        6.935009   -4.489651   -0.893839
    106          1           0        5.296705   -5.042170   -0.484229
    107          1           0        6.148339   -3.805174    0.511315
    108          1           0        6.564089   -2.517314   -3.100994
    109          1           0        7.410315   -2.553760   -1.666971
    110          1           0        7.079656   -0.342457   -1.040641
    111          1           0        5.337515   -0.375409   -1.657054
    112          1           0        5.969777    0.718772   -3.361649
    113          1           0        7.194541   -0.572239   -3.846302
    114          1           0        7.849373    1.691125   -1.760520
    115          1           0        8.670709    2.364260   -4.351097
    116          1           0        7.788919    3.306482   -3.002908
    117          1           0        6.865600    2.391258   -4.232986
    118          1           0        9.982872    1.150567   -3.436716
    119          1           0        9.289778   -0.388976   -3.242654
    120          1           0       10.109134   -0.743032   -1.356834
    121          1           0        9.024193    0.483568   -0.586940
    122          1           0       11.461765    1.763363   -1.890426
    123          1           0       11.605579    0.489848   -0.550381
    124          1           0        9.509264    2.354687    0.073203
    125          1           0        9.720932    4.280788   -0.706889
    126          1           0       10.864348    3.764886   -1.888143
    127          1           0       11.557765    4.331265   -0.491967
    128          1           0       11.092340    3.438401    1.603573
    129          1           0       12.307008    2.344026    1.120150
    130          1           0        9.653528    1.035108    1.897075
    131          1           0       10.121751    2.278123    3.049341
    132          1           0       12.468065    0.288839    2.439721
    133          1           0       11.054003   -0.554042    2.486357
    134          1           0       11.267818    1.228379    4.907086
    135          1           0       13.234843    1.059416    5.487686
    136          1           0       13.783749    0.571919    3.829950
    137          1           0       13.570844   -0.575551    5.100811
    138          1           0       11.210591   -1.166704    5.867324
    139          1           0       10.904246   -1.765398    4.213744
    140          1           0        9.797482   -0.693115    5.025724
 ---------------------------------------------------------------------

 SCF Done:  E(RZINDO/S) =  -474.216045577     A.U. after   19 cycles

 Excitation energies and oscillator strengths:

 Excited State   1:      Singlet-A      1.3283 eV  933.43 nm  f=0.5431  <S**2>=0.000
     175 ->178         0.15659
     176 ->177         0.67272
 This state for optimization and/or second-order correction.
 Total Energy, E(CIS/TDA) =  -474.167232619
 Copying the excited state density for this state as the 1-particle RhoCI density.

 Excited State   2:      Singlet-A      1.9161 eV  647.07 nm  f=0.0204  <S**2>=0.000
     175 ->177         0.51431
     176 ->178        -0.44611

 Excited State   3:      Singlet-A      2.8081 eV  441.52 nm  f=0.0266  <S**2>=0.000
     168 ->177        -0.38241
     168 ->179         0.42470
     168 ->181        -0.10449
     168 ->186         0.18049

 Excited State   4:      Singlet-A      2.9304 eV  423.09 nm  f=0.9114  <S**2>=0.000
     170 ->177        -0.10943
     174 ->177        -0.12845
     175 ->177         0.37078
     176 ->178         0.47972
     176 ->179         0.24685

 Excited State   5:      Singlet-A      3.0028 eV  412.89 nm  f=0.0058  <S**2>=0.000
     171 ->177         0.24459
     171 ->179         0.18612
     171 ->181         0.35582
     171 ->182         0.12117
     171 ->184        -0.10486
     171 ->186         0.17282
     171 ->188         0.17808
     171 ->189         0.12983
     171 ->201        -0.11088
     172 ->177         0.11699
     172 ->181         0.15107
     174 ->177        -0.17239

 The electronic state is 1-A.
 Alpha  occ. eigenvalues --   -1.85157  -1.81656  -1.77963  -1.75810  -1.71196
 Alpha  occ. eigenvalues --   -1.69388  -1.67432  -1.60634  -1.60526  -1.56611
 Alpha  occ. eigenvalues --   -1.55256  -1.51417  -1.48991  -1.47453  -1.46496
 Alpha  occ. eigenvalues --   -1.45011  -1.41749  -1.41259  -1.38501  -1.37286
 Alpha  occ. eigenvalues --   -1.36677  -1.34994  -1.32878  -1.30595  -1.29943
 Alpha  occ. eigenvalues --   -1.29240  -1.25446  -1.21747  -1.20923  -1.19840
 Alpha  occ. eigenvalues --   -1.18184  -1.16913  -1.15643  -1.13432  -1.12606
 Alpha  occ. eigenvalues --   -1.11807  -1.10843  -1.09582  -1.05436  -1.04030
 Alpha  occ. eigenvalues --   -1.02218  -1.00634  -0.98916  -0.98098  -0.97615
 Alpha  occ. eigenvalues --   -0.96414  -0.95274  -0.93714  -0.93105  -0.92704
 Alpha  occ. eigenvalues --   -0.91808  -0.91318  -0.90073  -0.87344  -0.87225
 Alpha  occ. eigenvalues --   -0.86127  -0.84961  -0.83702  -0.82655  -0.81468
 Alpha  occ. eigenvalues --   -0.80074  -0.78096  -0.77259  -0.76927  -0.75641
 Alpha  occ. eigenvalues --   -0.74829  -0.73929  -0.73637  -0.73183  -0.72847
 Alpha  occ. eigenvalues --   -0.72336  -0.72182  -0.71512  -0.71227  -0.70572
 Alpha  occ. eigenvalues --   -0.69538  -0.68930  -0.68506  -0.68137  -0.67940
 Alpha  occ. eigenvalues --   -0.67204  -0.67178  -0.66294  -0.66002  -0.65464
 Alpha  occ. eigenvalues --   -0.65192  -0.64925  -0.64752  -0.64728  -0.63898
 Alpha  occ. eigenvalues --   -0.63652  -0.63342  -0.63095  -0.62407  -0.61943
 Alpha  occ. eigenvalues --   -0.60925  -0.60839  -0.60619  -0.60115  -0.60033
 Alpha  occ. eigenvalues --   -0.59872  -0.59753  -0.59377  -0.59126  -0.59037
 Alpha  occ. eigenvalues --   -0.58323  -0.58086  -0.57564  -0.57346  -0.56724
 Alpha  occ. eigenvalues --   -0.56216  -0.55663  -0.55642  -0.55265  -0.55148
 Alpha  occ. eigenvalues --   -0.54011  -0.53607  -0.53249  -0.53067  -0.52758
 Alpha  occ. eigenvalues --   -0.52588  -0.52329  -0.51983  -0.51750  -0.51659
 Alpha  occ. eigenvalues --   -0.51250  -0.51048  -0.51017  -0.50819  -0.50614
 Alpha  occ. eigenvalues --   -0.50507  -0.49724  -0.49591  -0.49213  -0.49005
 Alpha  occ. eigenvalues --   -0.48849  -0.48625  -0.48319  -0.48097  -0.48003
 Alpha  occ. eigenvalues --   -0.47723  -0.47373  -0.47177  -0.46856  -0.46740
 Alpha  occ. eigenvalues --   -0.46039  -0.45898  -0.45638  -0.45435  -0.44858
 Alpha  occ. eigenvalues --   -0.44538  -0.44479  -0.43819  -0.43733  -0.43068
 Alpha  occ. eigenvalues --   -0.42926  -0.42791  -0.42686  -0.42518  -0.41879
 Alpha  occ. eigenvalues --   -0.41654  -0.41158  -0.39828  -0.39510  -0.39195
 Alpha  occ. eigenvalues --   -0.38523  -0.37457  -0.36087  -0.34885  -0.34308
 Alpha  occ. eigenvalues --   -0.33133  -0.32384  -0.32350  -0.30076  -0.27029
 Alpha  occ. eigenvalues --   -0.21908
 Alpha virt. eigenvalues --   -0.08380  -0.02470  -0.01209   0.01154   0.01498
 Alpha virt. eigenvalues --    0.01633   0.02387   0.02897   0.04650   0.04822
 Alpha virt. eigenvalues --    0.06003   0.06452   0.07031   0.07564   0.08133

 Mulliken charges:
               1
     1  Mg   0.423098
     2  C   -0.053064
     3  C   -0.065733
     4  C   -0.060282
     5  C   -0.068657
     6  N   -0.279039
     7  C    0.188376
     8  C    0.007829
     9  C   -0.005551
    10  C    0.080597
    11  C   -0.051068
    12  C   -0.020245
    13  C    0.004865
    14  C    0.468984
    15  O   -0.530906
    16  O   -0.275218
    17  N   -0.326455
    18  C    0.047483
    19  C   -0.013374
    20  C   -0.097053
    21  C    0.138471
    22  C   -0.041195
    23  C    0.326459
    24  O   -0.567144
    25  C   -0.029392
    26  N   -0.271950
    27  C    0.096222
    28  C    0.001982
    29  C    0.005730
    30  C    0.183010
    31  C   -0.048471
    32  C   -0.028781
    33  C   -0.058889
    34  N   -0.343370
    35  C    0.150554
    36  C    0.062259
    37  C   -0.039345
    38  C    0.132480
    39  C   -0.033838
    40  C    0.332700
    41  O   -0.510862
    42  C    0.050917
    43  C    0.495166
    44  O   -0.529165
    45  O   -0.253586
    46  C    0.066264
    47  C    0.108961
    48  C   -0.089564
    49  C   -0.027922
    50  C   -0.045064
    51  C   -0.025751
    52  C   -0.039194
    53  C   -0.044290
    54  C   -0.020039
    55  C   -0.065994
    56  C   -0.046084
    57  C   -0.047519
    58  C   -0.048274
    59  C   -0.005440
    60  C   -0.064195
    61  C   -0.033887
    62  C   -0.038531
    63  C   -0.038110
    64  C   -0.006885
    65  C   -0.060616
    66  C   -0.055479
    67  H    0.033275
    68  H    0.059023
    69  H    0.008887
    70  H    0.040036
    71  H    0.022940
    72  H    0.024852
    73  H    0.022045
    74  H    0.031476
    75  H    0.027456
    76  H    0.030494
    77  H    0.039352
    78  H    0.046357
    79  H    0.037338
    80  H    0.020940
    81  H    0.028808
    82  H    0.039092
    83  H    0.027320
    84  H    0.029836
    85  H    0.029765
    86  H    0.030166
    87  H    0.034224
    88  H    0.026483
    89  H    0.015113
    90  H    0.021758
    91  H    0.021986
    92  H    0.022595
    93  H    0.027262
    94  H    0.018057
    95  H    0.045105
    96  H    0.050598
    97  H    0.027925
    98  H    0.059887
    99  H    0.049966
   100  H    0.033819
   101  H    0.047921
   102  H    0.052587
   103  H    0.058578
   104  H    0.029667
   105  H    0.022349
   106  H    0.025746
   107  H    0.029108
   108  H    0.034729
   109  H    0.009575
   110  H    0.031705
   111  H    0.028948
   112  H    0.011934
   113  H    0.036994
   114  H    0.025795
   115  H    0.029445
   116  H    0.023732
   117  H    0.019026
   118  H    0.022377
   119  H    0.006987
   120  H    0.015769
   121  H    0.031572
   122  H    0.034928
   123  H    0.018923
   124  H    0.013700
   125  H    0.019134
   126  H    0.011381
   127  H    0.017547
   128  H    0.001381
   129  H    0.025172
   130  H    0.019001
   131  H    0.030962
   132  H    0.025716
   133  H    0.011757
   134  H    0.027217
   135  H    0.010588
   136  H    0.023989
   137  H    0.016766
   138  H    0.008188
   139  H    0.024837
   140  H    0.013097
 Sum of Mulliken charges =  -0.00000

 Dipole moment (field-independent basis, Debye):
    X=              1.9571    Y=             -0.6379    Z=              0.8082  Tot=              2.2114
 N-N= 4.375816024495D+03 E-N= 0.000000000000D+00  KE=-9.425737805218D+03
 Leave Link  601 at Wed May  4 04:38:21 2022, MaxMem=  6710886400 cpu:               0.7 elap:               0.0
 (Enter /sw/apps/gaussian-16.0/g16/l9999.exe)
 1\1\GINC-BP1-COMPUTE096\SP\RZINDO CIS\STO-3G\C55H74Mg1N4O6\OF15641\04-
 May-2022\0\\#p ZINDO=(nstates=5)\\step_1351_chromophore_15 ZINDO\\0,1\
 Mg,0,46.127,34.81,28.249\C,0,44.352,32.733,30.641\C,0,46.145,37.19,30.
 872\C,0,47.111,37.095,25.964\C,0,45.417,32.481,25.984\N,0,45.187,34.91
 1,30.39\C,0,44.783,33.937,31.207\C,0,44.788,34.322,32.675\C,0,44.844,3
 5.871,32.553\C,0,45.395,36.038,31.143\C,0,43.474,36.547,32.822\C,0,46.
 005,33.646,33.423\C,0,46.309,33.842,35.001\C,0,45.469,34.787,35.8\O,0,

 Normal termination of Gaussian 16 at Wed May  4 04:38:21 2022.
