 Gaussian 16, Revision A.03,
 Gaussian 16:  ES64L-G16RevA.03 25-Dec-2016

 ------------------------------
 #p blyp/Def2SVP td=(nstates=5)
 ------------------------------

 -------------------------------------------------
 step_651_chromophore_5 TDDFT with blyp functional
 -------------------------------------------------
 Symbolic Z-matrix:
 Charge =  0 Multiplicity = 1

                         Standard orientation:
 ---------------------------------------------------------------------
 Center     Atomic      Atomic             Coordinates (Angstroms)
 Number     Number       Type             X           Y           Z
 ---------------------------------------------------------------------
      1         12           0        5.535008    0.529077   -0.065743
      2          6           0        4.109968   -2.695978    0.121023
      3          6           0        3.342922    1.156255   -2.725301
      4          6           0        6.092336    3.759576    0.181293
      5          6           0        6.881852   -0.202133    3.071115
      6          7           0        4.022612   -0.637199   -1.190113
      7          6           0        3.596739   -1.929734   -0.966611
      8          6           0        2.548565   -2.390391   -1.977365
      9          6           0        2.567836   -1.211256   -2.958669
     10          6           0        3.377224   -0.169995   -2.268830
     11          6           0        3.022663   -1.511641   -4.434197
     12          6           0        1.152403   -2.638231   -1.330915
     13          6           0        0.163622   -3.604779   -2.154477
     14          6           0       -1.166179   -2.991227   -2.645182
     15          8           0       -1.519179   -2.737750   -3.810681
     16          8           0       -2.020949   -2.837031   -1.544988
     17          7           0        5.005506    2.169011   -1.277275
     18          6           0        4.117096    2.231131   -2.300820
     19          6           0        3.984440    3.605125   -2.789849
     20          6           0        4.867198    4.348101   -1.970870
     21          6           0        5.432099    3.404181   -0.946532
     22          6           0        3.089695    4.059278   -3.827773
     23          6           0        5.242833    5.839540   -2.254741
     24          8           0        4.630687    6.509074   -3.088383
     25          6           0        6.373177    6.468658   -1.482479
     26          7           0        6.356967    1.667290    1.436114
     27          6           0        6.582183    2.994471    1.302839
     28          6           0        7.542707    3.583385    2.415933
     29          6           0        7.811436    2.206555    3.241131
     30          6           0        6.872710    1.142552    2.593009
     31          6           0        8.845351    4.173914    1.805196
     32          6           0        7.614169    2.248559    4.819768
     33          6           0        8.699820    1.644416    5.782218
     34          7           0        5.590713   -1.078812    1.315323
     35          6           0        6.245991   -1.241998    2.448742
     36          6           0        6.285935   -2.572155    2.925777
     37          6           0        5.371618   -3.217072    2.043881
     38          6           0        5.029028   -2.290093    1.072281
     39          6           0        7.039466   -3.033481    4.115015
     40          6           0        4.745218   -4.421441    1.679521
     41          8           0        4.894118   -5.532928    2.212602
     42          6           0        3.886688   -4.199388    0.413240
     43          6           0        4.474854   -5.051576   -0.628001
     44          8           0        4.033051   -6.159787   -0.971785
     45          8           0        5.551234   -4.480268   -1.286028
     46          6           0        5.856051   -5.187116   -2.541205
     47          6           0       -3.444080   -2.395263   -1.669314
     48          6           0       -3.604415   -1.126783   -0.865884
     49          6           0       -4.645990   -0.688810   -0.126134
     50          6           0       -5.966286   -1.579872    0.032734
     51          6           0       -4.546671    0.613148    0.629971
     52          6           0       -5.285075    1.820012   -0.056497
     53          6           0       -6.536991    2.325680    0.655790
     54          6           0       -7.841981    2.207373   -0.226712
     55          6           0       -7.988165    3.430942   -1.134098
     56          6           0       -9.028794    2.007052    0.749065
     57          6           0       -9.692959    0.678154    0.492538
     58          6           0      -10.775898    0.591198   -0.610116
     59          6           0      -12.271263    0.507133   -0.056323
     60          6           0      -13.346129    0.807858   -1.141130
     61          6           0      -12.485266   -0.880353    0.572858
     62          6           0      -13.232869   -0.804968    1.934397
     63          6           0      -14.711515   -0.974488    1.820190
     64          6           0      -15.311004    0.491288    2.084564
     65          6           0      -15.756204    0.674453    3.646392
     66          6           0      -16.587829    0.736189    1.152075
     67          1           0        2.665745    1.148186   -3.581083
     68          1           0        6.359944    4.808959    0.319481
     69          1           0        7.521646   -0.456055    3.918649
     70          1           0        2.826921   -3.306849   -2.499128
     71          1           0        1.561324   -0.814269   -3.092212
     72          1           0        2.234452   -1.106862   -5.068708
     73          1           0        3.023651   -2.590661   -4.590339
     74          1           0        3.944797   -0.988290   -4.687844
     75          1           0        0.654004   -1.672056   -1.406112
     76          1           0        1.231289   -2.958638   -0.291160
     77          1           0       -0.135766   -4.410736   -1.484418
     78          1           0        0.738457   -4.071340   -2.953908
     79          1           0        2.938785    5.138682   -3.836264
     80          1           0        2.115383    3.616674   -3.619891
     81          1           0        3.406007    3.726774   -4.816152
     82          1           0        7.117942    5.682276   -1.363644
     83          1           0        6.030317    6.767103   -0.491827
     84          1           0        6.749493    7.373922   -1.959929
     85          1           0        7.052585    4.378993    2.978186
     86          1           0        8.805543    1.819334    3.017855
     87          1           0        9.687168    3.693880    2.303237
     88          1           0        8.767681    5.253453    1.936669
     89          1           0        8.810652    3.972749    0.733982
     90          1           0        6.723391    1.650159    5.014133
     91          1           0        7.577524    3.315430    5.039550
     92          1           0        9.656669    1.553881    5.267533
     93          1           0        8.281619    0.650963    5.937211
     94          1           0        8.864929    2.273061    6.657964
     95          1           0        6.455023   -2.629549    4.941654
     96          1           0        8.053835   -2.635429    4.129843
     97          1           0        7.058007   -4.123933    4.101316
     98          1           0        2.860181   -4.550834    0.519084
     99          1           0        4.895859   -5.362769   -3.024741
    100          1           0        6.435230   -6.105833   -2.454160
    101          1           0        6.556698   -4.517058   -3.038339
    102          1           0       -4.052995   -3.150327   -1.172601
    103          1           0       -3.736234   -2.093245   -2.674765
    104          1           0       -2.759551   -0.441099   -0.935276
    105          1           0       -6.490539   -1.257588    0.932870
    106          1           0       -5.710273   -2.635496   -0.055985
    107          1           0       -6.566958   -1.208249   -0.796997
    108          1           0       -3.499397    0.869130    0.789918
    109          1           0       -4.999512    0.573649    1.621073
    110          1           0       -5.467039    1.493021   -1.080235
    111          1           0       -4.629130    2.675458   -0.218031
    112          1           0       -6.320695    3.342740    0.980523
    113          1           0       -6.699049    1.783223    1.586616
    114          1           0       -7.641062    1.375397   -0.900486
    115          1           0       -8.874325    3.997761   -0.847966
    116          1           0       -8.017991    3.198145   -2.198264
    117          1           0       -7.134712    4.100996   -1.035946
    118          1           0       -9.775724    2.794945    0.649152
    119          1           0       -8.706766    2.033255    1.789805
    120          1           0      -10.187703    0.411495    1.426696
    121          1           0       -8.918852   -0.089007    0.499410
    122          1           0      -10.463251   -0.214199   -1.274920
    123          1           0      -10.822662    1.561905   -1.102459
    124          1           0      -12.328577    1.251722    0.737626
    125          1           0      -13.954024   -0.084814   -1.285632
    126          1           0      -12.803753    1.046193   -2.056003
    127          1           0      -13.954053    1.697466   -0.972714
    128          1           0      -11.485917   -1.244365    0.815094
    129          1           0      -12.967222   -1.566988   -0.121842
    130          1           0      -12.901059    0.073975    2.487322
    131          1           0      -12.834209   -1.705724    2.401009
    132          1           0      -15.070682   -1.660896    2.587859
    133          1           0      -14.908113   -1.378255    0.827068
    134          1           0      -14.556060    1.259757    1.918101
    135          1           0      -15.999237   -0.268344    4.137913
    136          1           0      -16.514024    1.449917    3.759314
    137          1           0      -14.828382    1.036808    4.089277
    138          1           0      -16.401564    1.636144    0.566262
    139          1           0      -17.502857    1.068618    1.643034
    140          1           0      -16.687182   -0.013604    0.367200
 ---------------------------------------------------------------------

 SCF Done:  E(RB-LYP) =  -3007.36027756     A.U. after   21 cycles

 Excitation energies and oscillator strengths:

 Excited State   1:      Singlet-A      1.8354 eV  675.50 nm  f=0.2839  <S**2>=0.000
     245 -> 248        0.20839
     246 -> 247        0.67926
     246 <- 247       -0.13496
 This state for optimization and/or second-order correction.
 Total Energy, E(TD-HF/TD-DFT) =  -3007.29282640
 Copying the excited state density for this state as the 1-particle RhoCI density.

 Excited State   2:      Singlet-A      1.9111 eV  648.76 nm  f=0.0064  <S**2>=0.000
     244 -> 247        0.59410
     245 -> 247        0.36689

 Excited State   3:      Singlet-A      2.0384 eV  608.24 nm  f=0.0073  <S**2>=0.000
     243 -> 247        0.58985
     244 -> 247        0.23255
     245 -> 247       -0.27466
     246 -> 248        0.13842

 Excited State   4:      Singlet-A      2.0951 eV  591.78 nm  f=0.0230  <S**2>=0.000
     243 -> 247        0.38381
     244 -> 247       -0.27744
     245 -> 247        0.43141
     246 -> 248       -0.27461

 Excited State   5:      Singlet-A      2.3985 eV  516.92 nm  f=0.0003  <S**2>=0.000
     242 -> 247        0.70681

 The electronic state is 1-A.
 Alpha  occ. eigenvalues --  -46.27738 -18.82090 -18.81773 -18.77202 -18.76280
 Alpha  occ. eigenvalues --  -18.75999 -18.75068 -14.03960 -14.03794 -14.01614
 Alpha  occ. eigenvalues --  -14.00534 -10.04917 -10.03671 -10.00504  -9.99154
 Alpha  occ. eigenvalues --   -9.98597  -9.97704  -9.97703  -9.97022  -9.96963
 Alpha  occ. eigenvalues --   -9.96338  -9.96289  -9.95949  -9.95311  -9.94581
 Alpha  occ. eigenvalues --   -9.94501  -9.94470  -9.94397  -9.94277  -9.94266
 Alpha  occ. eigenvalues --   -9.94106  -9.93812  -9.93793  -9.93634  -9.93391
 Alpha  occ. eigenvalues --   -9.93303  -9.93209  -9.93133  -9.93029  -9.93010
 Alpha  occ. eigenvalues --   -9.92978  -9.92959  -9.92887  -9.92810  -9.92789
 Alpha  occ. eigenvalues --   -9.92776  -9.92495  -9.92487  -9.92167  -9.91888
 Alpha  occ. eigenvalues --   -9.91885  -9.91621  -9.91486  -9.91379  -9.91369
 Alpha  occ. eigenvalues --   -9.91198  -9.91140  -9.91010  -9.90980  -9.90921
 Alpha  occ. eigenvalues --   -9.90858  -9.90855  -9.90655  -9.90565  -9.90479
 Alpha  occ. eigenvalues --   -9.90417  -2.92414  -1.72822  -1.72287  -1.72140
 Alpha  occ. eigenvalues --   -0.97291  -0.95962  -0.91376  -0.90220  -0.88741
 Alpha  occ. eigenvalues --   -0.88513  -0.87862  -0.87025  -0.86467  -0.85633
 Alpha  occ. eigenvalues --   -0.76678  -0.73570  -0.73264  -0.72823  -0.72738
 Alpha  occ. eigenvalues --   -0.71931  -0.71658  -0.71309  -0.71113  -0.70395
 Alpha  occ. eigenvalues --   -0.69982  -0.69338  -0.68412  -0.68074  -0.67512
 Alpha  occ. eigenvalues --   -0.66399  -0.66174  -0.65536  -0.65024  -0.64778
 Alpha  occ. eigenvalues --   -0.64075  -0.62944  -0.62456  -0.61893  -0.61315
 Alpha  occ. eigenvalues --   -0.60743  -0.60346  -0.59831  -0.59504  -0.58935
 Alpha  occ. eigenvalues --   -0.58342  -0.57987  -0.57498  -0.56119  -0.54482
 Alpha  occ. eigenvalues --   -0.54376  -0.53702  -0.52811  -0.51992  -0.51860
 Alpha  occ. eigenvalues --   -0.51619  -0.51072  -0.51003  -0.50690  -0.50135
 Alpha  occ. eigenvalues --   -0.49682  -0.49540  -0.49282  -0.48204  -0.46860
 Alpha  occ. eigenvalues --   -0.46580  -0.46248  -0.45925  -0.45617  -0.44583
 Alpha  occ. eigenvalues --   -0.44130  -0.43842  -0.43456  -0.43118  -0.42635
 Alpha  occ. eigenvalues --   -0.42564  -0.41892  -0.41336  -0.41214  -0.41046
 Alpha  occ. eigenvalues --   -0.40876  -0.40679  -0.40635  -0.40275  -0.40155
 Alpha  occ. eigenvalues --   -0.39690  -0.39657  -0.39495  -0.39394  -0.39211
 Alpha  occ. eigenvalues --   -0.39083  -0.38633  -0.38603  -0.38528  -0.38403
 Alpha  occ. eigenvalues --   -0.38177  -0.38034  -0.37825  -0.37680  -0.37386
 Alpha  occ. eigenvalues --   -0.37048  -0.36958  -0.36824  -0.36716  -0.36574
 Alpha  occ. eigenvalues --   -0.36457  -0.36373  -0.36170  -0.36037  -0.35705
 Alpha  occ. eigenvalues --   -0.35545  -0.35413  -0.35392  -0.35138  -0.35082
 Alpha  occ. eigenvalues --   -0.35033  -0.34772  -0.34676  -0.34476  -0.34263
 Alpha  occ. eigenvalues --   -0.34235  -0.34182  -0.33659  -0.33434  -0.33254
 Alpha  occ. eigenvalues --   -0.33043  -0.32956  -0.32732  -0.32652  -0.32637
 Alpha  occ. eigenvalues --   -0.32298  -0.32222  -0.32049  -0.31988  -0.31744
 Alpha  occ. eigenvalues --   -0.31618  -0.31499  -0.31169  -0.30790  -0.30521
 Alpha  occ. eigenvalues --   -0.30479  -0.30336  -0.30209  -0.29915  -0.29801
 Alpha  occ. eigenvalues --   -0.29734  -0.29700  -0.29458  -0.29313  -0.29170
 Alpha  occ. eigenvalues --   -0.29063  -0.28803  -0.28402  -0.28301  -0.28243
 Alpha  occ. eigenvalues --   -0.27799  -0.27458  -0.27342  -0.27032  -0.26816
 Alpha  occ. eigenvalues --   -0.26701  -0.26535  -0.26238  -0.25889  -0.24992
 Alpha  occ. eigenvalues --   -0.24784  -0.24720  -0.24664  -0.24179  -0.23863
 Alpha  occ. eigenvalues --   -0.23006  -0.22416  -0.21960  -0.21261  -0.20874
 Alpha  occ. eigenvalues --   -0.20565  -0.20264  -0.18914  -0.18453  -0.17705
 Alpha  occ. eigenvalues --   -0.15960
 Alpha virt. eigenvalues --   -0.11451  -0.07832  -0.06644  -0.04952  -0.03979
 Alpha virt. eigenvalues --   -0.03704  -0.02674  -0.01826  -0.01579  -0.00087
 Alpha virt. eigenvalues --    0.00667   0.01344   0.01985   0.02026   0.02351

 Mulliken charges:
               1
     1  Mg   0.708087
     2  C    0.024492
     3  C   -0.084415
     4  C   -0.041124
     5  C   -0.144009
     6  N   -0.194474
     7  C   -0.078404
     8  C    0.034253
     9  C   -0.016806
    10  C   -0.020500
    11  C    0.134117
    12  C    0.095623
    13  C    0.142040
    14  C    0.087557
    15  O   -0.199236
    16  O   -0.314399
    17  N   -0.260617
    18  C    0.168392
    19  C   -0.136183
    20  C   -0.015890
    21  C    0.175847
    22  C    0.198690
    23  C   -0.064146
    24  O   -0.163704
    25  C    0.136245
    26  N   -0.253938
    27  C   -0.032451
    28  C   -0.001611
    29  C    0.001574
    30  C    0.066435
    31  C    0.127914
    32  C    0.059330
    33  C    0.054800
    34  N   -0.195974
    35  C    0.138749
    36  C   -0.221759
    37  C    0.167165
    38  C    0.045662
    39  C    0.198278
    40  C   -0.126878
    41  O   -0.149861
    42  C    0.096838
    43  C    0.104646
    44  O   -0.196907
    45  O   -0.282621
    46  C    0.223806
    47  C    0.373424
    48  C   -0.140807
    49  C   -0.165721
    50  C    0.121949
    51  C    0.152450
    52  C    0.058793
    53  C    0.083367
    54  C   -0.075626
    55  C    0.123557
    56  C    0.140378
    57  C    0.038549
    58  C    0.132377
    59  C   -0.106552
    60  C    0.133315
    61  C    0.093275
    62  C    0.055760
    63  C    0.145837
    64  C   -0.115180
    65  C    0.077842
    66  C    0.100436
    67  H   -0.067341
    68  H   -0.091450
    69  H   -0.072501
    70  H   -0.022817
    71  H   -0.018481
    72  H   -0.004664
    73  H   -0.004392
    74  H    0.002524
    75  H   -0.010919
    76  H    0.000014
    77  H    0.006183
    78  H   -0.007648
    79  H    0.007777
    80  H   -0.010823
    81  H   -0.001103
    82  H    0.005949
    83  H    0.025390
    84  H   -0.003705
    85  H   -0.011920
    86  H   -0.017605
    87  H    0.003546
    88  H   -0.004462
    89  H   -0.000010
    90  H   -0.006607
    91  H   -0.018291
    92  H   -0.015201
    93  H    0.007457
    94  H    0.002838
    95  H    0.009503
    96  H    0.002151
    97  H    0.014081
    98  H   -0.004427
    99  H    0.020601
   100  H    0.016929
   101  H    0.000861
   102  H   -0.006981
   103  H    0.020620
   104  H   -0.042411
   105  H    0.001678
   106  H    0.007207
   107  H    0.012998
   108  H   -0.030859
   109  H   -0.033280
   110  H   -0.030182
   111  H   -0.035284
   112  H   -0.031249
   113  H   -0.037089
   114  H   -0.028033
   115  H   -0.020894
   116  H   -0.017153
   117  H   -0.027703
   118  H   -0.044377
   119  H   -0.036980
   120  H   -0.049666
   121  H   -0.044545
   122  H   -0.024978
   123  H   -0.039066
   124  H   -0.038793
   125  H   -0.014975
   126  H   -0.030276
   127  H   -0.010241
   128  H   -0.041677
   129  H   -0.035972
   130  H   -0.022313
   131  H   -0.050487
   132  H   -0.028004
   133  H   -0.031781
   134  H   -0.012865
   135  H   -0.001230
   136  H   -0.004902
   137  H   -0.023525
   138  H   -0.036246
   139  H   -0.017997
   140  H   -0.013984
 Sum of Mulliken charges =  -0.00000

 Dipole moment (field-independent basis, Debye):
    X=              2.1833    Y=              4.2950    Z=              1.7064  Tot=              5.1113
 Quadrupole moment (field-independent basis, Debye-Ang):
   XX=           -354.7229   YY=           -458.0037   ZZ=           -409.0939
   XY=             22.0009   XZ=              3.1759   YZ=             30.2466

 Normal termination of Gaussian 16 at Sat Apr 30 09:33:07 2022.
