 Gaussian 16, Revision A.03,
 Gaussian 16:  ES64L-G16RevA.03 25-Dec-2016

 -----------------------------------
 #p cam-b3lyp/Def2SVP td=(nstates=5)
 -----------------------------------

 ------------------------------------------------------
 step_651_chromophore_5 TDDFT with cam-b3lyp functional
 ------------------------------------------------------
 Symbolic Z-matrix:
 Charge =  0 Multiplicity = 1

                         Standard orientation:
 ---------------------------------------------------------------------
 Center     Atomic      Atomic             Coordinates (Angstroms)
 Number     Number       Type             X           Y           Z
 ---------------------------------------------------------------------
      1         12           0        5.535008    0.529077   -0.065743
      2          6           0        4.109968   -2.695978    0.121023
      3          6           0        3.342922    1.156255   -2.725301
      4          6           0        6.092336    3.759576    0.181293
      5          6           0        6.881852   -0.202133    3.071115
      6          7           0        4.022612   -0.637199   -1.190113
      7          6           0        3.596739   -1.929734   -0.966611
      8          6           0        2.548565   -2.390391   -1.977365
      9          6           0        2.567836   -1.211256   -2.958669
     10          6           0        3.377224   -0.169995   -2.268830
     11          6           0        3.022663   -1.511641   -4.434197
     12          6           0        1.152403   -2.638231   -1.330915
     13          6           0        0.163622   -3.604779   -2.154477
     14          6           0       -1.166179   -2.991227   -2.645182
     15          8           0       -1.519179   -2.737750   -3.810681
     16          8           0       -2.020949   -2.837031   -1.544988
     17          7           0        5.005506    2.169011   -1.277275
     18          6           0        4.117096    2.231131   -2.300820
     19          6           0        3.984440    3.605125   -2.789849
     20          6           0        4.867198    4.348101   -1.970870
     21          6           0        5.432099    3.404181   -0.946532
     22          6           0        3.089695    4.059278   -3.827773
     23          6           0        5.242833    5.839540   -2.254741
     24          8           0        4.630687    6.509074   -3.088383
     25          6           0        6.373177    6.468658   -1.482479
     26          7           0        6.356967    1.667290    1.436114
     27          6           0        6.582183    2.994471    1.302839
     28          6           0        7.542707    3.583385    2.415933
     29          6           0        7.811436    2.206555    3.241131
     30          6           0        6.872710    1.142552    2.593009
     31          6           0        8.845351    4.173914    1.805196
     32          6           0        7.614169    2.248559    4.819768
     33          6           0        8.699820    1.644416    5.782218
     34          7           0        5.590713   -1.078812    1.315323
     35          6           0        6.245991   -1.241998    2.448742
     36          6           0        6.285935   -2.572155    2.925777
     37          6           0        5.371618   -3.217072    2.043881
     38          6           0        5.029028   -2.290093    1.072281
     39          6           0        7.039466   -3.033481    4.115015
     40          6           0        4.745218   -4.421441    1.679521
     41          8           0        4.894118   -5.532928    2.212602
     42          6           0        3.886688   -4.199388    0.413240
     43          6           0        4.474854   -5.051576   -0.628001
     44          8           0        4.033051   -6.159787   -0.971785
     45          8           0        5.551234   -4.480268   -1.286028
     46          6           0        5.856051   -5.187116   -2.541205
     47          6           0       -3.444080   -2.395263   -1.669314
     48          6           0       -3.604415   -1.126783   -0.865884
     49          6           0       -4.645990   -0.688810   -0.126134
     50          6           0       -5.966286   -1.579872    0.032734
     51          6           0       -4.546671    0.613148    0.629971
     52          6           0       -5.285075    1.820012   -0.056497
     53          6           0       -6.536991    2.325680    0.655790
     54          6           0       -7.841981    2.207373   -0.226712
     55          6           0       -7.988165    3.430942   -1.134098
     56          6           0       -9.028794    2.007052    0.749065
     57          6           0       -9.692959    0.678154    0.492538
     58          6           0      -10.775898    0.591198   -0.610116
     59          6           0      -12.271263    0.507133   -0.056323
     60          6           0      -13.346129    0.807858   -1.141130
     61          6           0      -12.485266   -0.880353    0.572858
     62          6           0      -13.232869   -0.804968    1.934397
     63          6           0      -14.711515   -0.974488    1.820190
     64          6           0      -15.311004    0.491288    2.084564
     65          6           0      -15.756204    0.674453    3.646392
     66          6           0      -16.587829    0.736189    1.152075
     67          1           0        2.665745    1.148186   -3.581083
     68          1           0        6.359944    4.808959    0.319481
     69          1           0        7.521646   -0.456055    3.918649
     70          1           0        2.826921   -3.306849   -2.499128
     71          1           0        1.561324   -0.814269   -3.092212
     72          1           0        2.234452   -1.106862   -5.068708
     73          1           0        3.023651   -2.590661   -4.590339
     74          1           0        3.944797   -0.988290   -4.687844
     75          1           0        0.654004   -1.672056   -1.406112
     76          1           0        1.231289   -2.958638   -0.291160
     77          1           0       -0.135766   -4.410736   -1.484418
     78          1           0        0.738457   -4.071340   -2.953908
     79          1           0        2.938785    5.138682   -3.836264
     80          1           0        2.115383    3.616674   -3.619891
     81          1           0        3.406007    3.726774   -4.816152
     82          1           0        7.117942    5.682276   -1.363644
     83          1           0        6.030317    6.767103   -0.491827
     84          1           0        6.749493    7.373922   -1.959929
     85          1           0        7.052585    4.378993    2.978186
     86          1           0        8.805543    1.819334    3.017855
     87          1           0        9.687168    3.693880    2.303237
     88          1           0        8.767681    5.253453    1.936669
     89          1           0        8.810652    3.972749    0.733982
     90          1           0        6.723391    1.650159    5.014133
     91          1           0        7.577524    3.315430    5.039550
     92          1           0        9.656669    1.553881    5.267533
     93          1           0        8.281619    0.650963    5.937211
     94          1           0        8.864929    2.273061    6.657964
     95          1           0        6.455023   -2.629549    4.941654
     96          1           0        8.053835   -2.635429    4.129843
     97          1           0        7.058007   -4.123933    4.101316
     98          1           0        2.860181   -4.550834    0.519084
     99          1           0        4.895859   -5.362769   -3.024741
    100          1           0        6.435230   -6.105833   -2.454160
    101          1           0        6.556698   -4.517058   -3.038339
    102          1           0       -4.052995   -3.150327   -1.172601
    103          1           0       -3.736234   -2.093245   -2.674765
    104          1           0       -2.759551   -0.441099   -0.935276
    105          1           0       -6.490539   -1.257588    0.932870
    106          1           0       -5.710273   -2.635496   -0.055985
    107          1           0       -6.566958   -1.208249   -0.796997
    108          1           0       -3.499397    0.869130    0.789918
    109          1           0       -4.999512    0.573649    1.621073
    110          1           0       -5.467039    1.493021   -1.080235
    111          1           0       -4.629130    2.675458   -0.218031
    112          1           0       -6.320695    3.342740    0.980523
    113          1           0       -6.699049    1.783223    1.586616
    114          1           0       -7.641062    1.375397   -0.900486
    115          1           0       -8.874325    3.997761   -0.847966
    116          1           0       -8.017991    3.198145   -2.198264
    117          1           0       -7.134712    4.100996   -1.035946
    118          1           0       -9.775724    2.794945    0.649152
    119          1           0       -8.706766    2.033255    1.789805
    120          1           0      -10.187703    0.411495    1.426696
    121          1           0       -8.918852   -0.089007    0.499410
    122          1           0      -10.463251   -0.214199   -1.274920
    123          1           0      -10.822662    1.561905   -1.102459
    124          1           0      -12.328577    1.251722    0.737626
    125          1           0      -13.954024   -0.084814   -1.285632
    126          1           0      -12.803753    1.046193   -2.056003
    127          1           0      -13.954053    1.697466   -0.972714
    128          1           0      -11.485917   -1.244365    0.815094
    129          1           0      -12.967222   -1.566988   -0.121842
    130          1           0      -12.901059    0.073975    2.487322
    131          1           0      -12.834209   -1.705724    2.401009
    132          1           0      -15.070682   -1.660896    2.587859
    133          1           0      -14.908113   -1.378255    0.827068
    134          1           0      -14.556060    1.259757    1.918101
    135          1           0      -15.999237   -0.268344    4.137913
    136          1           0      -16.514024    1.449917    3.759314
    137          1           0      -14.828382    1.036808    4.089277
    138          1           0      -16.401564    1.636144    0.566262
    139          1           0      -17.502857    1.068618    1.643034
    140          1           0      -16.687182   -0.013604    0.367200
 ---------------------------------------------------------------------

 SCF Done:  E(RCAM-B3LYP) =  -3007.15187108     A.U. after   17 cycles

 Excitation energies and oscillator strengths:

 Excited State   1:      Singlet-A      1.8034 eV  687.51 nm  f=0.3583  <S**2>=0.000
     245 -> 248       -0.18986
     246 -> 247        0.68172
     245 <- 248       -0.10420
 This state for optimization and/or second-order correction.
 Total Energy, E(TD-HF/TD-DFT) =  -3007.08559787
 Copying the excited state density for this state as the 1-particle RhoCI density.

 Excited State   2:      Singlet-A      2.3225 eV  533.85 nm  f=0.0294  <S**2>=0.000
     245 -> 247        0.57887
     246 -> 248        0.39311

 Excited State   3:      Singlet-A      3.4063 eV  363.98 nm  f=0.6715  <S**2>=0.000
     241 -> 247       -0.20198
     245 -> 247       -0.35886
     246 -> 248        0.55491
     245 <- 247        0.10004

 Excited State   4:      Singlet-A      3.5015 eV  354.09 nm  f=0.0295  <S**2>=0.000
     240 -> 247        0.10471
     241 -> 249       -0.14276
     242 -> 247        0.49592
     242 -> 249       -0.30269
     242 -> 251       -0.19974
     244 -> 247       -0.13882
     246 -> 248        0.10354

 Excited State   5:      Singlet-A      3.5815 eV  346.18 nm  f=0.0068  <S**2>=0.000
     239 -> 247        0.10850
     239 -> 251       -0.10161
     241 -> 247       -0.41621
     242 -> 247        0.21946
     244 -> 247        0.45012

 The electronic state is 1-A.
 Alpha  occ. eigenvalues --  -46.89360 -19.24888 -19.24608 -19.20203 -19.19516
 Alpha  occ. eigenvalues --  -19.19293 -19.17900 -14.42915 -14.42723 -14.40299
 Alpha  occ. eigenvalues --  -14.38710 -10.40350 -10.39040 -10.36043 -10.34155
 Alpha  occ. eigenvalues --  -10.32698 -10.32680 -10.31585 -10.31276 -10.31266
 Alpha  occ. eigenvalues --  -10.31160 -10.31023 -10.30812 -10.29529 -10.28707
 Alpha  occ. eigenvalues --  -10.28603 -10.28578 -10.28509 -10.28493 -10.28219
 Alpha  occ. eigenvalues --  -10.28028 -10.27975 -10.27918 -10.27884 -10.27822
 Alpha  occ. eigenvalues --  -10.27464 -10.27376 -10.27312 -10.27084 -10.27027
 Alpha  occ. eigenvalues --  -10.26819 -10.26788 -10.26782 -10.26764 -10.26760
 Alpha  occ. eigenvalues --  -10.26707 -10.26171 -10.26130 -10.25881 -10.25662
 Alpha  occ. eigenvalues --  -10.25619 -10.25565 -10.25529 -10.25084 -10.25036
 Alpha  occ. eigenvalues --  -10.24846 -10.24826 -10.24666 -10.24647 -10.24561
 Alpha  occ. eigenvalues --  -10.24515 -10.24476 -10.24241 -10.24240 -10.24100
 Alpha  occ. eigenvalues --  -10.24037  -3.17936  -1.92820  -1.92386  -1.92245
 Alpha  occ. eigenvalues --   -1.15679  -1.14336  -1.10055  -1.08263  -1.06541
 Alpha  occ. eigenvalues --   -1.06315  -1.05445  -1.04756  -1.04304  -1.03304
 Alpha  occ. eigenvalues --   -0.93698  -0.90437  -0.90049  -0.89711  -0.89615
 Alpha  occ. eigenvalues --   -0.88626  -0.88288  -0.87940  -0.87653  -0.87156
 Alpha  occ. eigenvalues --   -0.86475  -0.85765  -0.84694  -0.84263  -0.83767
 Alpha  occ. eigenvalues --   -0.82779  -0.82221  -0.81491  -0.80838  -0.80600
 Alpha  occ. eigenvalues --   -0.79784  -0.78515  -0.78067  -0.77599  -0.76748
 Alpha  occ. eigenvalues --   -0.76123  -0.75723  -0.75164  -0.74810  -0.74181
 Alpha  occ. eigenvalues --   -0.73303  -0.72997  -0.72458  -0.70983  -0.69032
 Alpha  occ. eigenvalues --   -0.68960  -0.68248  -0.67488  -0.66368  -0.66052
 Alpha  occ. eigenvalues --   -0.65686  -0.65301  -0.65231  -0.64670  -0.64191
 Alpha  occ. eigenvalues --   -0.63651  -0.63225  -0.62917  -0.62038  -0.60603
 Alpha  occ. eigenvalues --   -0.60258  -0.59784  -0.59357  -0.59067  -0.58007
 Alpha  occ. eigenvalues --   -0.57555  -0.57225  -0.56738  -0.56318  -0.55824
 Alpha  occ. eigenvalues --   -0.55596  -0.54773  -0.54158  -0.54030  -0.53861
 Alpha  occ. eigenvalues --   -0.53712  -0.53451  -0.53283  -0.53091  -0.53054
 Alpha  occ. eigenvalues --   -0.52669  -0.52493  -0.52307  -0.52098  -0.51844
 Alpha  occ. eigenvalues --   -0.51697  -0.50985  -0.50923  -0.50903  -0.50814
 Alpha  occ. eigenvalues --   -0.50688  -0.50528  -0.50201  -0.49989  -0.49664
 Alpha  occ. eigenvalues --   -0.49642  -0.49186  -0.49088  -0.48823  -0.48745
 Alpha  occ. eigenvalues --   -0.48674  -0.48512  -0.48181  -0.48099  -0.48014
 Alpha  occ. eigenvalues --   -0.47908  -0.47604  -0.47549  -0.47297  -0.47133
 Alpha  occ. eigenvalues --   -0.47046  -0.46909  -0.46747  -0.46324  -0.46078
 Alpha  occ. eigenvalues --   -0.45999  -0.45929  -0.45358  -0.45261  -0.45057
 Alpha  occ. eigenvalues --   -0.44684  -0.44568  -0.44299  -0.44287  -0.44146
 Alpha  occ. eigenvalues --   -0.44120  -0.43866  -0.43647  -0.43509  -0.43413
 Alpha  occ. eigenvalues --   -0.43185  -0.43063  -0.42651  -0.42579  -0.42310
 Alpha  occ. eigenvalues --   -0.42044  -0.41822  -0.41592  -0.41490  -0.41384
 Alpha  occ. eigenvalues --   -0.40963  -0.40860  -0.40790  -0.40524  -0.40305
 Alpha  occ. eigenvalues --   -0.40134  -0.39818  -0.39302  -0.39259  -0.39172
 Alpha  occ. eigenvalues --   -0.38695  -0.38306  -0.38180  -0.38083  -0.37586
 Alpha  occ. eigenvalues --   -0.37523  -0.37436  -0.37287  -0.36546  -0.36411
 Alpha  occ. eigenvalues --   -0.35979  -0.35199  -0.34982  -0.34657  -0.34418
 Alpha  occ. eigenvalues --   -0.34118  -0.33580  -0.33345  -0.31469  -0.31313
 Alpha  occ. eigenvalues --   -0.30570  -0.30318  -0.29908  -0.29571  -0.24696
 Alpha  occ. eigenvalues --   -0.21225
 Alpha virt. eigenvalues --   -0.08262  -0.02919  -0.00163   0.01140   0.01985
 Alpha virt. eigenvalues --    0.03912   0.04986   0.05326   0.05912   0.06557
 Alpha virt. eigenvalues --    0.07719   0.07842   0.08184   0.08326   0.08576

 Mulliken charges:
               1
     1  Mg   0.841323
     2  C   -0.000838
     3  C   -0.095584
     4  C   -0.077297
     5  C   -0.137913
     6  N   -0.263779
     7  C   -0.042461
     8  C   -0.008431
     9  C   -0.079266
    10  C    0.003934
    11  C    0.079066
    12  C    0.049296
    13  C    0.071917
    14  C    0.169676
    15  O   -0.242019
    16  O   -0.380680
    17  N   -0.353113
    18  C    0.180948
    19  C   -0.136572
    20  C   -0.076285
    21  C    0.207071
    22  C    0.132861
    23  C    0.018072
    24  O   -0.203949
    25  C    0.049772
    26  N   -0.330232
    27  C    0.001696
    28  C   -0.051851
    29  C   -0.051427
    30  C    0.081610
    31  C    0.070845
    32  C    0.001433
    33  C   -0.001722
    34  N   -0.286365
    35  C    0.133061
    36  C   -0.208604
    37  C    0.086652
    38  C    0.077813
    39  C    0.140219
    40  C   -0.034237
    41  O   -0.191601
    42  C    0.019930
    43  C    0.195263
    44  O   -0.236435
    45  O   -0.342536
    46  C    0.185236
    47  C    0.336461
    48  C   -0.156176
    49  C   -0.189706
    50  C    0.067905
    51  C    0.090256
    52  C    0.004976
    53  C    0.031072
    54  C   -0.131153
    55  C    0.065331
    56  C    0.086819
    57  C   -0.014246
    58  C    0.076965
    59  C   -0.155652
    60  C    0.074692
    61  C    0.038914
    62  C   -0.000684
    63  C    0.090710
    64  C   -0.170684
    65  C    0.025618
    66  C    0.040965
    67  H   -0.029927
    68  H   -0.053316
    69  H   -0.037132
    70  H    0.007007
    71  H    0.016577
    72  H    0.019753
    73  H    0.019738
    74  H    0.028306
    75  H    0.016816
    76  H    0.029994
    77  H    0.040259
    78  H    0.024144
    79  H    0.042645
    80  H    0.017033
    81  H    0.028106
    82  H    0.031876
    83  H    0.052495
    84  H    0.033016
    85  H    0.022114
    86  H    0.014911
    87  H    0.028841
    88  H    0.019021
    89  H    0.024228
    90  H    0.023574
    91  H    0.008170
    92  H    0.007124
    93  H    0.026038
    94  H    0.027297
    95  H    0.034017
    96  H    0.024575
    97  H    0.041665
    98  H    0.037302
    99  H    0.041013
   100  H    0.039758
   101  H    0.025224
   102  H    0.020599
   103  H    0.052787
   104  H   -0.009873
   105  H    0.023415
   106  H    0.029939
   107  H    0.033494
   108  H    0.002168
   109  H   -0.003150
   110  H   -0.002294
   111  H   -0.004932
   112  H   -0.001802
   113  H   -0.010348
   114  H    0.000643
   115  H    0.002949
   116  H    0.007421
   117  H   -0.003145
   118  H   -0.016164
   119  H   -0.006182
   120  H   -0.021023
   121  H   -0.018814
   122  H    0.003980
   123  H   -0.011375
   124  H   -0.009484
   125  H    0.006602
   126  H   -0.003651
   127  H    0.012725
   128  H   -0.011507
   129  H   -0.006991
   130  H    0.002399
   131  H   -0.017812
   132  H    0.001248
   133  H   -0.005048
   134  H    0.013810
   135  H    0.020377
   136  H    0.017841
   137  H   -0.001054
   138  H   -0.012870
   139  H    0.006868
   140  H    0.009118
 Sum of Mulliken charges =  -0.00000

 Dipole moment (field-independent basis, Debye):
    X=              2.3194    Y=              5.4029    Z=              1.1725  Tot=              5.9954
 Quadrupole moment (field-independent basis, Debye-Ang):
   XX=           -352.7274   YY=           -455.9603   ZZ=           -408.3575
   XY=             28.4201   XZ=              0.8631   YZ=             31.0491

 Normal termination of Gaussian 16 at Sat Apr 30 08:18:03 2022.
