 Gaussian 16, Revision A.03,
 Gaussian 16:  ES64L-G16RevA.03 25-Dec-2016

 ---------------------------------
 #p PBE1PBE/Def2SVP td=(nstates=5)
 ---------------------------------

 ----------------------------------------------------
 step_651_chromophore_5 TDDFT with PBE1PBE functional
 ----------------------------------------------------
 Symbolic Z-matrix:
 Charge =  0 Multiplicity = 1

                         Standard orientation:
 ---------------------------------------------------------------------
 Center     Atomic      Atomic             Coordinates (Angstroms)
 Number     Number       Type             X           Y           Z
 ---------------------------------------------------------------------
      1         12           0        5.535008    0.529077   -0.065743
      2          6           0        4.109968   -2.695978    0.121023
      3          6           0        3.342922    1.156255   -2.725301
      4          6           0        6.092336    3.759576    0.181293
      5          6           0        6.881852   -0.202133    3.071115
      6          7           0        4.022612   -0.637199   -1.190113
      7          6           0        3.596739   -1.929734   -0.966611
      8          6           0        2.548565   -2.390391   -1.977365
      9          6           0        2.567836   -1.211256   -2.958669
     10          6           0        3.377224   -0.169995   -2.268830
     11          6           0        3.022663   -1.511641   -4.434197
     12          6           0        1.152403   -2.638231   -1.330915
     13          6           0        0.163622   -3.604779   -2.154477
     14          6           0       -1.166179   -2.991227   -2.645182
     15          8           0       -1.519179   -2.737750   -3.810681
     16          8           0       -2.020949   -2.837031   -1.544988
     17          7           0        5.005506    2.169011   -1.277275
     18          6           0        4.117096    2.231131   -2.300820
     19          6           0        3.984440    3.605125   -2.789849
     20          6           0        4.867198    4.348101   -1.970870
     21          6           0        5.432099    3.404181   -0.946532
     22          6           0        3.089695    4.059278   -3.827773
     23          6           0        5.242833    5.839540   -2.254741
     24          8           0        4.630687    6.509074   -3.088383
     25          6           0        6.373177    6.468658   -1.482479
     26          7           0        6.356967    1.667290    1.436114
     27          6           0        6.582183    2.994471    1.302839
     28          6           0        7.542707    3.583385    2.415933
     29          6           0        7.811436    2.206555    3.241131
     30          6           0        6.872710    1.142552    2.593009
     31          6           0        8.845351    4.173914    1.805196
     32          6           0        7.614169    2.248559    4.819768
     33          6           0        8.699820    1.644416    5.782218
     34          7           0        5.590713   -1.078812    1.315323
     35          6           0        6.245991   -1.241998    2.448742
     36          6           0        6.285935   -2.572155    2.925777
     37          6           0        5.371618   -3.217072    2.043881
     38          6           0        5.029028   -2.290093    1.072281
     39          6           0        7.039466   -3.033481    4.115015
     40          6           0        4.745218   -4.421441    1.679521
     41          8           0        4.894118   -5.532928    2.212602
     42          6           0        3.886688   -4.199388    0.413240
     43          6           0        4.474854   -5.051576   -0.628001
     44          8           0        4.033051   -6.159787   -0.971785
     45          8           0        5.551234   -4.480268   -1.286028
     46          6           0        5.856051   -5.187116   -2.541205
     47          6           0       -3.444080   -2.395263   -1.669314
     48          6           0       -3.604415   -1.126783   -0.865884
     49          6           0       -4.645990   -0.688810   -0.126134
     50          6           0       -5.966286   -1.579872    0.032734
     51          6           0       -4.546671    0.613148    0.629971
     52          6           0       -5.285075    1.820012   -0.056497
     53          6           0       -6.536991    2.325680    0.655790
     54          6           0       -7.841981    2.207373   -0.226712
     55          6           0       -7.988165    3.430942   -1.134098
     56          6           0       -9.028794    2.007052    0.749065
     57          6           0       -9.692959    0.678154    0.492538
     58          6           0      -10.775898    0.591198   -0.610116
     59          6           0      -12.271263    0.507133   -0.056323
     60          6           0      -13.346129    0.807858   -1.141130
     61          6           0      -12.485266   -0.880353    0.572858
     62          6           0      -13.232869   -0.804968    1.934397
     63          6           0      -14.711515   -0.974488    1.820190
     64          6           0      -15.311004    0.491288    2.084564
     65          6           0      -15.756204    0.674453    3.646392
     66          6           0      -16.587829    0.736189    1.152075
     67          1           0        2.665745    1.148186   -3.581083
     68          1           0        6.359944    4.808959    0.319481
     69          1           0        7.521646   -0.456055    3.918649
     70          1           0        2.826921   -3.306849   -2.499128
     71          1           0        1.561324   -0.814269   -3.092212
     72          1           0        2.234452   -1.106862   -5.068708
     73          1           0        3.023651   -2.590661   -4.590339
     74          1           0        3.944797   -0.988290   -4.687844
     75          1           0        0.654004   -1.672056   -1.406112
     76          1           0        1.231289   -2.958638   -0.291160
     77          1           0       -0.135766   -4.410736   -1.484418
     78          1           0        0.738457   -4.071340   -2.953908
     79          1           0        2.938785    5.138682   -3.836264
     80          1           0        2.115383    3.616674   -3.619891
     81          1           0        3.406007    3.726774   -4.816152
     82          1           0        7.117942    5.682276   -1.363644
     83          1           0        6.030317    6.767103   -0.491827
     84          1           0        6.749493    7.373922   -1.959929
     85          1           0        7.052585    4.378993    2.978186
     86          1           0        8.805543    1.819334    3.017855
     87          1           0        9.687168    3.693880    2.303237
     88          1           0        8.767681    5.253453    1.936669
     89          1           0        8.810652    3.972749    0.733982
     90          1           0        6.723391    1.650159    5.014133
     91          1           0        7.577524    3.315430    5.039550
     92          1           0        9.656669    1.553881    5.267533
     93          1           0        8.281619    0.650963    5.937211
     94          1           0        8.864929    2.273061    6.657964
     95          1           0        6.455023   -2.629549    4.941654
     96          1           0        8.053835   -2.635429    4.129843
     97          1           0        7.058007   -4.123933    4.101316
     98          1           0        2.860181   -4.550834    0.519084
     99          1           0        4.895859   -5.362769   -3.024741
    100          1           0        6.435230   -6.105833   -2.454160
    101          1           0        6.556698   -4.517058   -3.038339
    102          1           0       -4.052995   -3.150327   -1.172601
    103          1           0       -3.736234   -2.093245   -2.674765
    104          1           0       -2.759551   -0.441099   -0.935276
    105          1           0       -6.490539   -1.257588    0.932870
    106          1           0       -5.710273   -2.635496   -0.055985
    107          1           0       -6.566958   -1.208249   -0.796997
    108          1           0       -3.499397    0.869130    0.789918
    109          1           0       -4.999512    0.573649    1.621073
    110          1           0       -5.467039    1.493021   -1.080235
    111          1           0       -4.629130    2.675458   -0.218031
    112          1           0       -6.320695    3.342740    0.980523
    113          1           0       -6.699049    1.783223    1.586616
    114          1           0       -7.641062    1.375397   -0.900486
    115          1           0       -8.874325    3.997761   -0.847966
    116          1           0       -8.017991    3.198145   -2.198264
    117          1           0       -7.134712    4.100996   -1.035946
    118          1           0       -9.775724    2.794945    0.649152
    119          1           0       -8.706766    2.033255    1.789805
    120          1           0      -10.187703    0.411495    1.426696
    121          1           0       -8.918852   -0.089007    0.499410
    122          1           0      -10.463251   -0.214199   -1.274920
    123          1           0      -10.822662    1.561905   -1.102459
    124          1           0      -12.328577    1.251722    0.737626
    125          1           0      -13.954024   -0.084814   -1.285632
    126          1           0      -12.803753    1.046193   -2.056003
    127          1           0      -13.954053    1.697466   -0.972714
    128          1           0      -11.485917   -1.244365    0.815094
    129          1           0      -12.967222   -1.566988   -0.121842
    130          1           0      -12.901059    0.073975    2.487322
    131          1           0      -12.834209   -1.705724    2.401009
    132          1           0      -15.070682   -1.660896    2.587859
    133          1           0      -14.908113   -1.378255    0.827068
    134          1           0      -14.556060    1.259757    1.918101
    135          1           0      -15.999237   -0.268344    4.137913
    136          1           0      -16.514024    1.449917    3.759314
    137          1           0      -14.828382    1.036808    4.089277
    138          1           0      -16.401564    1.636144    0.566262
    139          1           0      -17.502857    1.068618    1.643034
    140          1           0      -16.687182   -0.013604    0.367200
 ---------------------------------------------------------------------

 SCF Done:  E(RPBE1PBE) =  -3005.34006691     A.U. after   15 cycles

 Excitation energies and oscillator strengths:

 Excited State   1:      Singlet-A      1.9123 eV  648.36 nm  f=0.3480  <S**2>=0.000
     245 -> 248        0.18881
     246 -> 247        0.68691
 This state for optimization and/or second-order correction.
 Total Energy, E(TD-HF/TD-DFT) =  -3005.26979251
 Copying the excited state density for this state as the 1-particle RhoCI density.

 Excited State   2:      Singlet-A      2.3182 eV  534.83 nm  f=0.0376  <S**2>=0.000
     245 -> 247        0.60292
     246 -> 248       -0.35720

 Excited State   3:      Singlet-A      2.9911 eV  414.50 nm  f=0.0066  <S**2>=0.000
     242 -> 247        0.29684
     242 -> 249        0.10516
     243 -> 247        0.57294
     243 -> 249        0.17406

 Excited State   4:      Singlet-A      3.1580 eV  392.61 nm  f=0.0523  <S**2>=0.000
     240 -> 247        0.18406
     241 -> 247        0.56221
     241 -> 249       -0.11157
     242 -> 247        0.17749
     245 -> 247       -0.10664
     246 -> 248       -0.23132

 Excited State   5:      Singlet-A      3.1810 eV  389.77 nm  f=0.1859  <S**2>=0.000
     242 -> 247        0.42627
     243 -> 247       -0.28315
     245 -> 247        0.20423
     246 -> 248        0.40224

 The electronic state is 1-A.
 Alpha  occ. eigenvalues --  -46.92748 -19.25599 -19.25374 -19.20534 -19.19651
 Alpha  occ. eigenvalues --  -19.19546 -19.18394 -14.42407 -14.42226 -14.39801
 Alpha  occ. eigenvalues --  -14.38477 -10.37448 -10.36160 -10.33013 -10.31508
 Alpha  occ. eigenvalues --  -10.30205 -10.30105 -10.29260 -10.29143 -10.28855
 Alpha  occ. eigenvalues --  -10.28585 -10.28504 -10.28131 -10.27296 -10.26437
 Alpha  occ. eigenvalues --  -10.26431 -10.26342 -10.26066 -10.26009 -10.25949
 Alpha  occ. eigenvalues --  -10.25916 -10.25894 -10.25893 -10.25573 -10.25359
 Alpha  occ. eigenvalues --  -10.25341 -10.25177 -10.24961 -10.24569 -10.24523
 Alpha  occ. eigenvalues --  -10.24502 -10.24494 -10.24483 -10.24226 -10.24113
 Alpha  occ. eigenvalues --  -10.23936 -10.23825 -10.23620 -10.23450 -10.23363
 Alpha  occ. eigenvalues --  -10.23327 -10.23123 -10.22756 -10.22647 -10.22598
 Alpha  occ. eigenvalues --  -10.22561 -10.22414 -10.22257 -10.22233 -10.22195
 Alpha  occ. eigenvalues --  -10.22063 -10.21849 -10.21813 -10.21613 -10.21578
 Alpha  occ. eigenvalues --  -10.21500  -3.14901  -1.87725  -1.87271  -1.87132
 Alpha  occ. eigenvalues --   -1.10503  -1.09171  -1.04596  -1.03206  -1.01450
 Alpha  occ. eigenvalues --   -1.01219  -1.00242  -0.99409  -0.98843  -0.97902
 Alpha  occ. eigenvalues --   -0.88227  -0.84548  -0.84289  -0.83920  -0.83732
 Alpha  occ. eigenvalues --   -0.82752  -0.82553  -0.82253  -0.81996  -0.81429
 Alpha  occ. eigenvalues --   -0.80590  -0.80002  -0.78937  -0.78580  -0.77946
 Alpha  occ. eigenvalues --   -0.76861  -0.76404  -0.75798  -0.75153  -0.74854
 Alpha  occ. eigenvalues --   -0.74019  -0.72867  -0.72336  -0.71811  -0.71085
 Alpha  occ. eigenvalues --   -0.70267  -0.70044  -0.69273  -0.68880  -0.68345
 Alpha  occ. eigenvalues --   -0.67805  -0.67402  -0.66875  -0.65300  -0.63605
 Alpha  occ. eigenvalues --   -0.63344  -0.62485  -0.61782  -0.60612  -0.60585
 Alpha  occ. eigenvalues --   -0.60098  -0.59649  -0.59491  -0.59246  -0.58299
 Alpha  occ. eigenvalues --   -0.57846  -0.57724  -0.57515  -0.56250  -0.55083
 Alpha  occ. eigenvalues --   -0.54788  -0.54414  -0.53727  -0.53651  -0.52704
 Alpha  occ. eigenvalues --   -0.51985  -0.51671  -0.51235  -0.50900  -0.50416
 Alpha  occ. eigenvalues --   -0.50104  -0.49279  -0.48735  -0.48610  -0.48332
 Alpha  occ. eigenvalues --   -0.48228  -0.47942  -0.47805  -0.47687  -0.47578
 Alpha  occ. eigenvalues --   -0.47252  -0.46994  -0.46785  -0.46541  -0.46378
 Alpha  occ. eigenvalues --   -0.46295  -0.45563  -0.45516  -0.45436  -0.45333
 Alpha  occ. eigenvalues --   -0.45217  -0.45119  -0.44808  -0.44636  -0.44314
 Alpha  occ. eigenvalues --   -0.44119  -0.43770  -0.43632  -0.43503  -0.43366
 Alpha  occ. eigenvalues --   -0.43294  -0.43089  -0.42837  -0.42721  -0.42629
 Alpha  occ. eigenvalues --   -0.42541  -0.42239  -0.42149  -0.41899  -0.41818
 Alpha  occ. eigenvalues --   -0.41669  -0.41562  -0.41400  -0.41097  -0.40855
 Alpha  occ. eigenvalues --   -0.40672  -0.40594  -0.40175  -0.39989  -0.39827
 Alpha  occ. eigenvalues --   -0.39520  -0.39486  -0.39063  -0.38907  -0.38865
 Alpha  occ. eigenvalues --   -0.38802  -0.38668  -0.38423  -0.38253  -0.38141
 Alpha  occ. eigenvalues --   -0.37970  -0.37795  -0.37517  -0.37465  -0.37047
 Alpha  occ. eigenvalues --   -0.36871  -0.36736  -0.36436  -0.36399  -0.36144
 Alpha  occ. eigenvalues --   -0.35735  -0.35678  -0.35595  -0.35429  -0.35194
 Alpha  occ. eigenvalues --   -0.34914  -0.34617  -0.34319  -0.34221  -0.33874
 Alpha  occ. eigenvalues --   -0.33445  -0.33211  -0.33112  -0.33013  -0.32596
 Alpha  occ. eigenvalues --   -0.32468  -0.32414  -0.32113  -0.31407  -0.31392
 Alpha  occ. eigenvalues --   -0.31001  -0.30242  -0.30126  -0.29806  -0.29572
 Alpha  occ. eigenvalues --   -0.28965  -0.28647  -0.28275  -0.26950  -0.26205
 Alpha  occ. eigenvalues --   -0.25775  -0.25519  -0.25291  -0.25224  -0.21553
 Alpha  occ. eigenvalues --   -0.18875
 Alpha virt. eigenvalues --   -0.10916  -0.06327  -0.04391  -0.02406  -0.01636
 Alpha virt. eigenvalues --   -0.00678   0.00438   0.00921   0.01461   0.02858
 Alpha virt. eigenvalues --    0.03623   0.04044   0.04790   0.04929   0.05207

 Mulliken charges:
               1
     1  Mg   0.984021
     2  C   -0.017857
     3  C   -0.074844
     4  C   -0.081993
     5  C   -0.118071
     6  N   -0.370784
     7  C    0.030505
     8  C   -0.079232
     9  C   -0.154732
    10  C    0.043994
    11  C    0.022905
    12  C   -0.001203
    13  C    0.000539
    14  C    0.231708
    15  O   -0.275655
    16  O   -0.407046
    17  N   -0.471415
    18  C    0.198419
    19  C   -0.165637
    20  C   -0.109538
    21  C    0.225018
    22  C    0.071545
    23  C    0.070152
    24  O   -0.241322
    25  C   -0.030038
    26  N   -0.438038
    27  C    0.044467
    28  C   -0.126675
    29  C   -0.119255
    30  C    0.120415
    31  C    0.012572
    32  C   -0.064439
    33  C   -0.072711
    34  N   -0.416994
    35  C    0.145831
    36  C   -0.207994
    37  C    0.037652
    38  C    0.131318
    39  C    0.077986
    40  C    0.061444
    41  O   -0.234607
    42  C   -0.096221
    43  C    0.289997
    44  O   -0.270734
    45  O   -0.371300
    46  C    0.129814
    47  C    0.287978
    48  C   -0.159939
    49  C   -0.235775
    50  C    0.001986
    51  C    0.025133
    52  C   -0.050858
    53  C   -0.023275
    54  C   -0.218735
    55  C    0.010810
    56  C    0.031075
    57  C   -0.083656
    58  C    0.019912
    59  C   -0.238177
    60  C    0.016851
    61  C   -0.015737
    62  C   -0.067735
    63  C    0.039104
    64  C   -0.262480
    65  C   -0.034001
    66  C   -0.018790
    67  H    0.000933
    68  H   -0.016806
    69  H   -0.002291
    70  H    0.048011
    71  H    0.053651
    72  H    0.046229
    73  H    0.046049
    74  H    0.055779
    75  H    0.051406
    76  H    0.061703
    77  H    0.072237
    78  H    0.055244
    79  H    0.069252
    80  H    0.043865
    81  H    0.055321
    82  H    0.059732
    83  H    0.078189
    84  H    0.060263
    85  H    0.056297
    86  H    0.052483
    87  H    0.055114
    88  H    0.046125
    89  H    0.053282
    90  H    0.057272
    91  H    0.042429
    92  H    0.035040
    93  H    0.051547
    94  H    0.055192
    95  H    0.064245
    96  H    0.052393
    97  H    0.070756
    98  H    0.072975
    99  H    0.062037
   100  H    0.062030
   101  H    0.047723
   102  H    0.048770
   103  H    0.079264
   104  H    0.020934
   105  H    0.050769
   106  H    0.056061
   107  H    0.062034
   108  H    0.034153
   109  H    0.030015
   110  H    0.030460
   111  H    0.027525
   112  H    0.030682
   113  H    0.021033
   114  H    0.039636
   115  H    0.029341
   116  H    0.034370
   117  H    0.024267
   118  H    0.016328
   119  H    0.025597
   120  H    0.013821
   121  H    0.018201
   122  H    0.035481
   123  H    0.023670
   124  H    0.028031
   125  H    0.032923
   126  H    0.023872
   127  H    0.039743
   128  H    0.023083
   129  H    0.024599
   130  H    0.033471
   131  H    0.017144
   132  H    0.033219
   133  H    0.025836
   134  H    0.051368
   135  H    0.046608
   136  H    0.044917
   137  H    0.027135
   138  H    0.015347
   139  H    0.033210
   140  H    0.035722
 Sum of Mulliken charges =  -0.00000

 Dipole moment (field-independent basis, Debye):
    X=              2.4294    Y=              4.9612    Z=              1.5027  Tot=              5.7249
 Quadrupole moment (field-independent basis, Debye-Ang):
   XX=           -348.2595   YY=           -453.6851   ZZ=           -404.4991
   XY=             25.9965   XZ=              3.7835   YZ=             31.5326

 Normal termination of Gaussian 16 at Sat Apr 30 08:39:01 2022.
