 Gaussian 16, Revision A.03,
 Gaussian 16:  ES64L-G16RevA.03 25-Dec-2016

 --------------------------------
 #p wB97XD/Def2SVP td=(nstates=5)
 --------------------------------

 ---------------------------------------------------
 step_651_chromophore_5 TDDFT with wB97XD functional
 ---------------------------------------------------
 Symbolic Z-matrix:
 Charge =  0 Multiplicity = 1

                         Standard orientation:
 ---------------------------------------------------------------------
 Center     Atomic      Atomic             Coordinates (Angstroms)
 Number     Number       Type             X           Y           Z
 ---------------------------------------------------------------------
      1         12           0        5.535008    0.529077   -0.065743
      2          6           0        4.109968   -2.695978    0.121023
      3          6           0        3.342922    1.156255   -2.725301
      4          6           0        6.092336    3.759576    0.181293
      5          6           0        6.881852   -0.202133    3.071115
      6          7           0        4.022612   -0.637199   -1.190113
      7          6           0        3.596739   -1.929734   -0.966611
      8          6           0        2.548565   -2.390391   -1.977365
      9          6           0        2.567836   -1.211256   -2.958669
     10          6           0        3.377224   -0.169995   -2.268830
     11          6           0        3.022663   -1.511641   -4.434197
     12          6           0        1.152403   -2.638231   -1.330915
     13          6           0        0.163622   -3.604779   -2.154477
     14          6           0       -1.166179   -2.991227   -2.645182
     15          8           0       -1.519179   -2.737750   -3.810681
     16          8           0       -2.020949   -2.837031   -1.544988
     17          7           0        5.005506    2.169011   -1.277275
     18          6           0        4.117096    2.231131   -2.300820
     19          6           0        3.984440    3.605125   -2.789849
     20          6           0        4.867198    4.348101   -1.970870
     21          6           0        5.432099    3.404181   -0.946532
     22          6           0        3.089695    4.059278   -3.827773
     23          6           0        5.242833    5.839540   -2.254741
     24          8           0        4.630687    6.509074   -3.088383
     25          6           0        6.373177    6.468658   -1.482479
     26          7           0        6.356967    1.667290    1.436114
     27          6           0        6.582183    2.994471    1.302839
     28          6           0        7.542707    3.583385    2.415933
     29          6           0        7.811436    2.206555    3.241131
     30          6           0        6.872710    1.142552    2.593009
     31          6           0        8.845351    4.173914    1.805196
     32          6           0        7.614169    2.248559    4.819768
     33          6           0        8.699820    1.644416    5.782218
     34          7           0        5.590713   -1.078812    1.315323
     35          6           0        6.245991   -1.241998    2.448742
     36          6           0        6.285935   -2.572155    2.925777
     37          6           0        5.371618   -3.217072    2.043881
     38          6           0        5.029028   -2.290093    1.072281
     39          6           0        7.039466   -3.033481    4.115015
     40          6           0        4.745218   -4.421441    1.679521
     41          8           0        4.894118   -5.532928    2.212602
     42          6           0        3.886688   -4.199388    0.413240
     43          6           0        4.474854   -5.051576   -0.628001
     44          8           0        4.033051   -6.159787   -0.971785
     45          8           0        5.551234   -4.480268   -1.286028
     46          6           0        5.856051   -5.187116   -2.541205
     47          6           0       -3.444080   -2.395263   -1.669314
     48          6           0       -3.604415   -1.126783   -0.865884
     49          6           0       -4.645990   -0.688810   -0.126134
     50          6           0       -5.966286   -1.579872    0.032734
     51          6           0       -4.546671    0.613148    0.629971
     52          6           0       -5.285075    1.820012   -0.056497
     53          6           0       -6.536991    2.325680    0.655790
     54          6           0       -7.841981    2.207373   -0.226712
     55          6           0       -7.988165    3.430942   -1.134098
     56          6           0       -9.028794    2.007052    0.749065
     57          6           0       -9.692959    0.678154    0.492538
     58          6           0      -10.775898    0.591198   -0.610116
     59          6           0      -12.271263    0.507133   -0.056323
     60          6           0      -13.346129    0.807858   -1.141130
     61          6           0      -12.485266   -0.880353    0.572858
     62          6           0      -13.232869   -0.804968    1.934397
     63          6           0      -14.711515   -0.974488    1.820190
     64          6           0      -15.311004    0.491288    2.084564
     65          6           0      -15.756204    0.674453    3.646392
     66          6           0      -16.587829    0.736189    1.152075
     67          1           0        2.665745    1.148186   -3.581083
     68          1           0        6.359944    4.808959    0.319481
     69          1           0        7.521646   -0.456055    3.918649
     70          1           0        2.826921   -3.306849   -2.499128
     71          1           0        1.561324   -0.814269   -3.092212
     72          1           0        2.234452   -1.106862   -5.068708
     73          1           0        3.023651   -2.590661   -4.590339
     74          1           0        3.944797   -0.988290   -4.687844
     75          1           0        0.654004   -1.672056   -1.406112
     76          1           0        1.231289   -2.958638   -0.291160
     77          1           0       -0.135766   -4.410736   -1.484418
     78          1           0        0.738457   -4.071340   -2.953908
     79          1           0        2.938785    5.138682   -3.836264
     80          1           0        2.115383    3.616674   -3.619891
     81          1           0        3.406007    3.726774   -4.816152
     82          1           0        7.117942    5.682276   -1.363644
     83          1           0        6.030317    6.767103   -0.491827
     84          1           0        6.749493    7.373922   -1.959929
     85          1           0        7.052585    4.378993    2.978186
     86          1           0        8.805543    1.819334    3.017855
     87          1           0        9.687168    3.693880    2.303237
     88          1           0        8.767681    5.253453    1.936669
     89          1           0        8.810652    3.972749    0.733982
     90          1           0        6.723391    1.650159    5.014133
     91          1           0        7.577524    3.315430    5.039550
     92          1           0        9.656669    1.553881    5.267533
     93          1           0        8.281619    0.650963    5.937211
     94          1           0        8.864929    2.273061    6.657964
     95          1           0        6.455023   -2.629549    4.941654
     96          1           0        8.053835   -2.635429    4.129843
     97          1           0        7.058007   -4.123933    4.101316
     98          1           0        2.860181   -4.550834    0.519084
     99          1           0        4.895859   -5.362769   -3.024741
    100          1           0        6.435230   -6.105833   -2.454160
    101          1           0        6.556698   -4.517058   -3.038339
    102          1           0       -4.052995   -3.150327   -1.172601
    103          1           0       -3.736234   -2.093245   -2.674765
    104          1           0       -2.759551   -0.441099   -0.935276
    105          1           0       -6.490539   -1.257588    0.932870
    106          1           0       -5.710273   -2.635496   -0.055985
    107          1           0       -6.566958   -1.208249   -0.796997
    108          1           0       -3.499397    0.869130    0.789918
    109          1           0       -4.999512    0.573649    1.621073
    110          1           0       -5.467039    1.493021   -1.080235
    111          1           0       -4.629130    2.675458   -0.218031
    112          1           0       -6.320695    3.342740    0.980523
    113          1           0       -6.699049    1.783223    1.586616
    114          1           0       -7.641062    1.375397   -0.900486
    115          1           0       -8.874325    3.997761   -0.847966
    116          1           0       -8.017991    3.198145   -2.198264
    117          1           0       -7.134712    4.100996   -1.035946
    118          1           0       -9.775724    2.794945    0.649152
    119          1           0       -8.706766    2.033255    1.789805
    120          1           0      -10.187703    0.411495    1.426696
    121          1           0       -8.918852   -0.089007    0.499410
    122          1           0      -10.463251   -0.214199   -1.274920
    123          1           0      -10.822662    1.561905   -1.102459
    124          1           0      -12.328577    1.251722    0.737626
    125          1           0      -13.954024   -0.084814   -1.285632
    126          1           0      -12.803753    1.046193   -2.056003
    127          1           0      -13.954053    1.697466   -0.972714
    128          1           0      -11.485917   -1.244365    0.815094
    129          1           0      -12.967222   -1.566988   -0.121842
    130          1           0      -12.901059    0.073975    2.487322
    131          1           0      -12.834209   -1.705724    2.401009
    132          1           0      -15.070682   -1.660896    2.587859
    133          1           0      -14.908113   -1.378255    0.827068
    134          1           0      -14.556060    1.259757    1.918101
    135          1           0      -15.999237   -0.268344    4.137913
    136          1           0      -16.514024    1.449917    3.759314
    137          1           0      -14.828382    1.036808    4.089277
    138          1           0      -16.401564    1.636144    0.566262
    139          1           0      -17.502857    1.068618    1.643034
    140          1           0      -16.687182   -0.013604    0.367200
 ---------------------------------------------------------------------

 SCF Done:  E(RwB97XD) =  -3007.85209357     A.U. after   19 cycles

 Excitation energies and oscillator strengths:

 Excited State   1:      Singlet-A      1.7660 eV  702.08 nm  f=0.3578  <S**2>=0.000
     245 -> 248       -0.19266
     246 -> 247        0.67998
     245 <- 248       -0.11187
 This state for optimization and/or second-order correction.
 Total Energy, E(TD-HF/TD-DFT) =  -3007.78719574
 Copying the excited state density for this state as the 1-particle RhoCI density.

 Excited State   2:      Singlet-A      2.2735 eV  545.34 nm  f=0.0297  <S**2>=0.000
     245 -> 247        0.57915
     246 -> 248        0.39073

 Excited State   3:      Singlet-A      3.4253 eV  361.97 nm  f=0.6780  <S**2>=0.000
     241 -> 247       -0.21501
     245 -> 247       -0.35187
     246 -> 248        0.55450
     245 <- 247        0.10403

 Excited State   4:      Singlet-A      3.5370 eV  350.54 nm  f=0.0147  <S**2>=0.000
     242 -> 247        0.49348
     242 -> 249       -0.34726
     242 -> 250       -0.22525
     244 -> 247       -0.12819

 Excited State   5:      Singlet-A      3.6002 eV  344.38 nm  f=0.0301  <S**2>=0.000
     240 -> 247       -0.13961
     240 -> 249       -0.16804
     240 -> 250        0.14087
     241 -> 247        0.46255
     241 -> 249        0.12238
     244 -> 247       -0.36125

 The electronic state is 1-A.
 Alpha  occ. eigenvalues --  -46.95718 -19.30071 -19.29879 -19.25181 -19.24594
 Alpha  occ. eigenvalues --  -19.24240 -19.22914 -14.47502 -14.47318 -14.44925
 Alpha  occ. eigenvalues --  -14.43266 -10.44206 -10.42876 -10.40070 -10.38120
 Alpha  occ. eigenvalues --  -10.36808 -10.36575 -10.35382 -10.35298 -10.35278
 Alpha  occ. eigenvalues --  -10.35146 -10.35082 -10.34935 -10.33598 -10.32906
 Alpha  occ. eigenvalues --  -10.32634 -10.32617 -10.32568 -10.32424 -10.32200
 Alpha  occ. eigenvalues --  -10.32124 -10.32067 -10.31910 -10.31872 -10.31805
 Alpha  occ. eigenvalues --  -10.31484 -10.31445 -10.31345 -10.31098 -10.30974
 Alpha  occ. eigenvalues --  -10.30833 -10.30758 -10.30725 -10.30677 -10.30677
 Alpha  occ. eigenvalues --  -10.30552 -10.30004 -10.29953 -10.29815 -10.29644
 Alpha  occ. eigenvalues --  -10.29608 -10.29487 -10.29482 -10.29019 -10.28959
 Alpha  occ. eigenvalues --  -10.28772 -10.28677 -10.28596 -10.28560 -10.28531
 Alpha  occ. eigenvalues --  -10.28438 -10.28295 -10.28165 -10.28055 -10.27933
 Alpha  occ. eigenvalues --  -10.27922  -3.21731  -1.95303  -1.94848  -1.94710
 Alpha  occ. eigenvalues --   -1.17811  -1.16531  -1.12319  -1.10437  -1.08769
 Alpha  occ. eigenvalues --   -1.08494  -1.07455  -1.06804  -1.06341  -1.05339
 Alpha  occ. eigenvalues --   -0.95659  -0.92212  -0.91895  -0.91690  -0.91400
 Alpha  occ. eigenvalues --   -0.90415  -0.90145  -0.89865  -0.89633  -0.89090
 Alpha  occ. eigenvalues --   -0.88260  -0.87654  -0.86586  -0.86150  -0.85629
 Alpha  occ. eigenvalues --   -0.84724  -0.84077  -0.83393  -0.82744  -0.82479
 Alpha  occ. eigenvalues --   -0.81641  -0.80434  -0.80019  -0.79541  -0.78668
 Alpha  occ. eigenvalues --   -0.77955  -0.77684  -0.76970  -0.76592  -0.76012
 Alpha  occ. eigenvalues --   -0.75261  -0.74971  -0.74425  -0.72912  -0.71020
 Alpha  occ. eigenvalues --   -0.70893  -0.70117  -0.69507  -0.68226  -0.68036
 Alpha  occ. eigenvalues --   -0.67615  -0.67214  -0.67140  -0.66666  -0.65991
 Alpha  occ. eigenvalues --   -0.65463  -0.65221  -0.64881  -0.63878  -0.62636
 Alpha  occ. eigenvalues --   -0.62234  -0.61781  -0.61239  -0.61049  -0.59993
 Alpha  occ. eigenvalues --   -0.59476  -0.59101  -0.58693  -0.58239  -0.57811
 Alpha  occ. eigenvalues --   -0.57515  -0.56670  -0.56080  -0.55962  -0.55733
 Alpha  occ. eigenvalues --   -0.55650  -0.55363  -0.55147  -0.55049  -0.54986
 Alpha  occ. eigenvalues --   -0.54602  -0.54461  -0.54252  -0.54031  -0.53723
 Alpha  occ. eigenvalues --   -0.53619  -0.52914  -0.52845  -0.52816  -0.52738
 Alpha  occ. eigenvalues --   -0.52555  -0.52452  -0.52132  -0.51891  -0.51655
 Alpha  occ. eigenvalues --   -0.51573  -0.51068  -0.50950  -0.50716  -0.50641
 Alpha  occ. eigenvalues --   -0.50590  -0.50383  -0.50075  -0.49978  -0.49915
 Alpha  occ. eigenvalues --   -0.49835  -0.49599  -0.49454  -0.49256  -0.49062
 Alpha  occ. eigenvalues --   -0.48880  -0.48834  -0.48661  -0.48238  -0.47965
 Alpha  occ. eigenvalues --   -0.47855  -0.47831  -0.47275  -0.47142  -0.47016
 Alpha  occ. eigenvalues --   -0.46621  -0.46465  -0.46187  -0.46132  -0.46071
 Alpha  occ. eigenvalues --   -0.45988  -0.45790  -0.45551  -0.45402  -0.45336
 Alpha  occ. eigenvalues --   -0.45087  -0.44949  -0.44592  -0.44555  -0.44330
 Alpha  occ. eigenvalues --   -0.44028  -0.43791  -0.43499  -0.43429  -0.43253
 Alpha  occ. eigenvalues --   -0.42807  -0.42709  -0.42679  -0.42410  -0.42206
 Alpha  occ. eigenvalues --   -0.41994  -0.41671  -0.41222  -0.41185  -0.40992
 Alpha  occ. eigenvalues --   -0.40526  -0.40201  -0.40037  -0.40029  -0.39629
 Alpha  occ. eigenvalues --   -0.39429  -0.39384  -0.39129  -0.38398  -0.38391
 Alpha  occ. eigenvalues --   -0.37967  -0.37047  -0.37038  -0.36531  -0.36497
 Alpha  occ. eigenvalues --   -0.36050  -0.35585  -0.35182  -0.33579  -0.33430
 Alpha  occ. eigenvalues --   -0.32770  -0.32270  -0.31930  -0.31696  -0.26643
 Alpha  occ. eigenvalues --   -0.23053
 Alpha virt. eigenvalues --   -0.06582  -0.01010   0.01908   0.04089   0.04331
 Alpha virt. eigenvalues --    0.06164   0.07299   0.07629   0.08183   0.09347
 Alpha virt. eigenvalues --    0.10203   0.10743   0.11475   0.11604   0.12017

 Mulliken charges:
               1
     1  Mg   0.976006
     2  C   -0.011978
     3  C   -0.100389
     4  C   -0.095432
     5  C   -0.134493
     6  N   -0.335161
     7  C   -0.004172
     8  C   -0.049887
     9  C   -0.129763
    10  C    0.031882
    11  C    0.032613
    12  C    0.012427
    13  C    0.014016
    14  C    0.222543
    15  O   -0.273339
    16  O   -0.407406
    17  N   -0.437731
    18  C    0.195959
    19  C   -0.153033
    20  C   -0.109634
    21  C    0.228508
    22  C    0.082601
    23  C    0.064261
    24  O   -0.235211
    25  C   -0.012815
    26  N   -0.405083
    27  C    0.033573
    28  C   -0.105317
    29  C   -0.096574
    30  C    0.108024
    31  C    0.024577
    32  C   -0.045580
    33  C   -0.056015
    34  N   -0.375221
    35  C    0.137877
    36  C   -0.210810
    37  C    0.040247
    38  C    0.107885
    39  C    0.090076
    40  C    0.040625
    41  O   -0.227401
    42  C   -0.055863
    43  C    0.266199
    44  O   -0.266894
    45  O   -0.371338
    46  C    0.145987
    47  C    0.303671
    48  C   -0.172522
    49  C   -0.220436
    50  C    0.020327
    51  C    0.043428
    52  C   -0.038134
    53  C   -0.005399
    54  C   -0.187588
    55  C    0.020269
    56  C    0.048228
    57  C   -0.059464
    58  C    0.035825
    59  C   -0.207210
    60  C    0.028527
    61  C   -0.001057
    62  C   -0.045708
    63  C    0.050815
    64  C   -0.231601
    65  C   -0.020320
    66  C   -0.005675
    67  H   -0.003854
    68  H   -0.029469
    69  H   -0.015302
    70  H    0.030154
    71  H    0.041691
    72  H    0.041471
    73  H    0.041270
    74  H    0.049937
    75  H    0.039857
    76  H    0.054053
    77  H    0.067393
    78  H    0.049965
    79  H    0.067213
    80  H    0.039362
    81  H    0.052527
    82  H    0.050560
    83  H    0.074212
    84  H    0.060194
    85  H    0.048942
    86  H    0.038408
    87  H    0.050880
    88  H    0.041250
    89  H    0.044682
    90  H    0.047151
    91  H    0.033060
    92  H    0.028173
    93  H    0.044986
    94  H    0.050622
    95  H    0.057140
    96  H    0.045786
    97  H    0.067018
    98  H    0.068124
    99  H    0.056626
   100  H    0.057941
   101  H    0.044073
   102  H    0.042698
   103  H    0.075924
   104  H    0.016589
   105  H    0.043976
   106  H    0.051022
   107  H    0.053671
   108  H    0.028553
   109  H    0.020799
   110  H    0.018425
   111  H    0.021486
   112  H    0.023006
   113  H    0.007644
   114  H    0.021850
   115  H    0.023053
   116  H    0.029777
   117  H    0.017677
   118  H    0.006222
   119  H    0.018181
   120  H    0.001468
   121  H    0.004717
   122  H    0.028961
   123  H    0.010946
   124  H    0.012016
   125  H    0.025344
   126  H    0.018330
   127  H    0.034510
   128  H    0.012191
   129  H    0.015856
   130  H    0.021326
   131  H    0.009949
   132  H    0.025879
   133  H    0.014769
   134  H    0.035973
   135  H    0.040493
   136  H    0.039294
   137  H    0.020213
   138  H    0.008138
   139  H    0.028083
   140  H    0.029571
 Sum of Mulliken charges =  -0.00000

 Dipole moment (field-independent basis, Debye):
    X=              2.3874    Y=              5.6178    Z=              1.0505  Tot=              6.1938
 Quadrupole moment (field-independent basis, Debye-Ang):
   XX=           -347.6858   YY=           -452.2667   ZZ=           -404.5031
   XY=             29.4512   XZ=              0.8238   YZ=             31.0495

 Normal termination of Gaussian 16 at Sat Apr 30 09:11:53 2022.
