 Gaussian 16, Revision A.03,
 Gaussian 16:  ES64L-G16RevA.03 25-Dec-2016

 --------------------
 #p ZINDO=(nstates=5)
 --------------------

 ----------------------------
 step_651_chromophore_5 ZINDO
 ----------------------------
 Symbolic Z-matrix:
 Charge =  0 Multiplicity = 1

                         Standard orientation:
 ---------------------------------------------------------------------
 Center     Atomic      Atomic             Coordinates (Angstroms)
 Number     Number       Type             X           Y           Z
 ---------------------------------------------------------------------
      1         12           0        5.535008    0.529077   -0.065743
      2          6           0        4.109968   -2.695978    0.121023
      3          6           0        3.342922    1.156255   -2.725301
      4          6           0        6.092336    3.759576    0.181293
      5          6           0        6.881852   -0.202133    3.071115
      6          7           0        4.022612   -0.637199   -1.190113
      7          6           0        3.596739   -1.929734   -0.966611
      8          6           0        2.548565   -2.390391   -1.977365
      9          6           0        2.567836   -1.211256   -2.958669
     10          6           0        3.377224   -0.169995   -2.268830
     11          6           0        3.022663   -1.511641   -4.434197
     12          6           0        1.152403   -2.638231   -1.330915
     13          6           0        0.163622   -3.604779   -2.154477
     14          6           0       -1.166179   -2.991227   -2.645182
     15          8           0       -1.519179   -2.737750   -3.810681
     16          8           0       -2.020949   -2.837031   -1.544988
     17          7           0        5.005506    2.169011   -1.277275
     18          6           0        4.117096    2.231131   -2.300820
     19          6           0        3.984440    3.605125   -2.789849
     20          6           0        4.867198    4.348101   -1.970870
     21          6           0        5.432099    3.404181   -0.946532
     22          6           0        3.089695    4.059278   -3.827773
     23          6           0        5.242833    5.839540   -2.254741
     24          8           0        4.630687    6.509074   -3.088383
     25          6           0        6.373177    6.468658   -1.482479
     26          7           0        6.356967    1.667290    1.436114
     27          6           0        6.582183    2.994471    1.302839
     28          6           0        7.542707    3.583385    2.415933
     29          6           0        7.811436    2.206555    3.241131
     30          6           0        6.872710    1.142552    2.593009
     31          6           0        8.845351    4.173914    1.805196
     32          6           0        7.614169    2.248559    4.819768
     33          6           0        8.699820    1.644416    5.782218
     34          7           0        5.590713   -1.078812    1.315323
     35          6           0        6.245991   -1.241998    2.448742
     36          6           0        6.285935   -2.572155    2.925777
     37          6           0        5.371618   -3.217072    2.043881
     38          6           0        5.029028   -2.290093    1.072281
     39          6           0        7.039466   -3.033481    4.115015
     40          6           0        4.745218   -4.421441    1.679521
     41          8           0        4.894118   -5.532928    2.212602
     42          6           0        3.886688   -4.199388    0.413240
     43          6           0        4.474854   -5.051576   -0.628001
     44          8           0        4.033051   -6.159787   -0.971785
     45          8           0        5.551234   -4.480268   -1.286028
     46          6           0        5.856051   -5.187116   -2.541205
     47          6           0       -3.444080   -2.395263   -1.669314
     48          6           0       -3.604415   -1.126783   -0.865884
     49          6           0       -4.645990   -0.688810   -0.126134
     50          6           0       -5.966286   -1.579872    0.032734
     51          6           0       -4.546671    0.613148    0.629971
     52          6           0       -5.285075    1.820012   -0.056497
     53          6           0       -6.536991    2.325680    0.655790
     54          6           0       -7.841981    2.207373   -0.226712
     55          6           0       -7.988165    3.430942   -1.134098
     56          6           0       -9.028794    2.007052    0.749065
     57          6           0       -9.692959    0.678154    0.492538
     58          6           0      -10.775898    0.591198   -0.610116
     59          6           0      -12.271263    0.507133   -0.056323
     60          6           0      -13.346129    0.807858   -1.141130
     61          6           0      -12.485266   -0.880353    0.572858
     62          6           0      -13.232869   -0.804968    1.934397
     63          6           0      -14.711515   -0.974488    1.820190
     64          6           0      -15.311004    0.491288    2.084564
     65          6           0      -15.756204    0.674453    3.646392
     66          6           0      -16.587829    0.736189    1.152075
     67          1           0        2.665745    1.148186   -3.581083
     68          1           0        6.359944    4.808959    0.319481
     69          1           0        7.521646   -0.456055    3.918649
     70          1           0        2.826921   -3.306849   -2.499128
     71          1           0        1.561324   -0.814269   -3.092212
     72          1           0        2.234452   -1.106862   -5.068708
     73          1           0        3.023651   -2.590661   -4.590339
     74          1           0        3.944797   -0.988290   -4.687844
     75          1           0        0.654004   -1.672056   -1.406112
     76          1           0        1.231289   -2.958638   -0.291160
     77          1           0       -0.135766   -4.410736   -1.484418
     78          1           0        0.738457   -4.071340   -2.953908
     79          1           0        2.938785    5.138682   -3.836264
     80          1           0        2.115383    3.616674   -3.619891
     81          1           0        3.406007    3.726774   -4.816152
     82          1           0        7.117942    5.682276   -1.363644
     83          1           0        6.030317    6.767103   -0.491827
     84          1           0        6.749493    7.373922   -1.959929
     85          1           0        7.052585    4.378993    2.978186
     86          1           0        8.805543    1.819334    3.017855
     87          1           0        9.687168    3.693880    2.303237
     88          1           0        8.767681    5.253453    1.936669
     89          1           0        8.810652    3.972749    0.733982
     90          1           0        6.723391    1.650159    5.014133
     91          1           0        7.577524    3.315430    5.039550
     92          1           0        9.656669    1.553881    5.267533
     93          1           0        8.281619    0.650963    5.937211
     94          1           0        8.864929    2.273061    6.657964
     95          1           0        6.455023   -2.629549    4.941654
     96          1           0        8.053835   -2.635429    4.129843
     97          1           0        7.058007   -4.123933    4.101316
     98          1           0        2.860181   -4.550834    0.519084
     99          1           0        4.895859   -5.362769   -3.024741
    100          1           0        6.435230   -6.105833   -2.454160
    101          1           0        6.556698   -4.517058   -3.038339
    102          1           0       -4.052995   -3.150327   -1.172601
    103          1           0       -3.736234   -2.093245   -2.674765
    104          1           0       -2.759551   -0.441099   -0.935276
    105          1           0       -6.490539   -1.257588    0.932870
    106          1           0       -5.710273   -2.635496   -0.055985
    107          1           0       -6.566958   -1.208249   -0.796997
    108          1           0       -3.499397    0.869130    0.789918
    109          1           0       -4.999512    0.573649    1.621073
    110          1           0       -5.467039    1.493021   -1.080235
    111          1           0       -4.629130    2.675458   -0.218031
    112          1           0       -6.320695    3.342740    0.980523
    113          1           0       -6.699049    1.783223    1.586616
    114          1           0       -7.641062    1.375397   -0.900486
    115          1           0       -8.874325    3.997761   -0.847966
    116          1           0       -8.017991    3.198145   -2.198264
    117          1           0       -7.134712    4.100996   -1.035946
    118          1           0       -9.775724    2.794945    0.649152
    119          1           0       -8.706766    2.033255    1.789805
    120          1           0      -10.187703    0.411495    1.426696
    121          1           0       -8.918852   -0.089007    0.499410
    122          1           0      -10.463251   -0.214199   -1.274920
    123          1           0      -10.822662    1.561905   -1.102459
    124          1           0      -12.328577    1.251722    0.737626
    125          1           0      -13.954024   -0.084814   -1.285632
    126          1           0      -12.803753    1.046193   -2.056003
    127          1           0      -13.954053    1.697466   -0.972714
    128          1           0      -11.485917   -1.244365    0.815094
    129          1           0      -12.967222   -1.566988   -0.121842
    130          1           0      -12.901059    0.073975    2.487322
    131          1           0      -12.834209   -1.705724    2.401009
    132          1           0      -15.070682   -1.660896    2.587859
    133          1           0      -14.908113   -1.378255    0.827068
    134          1           0      -14.556060    1.259757    1.918101
    135          1           0      -15.999237   -0.268344    4.137913
    136          1           0      -16.514024    1.449917    3.759314
    137          1           0      -14.828382    1.036808    4.089277
    138          1           0      -16.401564    1.636144    0.566262
    139          1           0      -17.502857    1.068618    1.643034
    140          1           0      -16.687182   -0.013604    0.367200
 ---------------------------------------------------------------------

 SCF Done:  E(RZINDO/S) =  -474.198579969     A.U. after   20 cycles

 Excitation energies and oscillator strengths:

 Excited State   1:      Singlet-A      1.4029 eV  883.74 nm  f=0.5326  <S**2>=0.000
     175 ->178        -0.16803
     176 ->177         0.66963
 This state for optimization and/or second-order correction.
 Total Energy, E(CIS/TDA) =  -474.147022762
 Copying the excited state density for this state as the 1-particle RhoCI density.

 Excited State   2:      Singlet-A      1.9254 eV  643.93 nm  f=0.0025  <S**2>=0.000
     175 ->177         0.44930
     176 ->178         0.51739

 Excited State   3:      Singlet-A      2.8928 eV  428.60 nm  f=0.0753  <S**2>=0.000
     171 ->177        -0.21094
     171 ->179        -0.29575
     171 ->181        -0.22685
     171 ->185         0.13026
     171 ->188        -0.16812
     171 ->204         0.10970
     176 ->179         0.40878
     176 ->181         0.14648

 Excited State   4:      Singlet-A      2.9721 eV  417.15 nm  f=0.0921  <S**2>=0.000
     171 ->177         0.18597
     171 ->179         0.25674
     171 ->181         0.19497
     171 ->185        -0.10788
     171 ->188         0.14627
     176 ->179         0.45800
     176 ->180        -0.17922

 Excited State   5:      Singlet-A      2.9926 eV  414.30 nm  f=0.2632  <S**2>=0.000
     168 ->177         0.20382
     168 ->178        -0.11819
     168 ->179        -0.26225
     168 ->180        -0.10682
     168 ->181         0.22946
     168 ->184        -0.10725
     168 ->185         0.16247
     170 ->177        -0.10240
     175 ->177        -0.21335
     176 ->178         0.19013
     176 ->179         0.11491
     176 ->180         0.30905
     176 ->181         0.13789

 The electronic state is 1-A.
 Alpha  occ. eigenvalues --   -1.87291  -1.83332  -1.80433  -1.73536  -1.71732
 Alpha  occ. eigenvalues --   -1.68076  -1.66366  -1.61396  -1.59124  -1.58783
 Alpha  occ. eigenvalues --   -1.52811  -1.48920  -1.47516  -1.47060  -1.45541
 Alpha  occ. eigenvalues --   -1.44088  -1.43305  -1.41536  -1.40259  -1.37653
 Alpha  occ. eigenvalues --   -1.37087  -1.35074  -1.33193  -1.31837  -1.29440
 Alpha  occ. eigenvalues --   -1.28536  -1.27939  -1.23856  -1.20042  -1.18339
 Alpha  occ. eigenvalues --   -1.16067  -1.15422  -1.14870  -1.14521  -1.13149
 Alpha  occ. eigenvalues --   -1.12009  -1.10539  -1.10294  -1.05310  -1.04855
 Alpha  occ. eigenvalues --   -1.01592  -1.01105  -0.99338  -0.98449  -0.95835
 Alpha  occ. eigenvalues --   -0.94802  -0.94705  -0.94051  -0.93621  -0.93250
 Alpha  occ. eigenvalues --   -0.91734  -0.91298  -0.90934  -0.88531  -0.86268
 Alpha  occ. eigenvalues --   -0.85140  -0.83929  -0.83268  -0.82479  -0.81173
 Alpha  occ. eigenvalues --   -0.79617  -0.78760  -0.77331  -0.77228  -0.76696
 Alpha  occ. eigenvalues --   -0.75699  -0.75036  -0.74294  -0.73631  -0.73209
 Alpha  occ. eigenvalues --   -0.72696  -0.72170  -0.71698  -0.70930  -0.70569
 Alpha  occ. eigenvalues --   -0.69733  -0.69357  -0.68940  -0.68600  -0.68099
 Alpha  occ. eigenvalues --   -0.67683  -0.67154  -0.66147  -0.65654  -0.65369
 Alpha  occ. eigenvalues --   -0.64951  -0.64495  -0.64229  -0.63908  -0.63497
 Alpha  occ. eigenvalues --   -0.63421  -0.63215  -0.62999  -0.62678  -0.62396
 Alpha  occ. eigenvalues --   -0.62028  -0.61791  -0.61598  -0.60899  -0.60382
 Alpha  occ. eigenvalues --   -0.59965  -0.59769  -0.59080  -0.58672  -0.58442
 Alpha  occ. eigenvalues --   -0.57852  -0.57653  -0.57217  -0.56649  -0.56465
 Alpha  occ. eigenvalues --   -0.56115  -0.56034  -0.55750  -0.55301  -0.54929
 Alpha  occ. eigenvalues --   -0.54661  -0.54489  -0.54056  -0.53510  -0.53175
 Alpha  occ. eigenvalues --   -0.52915  -0.52429  -0.52223  -0.51877  -0.51682
 Alpha  occ. eigenvalues --   -0.51388  -0.51020  -0.50687  -0.50426  -0.50037
 Alpha  occ. eigenvalues --   -0.49974  -0.49786  -0.49550  -0.49425  -0.49162
 Alpha  occ. eigenvalues --   -0.48918  -0.48714  -0.48397  -0.48328  -0.48045
 Alpha  occ. eigenvalues --   -0.47855  -0.47541  -0.47395  -0.47119  -0.46854
 Alpha  occ. eigenvalues --   -0.46607  -0.46346  -0.46270  -0.46156  -0.45877
 Alpha  occ. eigenvalues --   -0.45641  -0.45528  -0.44899  -0.44635  -0.44458
 Alpha  occ. eigenvalues --   -0.43686  -0.42965  -0.42457  -0.42278  -0.42115
 Alpha  occ. eigenvalues --   -0.41711  -0.41271  -0.40880  -0.39757  -0.39475
 Alpha  occ. eigenvalues --   -0.37863  -0.37272  -0.36391  -0.35551  -0.34246
 Alpha  occ. eigenvalues --   -0.33897  -0.32690  -0.32070  -0.31689  -0.27325
 Alpha  occ. eigenvalues --   -0.21956
 Alpha virt. eigenvalues --   -0.07854  -0.03139  -0.01040   0.00640   0.00894
 Alpha virt. eigenvalues --    0.01236   0.02498   0.03018   0.04313   0.05061
 Alpha virt. eigenvalues --    0.05934   0.06129   0.07092   0.07457   0.07770

 Mulliken charges:
               1
     1  Mg   0.430952
     2  C   -0.042878
     3  C   -0.097465
     4  C   -0.092330
     5  C   -0.059942
     6  N   -0.278856
     7  C    0.082011
     8  C    0.008987
     9  C    0.002963
    10  C    0.179741
    11  C   -0.051059
    12  C   -0.025006
    13  C    0.002472
    14  C    0.470012
    15  O   -0.516104
    16  O   -0.288616
    17  N   -0.330066
    18  C    0.150599
    19  C    0.063730
    20  C   -0.061288
    21  C    0.156575
    22  C   -0.028032
    23  C    0.326798
    24  O   -0.517290
    25  C   -0.026512
    26  N   -0.250122
    27  C    0.154666
    28  C   -0.002223
    29  C   -0.013892
    30  C    0.061801
    31  C   -0.052645
    32  C   -0.044660
    33  C   -0.063830
    34  N   -0.323868
    35  C    0.091136
    36  C    0.004378
    37  C   -0.059949
    38  C    0.095820
    39  C   -0.035007
    40  C    0.332013
    41  O   -0.544701
    42  C    0.058492
    43  C    0.489077
    44  O   -0.533795
    45  O   -0.274375
    46  C    0.074502
    47  C    0.107773
    48  C   -0.088500
    49  C   -0.022057
    50  C   -0.054606
    51  C   -0.016800
    52  C   -0.035680
    53  C   -0.035876
    54  C   -0.010881
    55  C   -0.057795
    56  C   -0.026140
    57  C   -0.040207
    58  C   -0.035079
    59  C   -0.015452
    60  C   -0.062139
    61  C   -0.037943
    62  C   -0.037228
    63  C   -0.030385
    64  C   -0.024000
    65  C   -0.067328
    66  C   -0.074989
    67  H    0.030202
    68  H    0.021710
    69  H    0.032731
    70  H    0.035791
    71  H    0.030246
    72  H    0.020203
    73  H    0.030067
    74  H    0.030059
    75  H    0.025008
    76  H    0.036511
    77  H    0.040713
    78  H    0.041273
    79  H    0.046360
    80  H    0.025375
    81  H    0.039129
    82  H    0.032389
    83  H    0.042791
    84  H    0.041663
    85  H    0.040671
    86  H    0.032887
    87  H    0.034583
    88  H    0.021711
    89  H    0.025455
    90  H    0.031425
    91  H    0.017015
    92  H    0.017290
    93  H    0.027351
    94  H    0.029299
    95  H    0.034236
    96  H    0.027788
    97  H    0.035186
    98  H    0.063741
    99  H    0.050294
   100  H    0.049309
   101  H    0.022368
   102  H    0.050118
   103  H    0.068077
   104  H    0.025612
   105  H    0.027965
   106  H    0.038929
   107  H    0.028908
   108  H    0.019964
   109  H    0.021409
   110  H    0.017100
   111  H    0.014525
   112  H    0.018061
   113  H    0.015450
   114  H    0.027713
   115  H    0.018875
   116  H    0.017591
   117  H    0.014327
   118  H    0.017682
   119  H    0.018114
   120  H    0.001140
   121  H    0.017241
   122  H    0.028235
   123  H    0.014281
   124  H    0.023175
   125  H    0.024834
   126  H    0.014012
   127  H    0.022301
   128  H    0.010215
   129  H    0.026145
   130  H    0.029187
   131  H    0.001952
   132  H    0.022183
   133  H    0.027809
   134  H    0.033300
   135  H    0.028526
   136  H    0.026437
   137  H    0.010612
   138  H    0.002798
   139  H    0.029388
   140  H    0.026081
 Sum of Mulliken charges =  -0.00000

 Dipole moment (field-independent basis, Debye):
    X=              2.3315    Y=              8.9733    Z=              0.2312  Tot=              9.2742
 N-N= 4.291729334305D+03 E-N= 0.000000000000D+00  KE=-9.257117382310D+03
 Leave Link  601 at Sat Apr 30 09:33:16 2022, MaxMem=  6710886400 cpu:               1.0 elap:               0.1
 (Enter /sw/apps/gaussian-16.0/g16/l9999.exe)
 1\1\GINC-BP1-COMPUTE148\SP\RZINDO CIS\STO-3G\C55H74Mg1N4O6\OF15641\30-
 Apr-2022\0\\#p ZINDO=(nstates=5)\\step_651_chromophore_5 ZINDO\\0,1\Mg
 ,0,24.357,-7.456,46.291\C,0,26.381,-4.781,45.189\C,0,21.748,-6.014,44.
 451\C,0,22.628,-10.246,46.476\C,0,27.363,-8.956,47.241\N,0,24.089,-5.6
 18,45.082\C,0,25.026,-4.658,44.762\C,0,24.446,-3.522,43.922\C,0,22.954
 ,-3.877,43.962\C,0,22.915,-5.242,44.554\C,0,21.988,-2.845,44.652\C,0,2
 5.035,-3.474,42.48\C,0,24.913,-2.059,41.723\C,0,24.081,-2.031,40.422\O

 Normal termination of Gaussian 16 at Sat Apr 30 09:33:16 2022.
