 Gaussian 16, Revision A.03,
 Gaussian 16:  ES64L-G16RevA.03 25-Dec-2016

 ------------------------------
 #p blyp/Def2SVP td=(nstates=5)
 ------------------------------

 --------------------------------------------------
 step_151_chromophore_12 TDDFT with blyp functional
 --------------------------------------------------
 Symbolic Z-matrix:
 Charge =  0 Multiplicity = 1

                         Standard orientation:
 ---------------------------------------------------------------------
 Center     Atomic      Atomic             Coordinates (Angstroms)
 Number     Number       Type             X           Y           Z
 ---------------------------------------------------------------------
      1         12           0       -4.073145    0.110701   -0.603325
      2          6           0       -2.900108   -2.894318    0.528918
      3          6           0       -0.833069    1.193802   -1.072831
      4          6           0       -5.283124    3.229123   -1.183498
      5          6           0       -7.343318   -0.752509    0.484962
      6          7           0       -2.069158   -0.746736   -0.322524
      7          6           0       -1.852796   -2.050657    0.114363
      8          6           0       -0.287795   -2.317575    0.084060
      9          6           0        0.283477   -0.862716   -0.001974
     10          6           0       -0.913056   -0.119741   -0.601900
     11          6           0        0.700125   -0.277342    1.371787
     12          6           0        0.106416   -3.263133   -1.167648
     13          6           0        1.157291   -4.356761   -0.819201
     14          6           0        2.406011   -4.458740   -1.655289
     15          8           0        2.315326   -4.871370   -2.840392
     16          8           0        3.581597   -4.036377   -1.089405
     17          7           0       -3.107319    1.975341   -1.170524
     18          6           0       -1.779013    2.184577   -1.359961
     19          6           0       -1.652009    3.551473   -1.761402
     20          6           0       -2.906780    4.213021   -1.736230
     21          6           0       -3.851019    3.121500   -1.342545
     22          6           0       -0.302289    4.113158   -2.161412
     23          6           0       -3.229014    5.676220   -2.003498
     24          8           0       -4.352082    6.125278   -1.827159
     25          6           0       -2.157981    6.616739   -2.493298
     26          7           0       -5.986495    1.132422   -0.402339
     27          6           0       -6.243219    2.351614   -0.750679
     28          6           0       -7.749661    2.631586   -0.932501
     29          6           0       -8.383464    1.368969   -0.356193
     30          6           0       -7.161818    0.500957   -0.113766
     31          6           0       -8.278680    4.043112   -0.437476
     32          6           0       -9.525733    0.829473   -1.143460
     33          6           0      -10.856514    0.867254   -0.401871
     34          7           0       -4.983801   -1.376477    0.405468
     35          6           0       -6.324550   -1.716910    0.664522
     36          6           0       -6.399412   -3.043155    1.260343
     37          6           0       -5.106658   -3.559634    1.155539
     38          6           0       -4.275295   -2.574598    0.576323
     39          6           0       -7.690667   -3.632037    1.660040
     40          6           0       -4.287352   -4.735993    1.377588
     41          8           0       -4.668710   -5.769458    1.892406
     42          6           0       -2.840935   -4.361030    1.002671
     43          6           0       -2.020755   -4.410425    2.201207
     44          8           0       -2.213035   -3.773020    3.188138
     45          8           0       -0.963484   -5.206056    1.920395
     46          6           0        0.112667   -5.217260    2.884590
     47          6           0        4.664573   -4.090737   -2.092893
     48          6           0        5.931581   -3.840491   -1.353742
     49          6           0        7.027834   -3.401579   -1.951023
     50          6           0        7.334031   -3.623637   -3.431513
     51          6           0        8.186812   -2.759583   -1.205030
     52          6           0        8.938964   -1.532182   -1.899162
     53          6           0       10.143146   -1.031102   -1.122850
     54          6           0       10.314407    0.441358   -1.037822
     55          6           0       11.731878    0.930242   -1.555823
     56          6           0       10.171562    0.950746    0.431372
     57          6           0        8.683123    0.991041    0.994556
     58          6           0        8.463793    2.035702    2.182474
     59          6           0        7.426790    3.139479    1.760641
     60          6           0        8.216048    4.504872    1.862448
     61          6           0        6.116307    3.090622    2.604733
     62          6           0        5.440388    4.495559    2.712403
     63          6           0        4.026919    4.487760    3.324069
     64          6           0        2.893364    5.225414    2.595490
     65          6           0        1.632688    5.394784    3.425542
     66          6           0        2.605272    4.680989    1.168340
     67          1           0        0.215452    1.498481   -1.050031
     68          1           0       -5.759316    4.172875   -1.457857
     69          1           0       -8.328645   -1.091040    0.811287
     70          1           0       -0.002220   -2.812191    1.012704
     71          1           0        1.147855   -0.766467   -0.659322
     72          1           0        1.492789    0.468792    1.329341
     73          1           0        1.015774   -1.144472    1.952176
     74          1           0       -0.151813    0.194123    1.861706
     75          1           0        0.409804   -2.622530   -1.996537
     76          1           0       -0.838000   -3.757004   -1.397324
     77          1           0        0.726191   -5.357032   -0.831308
     78          1           0        1.512868   -4.156664    0.191643
     79          1           0       -0.008950    4.974486   -1.562536
     80          1           0       -0.299537    4.490722   -3.183727
     81          1           0        0.454205    3.347491   -1.985386
     82          1           0       -1.427253    6.768038   -1.698121
     83          1           0       -2.548179    7.602541   -2.748325
     84          1           0       -1.746930    6.098262   -3.359392
     85          1           0       -7.742165    2.571400   -2.020669
     86          1           0       -8.702864    1.612918    0.656922
     87          1           0       -9.308242    3.974406   -0.088644
     88          1           0       -8.077794    4.712817   -1.273867
     89          1           0       -7.608334    4.439398    0.324392
     90          1           0       -9.302148   -0.207674   -1.391351
     91          1           0       -9.660910    1.374448   -2.077128
     92          1           0      -11.615992    1.397618   -0.976162
     93          1           0      -10.780796    1.312469    0.590691
     94          1           0      -11.074012   -0.186294   -0.227929
     95          1           0       -8.000908   -4.201823    0.784740
     96          1           0       -8.370225   -2.931752    2.145945
     97          1           0       -7.486374   -4.418182    2.387065
     98          1           0       -2.398949   -5.081588    0.314788
     99          1           0        0.632163   -6.170377    2.783697
    100          1           0       -0.194576   -5.225952    3.930132
    101          1           0        0.693669   -4.310437    2.719962
    102          1           0        4.470897   -3.275279   -2.789685
    103          1           0        4.558193   -5.129235   -2.406778
    104          1           0        5.824066   -3.578291   -0.300721
    105          1           0        8.400249   -3.777098   -3.593201
    106          1           0        7.178367   -2.686634   -3.966643
    107          1           0        6.863048   -4.525644   -3.824713
    108          1           0        8.881562   -3.457181   -0.738989
    109          1           0        7.643058   -2.286820   -0.387199
    110          1           0        8.163327   -0.780860   -2.046818
    111          1           0        9.299040   -1.889561   -2.863820
    112          1           0       10.911370   -1.468764   -1.758767
    113          1           0       10.274241   -1.569437   -0.183504
    114          1           0        9.691419    1.054983   -1.687613
    115          1           0       12.203496    1.080695   -0.584728
    116          1           0       11.583317    1.841356   -2.134465
    117          1           0       12.296032    0.191200   -2.124607
    118          1           0       10.696442    1.873558    0.675399
    119          1           0       10.685299    0.179286    1.005994
    120          1           0        8.662104    0.016577    1.482250
    121          1           0        8.053900    0.990274    0.104781
    122          1           0        9.440795    2.438715    2.448477
    123          1           0        8.124047    1.314991    2.925702
    124          1           0        7.088634    2.970602    0.738316
    125          1           0        9.228184    4.296989    1.516510
    126          1           0        8.237057    4.927235    2.867767
    127          1           0        7.628878    5.110869    1.173011
    128          1           0        6.227152    2.664140    3.601246
    129          1           0        5.464644    2.331403    2.173225
    130          1           0        5.377179    4.976005    1.735982
    131          1           0        6.039643    5.076848    3.413242
    132          1           0        4.124515    5.024132    4.268033
    133          1           0        3.663185    3.464715    3.420462
    134          1           0        3.258110    6.251217    2.541149
    135          1           0        0.759864    4.945525    2.950751
    136          1           0        1.386626    6.434696    3.640310
    137          1           0        1.801944    4.893717    4.379027
    138          1           0        2.767197    3.609718    1.048448
    139          1           0        3.263866    5.150996    0.438327
    140          1           0        1.545370    4.908515    1.054803
 ---------------------------------------------------------------------

 SCF Done:  E(RB-LYP) =  -3007.35840441     A.U. after   20 cycles

 Excitation energies and oscillator strengths:

 Excited State   1:      Singlet-A      1.8414 eV  673.30 nm  f=0.2774  <S**2>=0.000
     244 -> 247        0.15600
     245 -> 248        0.20203
     246 -> 247        0.66638
     246 <- 247       -0.13783
 This state for optimization and/or second-order correction.
 Total Energy, E(TD-HF/TD-DFT) =  -3007.29073314
 Copying the excited state density for this state as the 1-particle RhoCI density.

 Excited State   2:      Singlet-A      1.9107 eV  648.89 nm  f=0.0342  <S**2>=0.000
     244 -> 247        0.63114
     245 -> 247        0.25869
     246 -> 247       -0.16580

 Excited State   3:      Singlet-A      2.0085 eV  617.30 nm  f=0.0002  <S**2>=0.000
     243 -> 247        0.70640

 Excited State   4:      Singlet-A      2.0500 eV  604.80 nm  f=0.0703  <S**2>=0.000
     244 -> 247       -0.27303
     245 -> 247        0.59374
     246 -> 248       -0.25013

 Excited State   5:      Singlet-A      2.4227 eV  511.77 nm  f=0.0001  <S**2>=0.000
     241 -> 247        0.68051
     242 -> 247        0.19159

 The electronic state is 1-A.
 Alpha  occ. eigenvalues --  -46.27239 -18.82855 -18.82703 -18.76784 -18.76065
 Alpha  occ. eigenvalues --  -18.75578 -18.75279 -14.03394 -14.02720 -14.00881
 Alpha  occ. eigenvalues --  -14.00804 -10.03885 -10.03571  -9.99793  -9.99331
 Alpha  occ. eigenvalues --   -9.98187  -9.97909  -9.97138  -9.96373  -9.96278
 Alpha  occ. eigenvalues --   -9.96135  -9.95379  -9.95304  -9.95229  -9.95035
 Alpha  occ. eigenvalues --   -9.94727  -9.94465  -9.94381  -9.94227  -9.93766
 Alpha  occ. eigenvalues --   -9.93649  -9.93576  -9.93426  -9.93330  -9.92875
 Alpha  occ. eigenvalues --   -9.92823  -9.92685  -9.92676  -9.92669  -9.92660
 Alpha  occ. eigenvalues --   -9.92650  -9.92497  -9.92375  -9.92298  -9.92251
 Alpha  occ. eigenvalues --   -9.92229  -9.92202  -9.92137  -9.92066  -9.92012
 Alpha  occ. eigenvalues --   -9.91768  -9.91679  -9.91653  -9.91613  -9.91513
 Alpha  occ. eigenvalues --   -9.91504  -9.91458  -9.91336  -9.91331  -9.91279
 Alpha  occ. eigenvalues --   -9.91269  -9.91187  -9.90941  -9.90933  -9.90881
 Alpha  occ. eigenvalues --   -9.90744  -2.91823  -1.72243  -1.71712  -1.71532
 Alpha  occ. eigenvalues --   -0.99563  -0.97764  -0.91983  -0.91435  -0.91372
 Alpha  occ. eigenvalues --   -0.88386  -0.87694  -0.85998  -0.84957  -0.84217
 Alpha  occ. eigenvalues --   -0.75782  -0.74064  -0.73428  -0.73009  -0.72636
 Alpha  occ. eigenvalues --   -0.72213  -0.71489  -0.71136  -0.70840  -0.70154
 Alpha  occ. eigenvalues --   -0.69930  -0.69316  -0.68369  -0.68089  -0.67248
 Alpha  occ. eigenvalues --   -0.66804  -0.66151  -0.65402  -0.65173  -0.64714
 Alpha  occ. eigenvalues --   -0.64050  -0.62581  -0.62268  -0.61884  -0.61114
 Alpha  occ. eigenvalues --   -0.60989  -0.60463  -0.59954  -0.59777  -0.58930
 Alpha  occ. eigenvalues --   -0.58364  -0.57710  -0.56848  -0.55847  -0.54888
 Alpha  occ. eigenvalues --   -0.54081  -0.53919  -0.52730  -0.52450  -0.51825
 Alpha  occ. eigenvalues --   -0.51449  -0.51103  -0.50908  -0.50566  -0.49978
 Alpha  occ. eigenvalues --   -0.49320  -0.48994  -0.48937  -0.48338  -0.46366
 Alpha  occ. eigenvalues --   -0.46156  -0.45860  -0.45703  -0.45036  -0.44735
 Alpha  occ. eigenvalues --   -0.44316  -0.44124  -0.43440  -0.42945  -0.42751
 Alpha  occ. eigenvalues --   -0.42268  -0.42238  -0.41814  -0.41738  -0.41298
 Alpha  occ. eigenvalues --   -0.41158  -0.40994  -0.40722  -0.40634  -0.40390
 Alpha  occ. eigenvalues --   -0.40374  -0.40061  -0.39852  -0.39728  -0.39618
 Alpha  occ. eigenvalues --   -0.39120  -0.39098  -0.39037  -0.38856  -0.38480
 Alpha  occ. eigenvalues --   -0.38410  -0.37958  -0.37926  -0.37643  -0.37390
 Alpha  occ. eigenvalues --   -0.37184  -0.36976  -0.36825  -0.36531  -0.36229
 Alpha  occ. eigenvalues --   -0.36165  -0.36105  -0.36024  -0.35807  -0.35692
 Alpha  occ. eigenvalues --   -0.35413  -0.35294  -0.35265  -0.35007  -0.34860
 Alpha  occ. eigenvalues --   -0.34777  -0.34283  -0.34227  -0.34168  -0.34047
 Alpha  occ. eigenvalues --   -0.33918  -0.33710  -0.33633  -0.33427  -0.33236
 Alpha  occ. eigenvalues --   -0.33026  -0.32907  -0.32784  -0.32368  -0.32230
 Alpha  occ. eigenvalues --   -0.32170  -0.32031  -0.31956  -0.31861  -0.31565
 Alpha  occ. eigenvalues --   -0.31306  -0.31176  -0.31087  -0.30832  -0.30825
 Alpha  occ. eigenvalues --   -0.30647  -0.30470  -0.30390  -0.30251  -0.30129
 Alpha  occ. eigenvalues --   -0.29919  -0.29837  -0.29732  -0.29637  -0.29330
 Alpha  occ. eigenvalues --   -0.29138  -0.28641  -0.28403  -0.28123  -0.27608
 Alpha  occ. eigenvalues --   -0.27565  -0.27469  -0.27121  -0.26492  -0.26440
 Alpha  occ. eigenvalues --   -0.26361  -0.26146  -0.26021  -0.25503  -0.25418
 Alpha  occ. eigenvalues --   -0.25268  -0.25072  -0.24432  -0.23782  -0.23732
 Alpha  occ. eigenvalues --   -0.23258  -0.22667  -0.21834  -0.21163  -0.20630
 Alpha  occ. eigenvalues --   -0.20371  -0.20265  -0.18746  -0.18453  -0.17206
 Alpha  occ. eigenvalues --   -0.15910
 Alpha virt. eigenvalues --   -0.11462  -0.06770  -0.05978  -0.04418  -0.03603
 Alpha virt. eigenvalues --   -0.02897  -0.02264  -0.01922  -0.01335   0.00358
 Alpha virt. eigenvalues --    0.00696   0.01485   0.01897   0.02243   0.02293

 Mulliken charges:
               1
     1  Mg   0.680973
     2  C    0.021976
     3  C   -0.042789
     4  C   -0.028272
     5  C   -0.087358
     6  N   -0.212845
     7  C   -0.068679
     8  C   -0.016658
     9  C    0.006497
    10  C   -0.033012
    11  C    0.133896
    12  C    0.158171
    13  C    0.167355
    14  C    0.053163
    15  O   -0.250128
    16  O   -0.276591
    17  N   -0.260297
    18  C    0.153696
    19  C   -0.142384
    20  C    0.043567
    21  C    0.090533
    22  C    0.169193
    23  C   -0.092443
    24  O   -0.160512
    25  C    0.146378
    26  N   -0.149509
    27  C   -0.059922
    28  C   -0.008161
    29  C    0.059207
    30  C    0.014754
    31  C    0.140804
    32  C    0.132227
    33  C    0.053749
    34  N   -0.349571
    35  C    0.113220
    36  C   -0.198095
    37  C    0.098337
    38  C    0.114129
    39  C    0.184387
    40  C   -0.062215
    41  O   -0.120866
    42  C    0.104737
    43  C    0.055674
    44  O   -0.141922
    45  O   -0.257606
    46  C    0.215189
    47  C    0.331631
    48  C   -0.096690
    49  C   -0.165454
    50  C    0.148001
    51  C    0.095512
    52  C    0.027302
    53  C    0.182299
    54  C   -0.088581
    55  C    0.092137
    56  C    0.045243
    57  C    0.033600
    58  C    0.127744
    59  C   -0.078680
    60  C    0.123564
    61  C    0.074456
    62  C    0.081333
    63  C    0.108911
    64  C   -0.115779
    65  C    0.111697
    66  C    0.099902
    67  H   -0.067736
    68  H   -0.061038
    69  H   -0.064805
    70  H   -0.025602
    71  H   -0.037333
    72  H   -0.001212
    73  H   -0.010469
    74  H    0.006416
    75  H   -0.004219
    76  H   -0.014901
    77  H    0.011747
    78  H   -0.027529
    79  H   -0.006115
    80  H   -0.000033
    81  H   -0.018433
    82  H    0.010051
    83  H   -0.008857
    84  H    0.004529
    85  H   -0.018055
    86  H   -0.028434
    87  H    0.002089
    88  H    0.009231
    89  H   -0.002410
    90  H   -0.026627
    91  H   -0.025971
    92  H   -0.001554
    93  H   -0.012284
    94  H   -0.006642
    95  H    0.010416
    96  H    0.008830
    97  H   -0.005806
    98  H   -0.012970
    99  H    0.019172
   100  H    0.014611
   101  H    0.012314
   102  H    0.014247
   103  H    0.009813
   104  H   -0.034753
   105  H   -0.012683
   106  H    0.001425
   107  H    0.001199
   108  H   -0.004768
   109  H   -0.033040
   110  H   -0.020561
   111  H   -0.029180
   112  H   -0.046957
   113  H   -0.032315
   114  H   -0.037268
   115  H   -0.018966
   116  H   -0.008220
   117  H   -0.019166
   118  H   -0.030146
   119  H   -0.039854
   120  H   -0.030732
   121  H   -0.014731
   122  H   -0.024508
   123  H   -0.033026
   124  H   -0.029339
   125  H   -0.009900
   126  H   -0.005978
   127  H   -0.018465
   128  H   -0.038240
   129  H   -0.040448
   130  H   -0.028656
   131  H   -0.026240
   132  H   -0.037648
   133  H   -0.034640
   134  H   -0.046066
   135  H   -0.019738
   136  H   -0.012236
   137  H   -0.025658
   138  H   -0.016297
   139  H   -0.007706
   140  H   -0.009053
 Sum of Mulliken charges =  -0.00000

 Dipole moment (field-independent basis, Debye):
    X=              3.5478    Y=              2.3481    Z=             -1.4381  Tot=              4.4909
 Quadrupole moment (field-independent basis, Debye-Ang):
   XX=           -367.0141   YY=           -438.6391   ZZ=           -414.0056
   XY=             -7.7635   XZ=             10.9612   YZ=              1.6621

 Normal termination of Gaussian 16 at Thu Apr 28 09:55:57 2022.
