 Gaussian 16, Revision A.03,
 Gaussian 16:  ES64L-G16RevA.03 25-Dec-2016

 -----------------------------------
 #p cam-b3lyp/Def2SVP td=(nstates=5)
 -----------------------------------

 -------------------------------------------------------
 step_151_chromophore_12 TDDFT with cam-b3lyp functional
 -------------------------------------------------------
 Symbolic Z-matrix:
 Charge =  0 Multiplicity = 1

                         Standard orientation:
 ---------------------------------------------------------------------
 Center     Atomic      Atomic             Coordinates (Angstroms)
 Number     Number       Type             X           Y           Z
 ---------------------------------------------------------------------
      1         12           0       -4.073145    0.110701   -0.603325
      2          6           0       -2.900108   -2.894318    0.528918
      3          6           0       -0.833069    1.193802   -1.072831
      4          6           0       -5.283124    3.229123   -1.183498
      5          6           0       -7.343318   -0.752509    0.484962
      6          7           0       -2.069158   -0.746736   -0.322524
      7          6           0       -1.852796   -2.050657    0.114363
      8          6           0       -0.287795   -2.317575    0.084060
      9          6           0        0.283477   -0.862716   -0.001974
     10          6           0       -0.913056   -0.119741   -0.601900
     11          6           0        0.700125   -0.277342    1.371787
     12          6           0        0.106416   -3.263133   -1.167648
     13          6           0        1.157291   -4.356761   -0.819201
     14          6           0        2.406011   -4.458740   -1.655289
     15          8           0        2.315326   -4.871370   -2.840392
     16          8           0        3.581597   -4.036377   -1.089405
     17          7           0       -3.107319    1.975341   -1.170524
     18          6           0       -1.779013    2.184577   -1.359961
     19          6           0       -1.652009    3.551473   -1.761402
     20          6           0       -2.906780    4.213021   -1.736230
     21          6           0       -3.851019    3.121500   -1.342545
     22          6           0       -0.302289    4.113158   -2.161412
     23          6           0       -3.229014    5.676220   -2.003498
     24          8           0       -4.352082    6.125278   -1.827159
     25          6           0       -2.157981    6.616739   -2.493298
     26          7           0       -5.986495    1.132422   -0.402339
     27          6           0       -6.243219    2.351614   -0.750679
     28          6           0       -7.749661    2.631586   -0.932501
     29          6           0       -8.383464    1.368969   -0.356193
     30          6           0       -7.161818    0.500957   -0.113766
     31          6           0       -8.278680    4.043112   -0.437476
     32          6           0       -9.525733    0.829473   -1.143460
     33          6           0      -10.856514    0.867254   -0.401871
     34          7           0       -4.983801   -1.376477    0.405468
     35          6           0       -6.324550   -1.716910    0.664522
     36          6           0       -6.399412   -3.043155    1.260343
     37          6           0       -5.106658   -3.559634    1.155539
     38          6           0       -4.275295   -2.574598    0.576323
     39          6           0       -7.690667   -3.632037    1.660040
     40          6           0       -4.287352   -4.735993    1.377588
     41          8           0       -4.668710   -5.769458    1.892406
     42          6           0       -2.840935   -4.361030    1.002671
     43          6           0       -2.020755   -4.410425    2.201207
     44          8           0       -2.213035   -3.773020    3.188138
     45          8           0       -0.963484   -5.206056    1.920395
     46          6           0        0.112667   -5.217260    2.884590
     47          6           0        4.664573   -4.090737   -2.092893
     48          6           0        5.931581   -3.840491   -1.353742
     49          6           0        7.027834   -3.401579   -1.951023
     50          6           0        7.334031   -3.623637   -3.431513
     51          6           0        8.186812   -2.759583   -1.205030
     52          6           0        8.938964   -1.532182   -1.899162
     53          6           0       10.143146   -1.031102   -1.122850
     54          6           0       10.314407    0.441358   -1.037822
     55          6           0       11.731878    0.930242   -1.555823
     56          6           0       10.171562    0.950746    0.431372
     57          6           0        8.683123    0.991041    0.994556
     58          6           0        8.463793    2.035702    2.182474
     59          6           0        7.426790    3.139479    1.760641
     60          6           0        8.216048    4.504872    1.862448
     61          6           0        6.116307    3.090622    2.604733
     62          6           0        5.440388    4.495559    2.712403
     63          6           0        4.026919    4.487760    3.324069
     64          6           0        2.893364    5.225414    2.595490
     65          6           0        1.632688    5.394784    3.425542
     66          6           0        2.605272    4.680989    1.168340
     67          1           0        0.215452    1.498481   -1.050031
     68          1           0       -5.759316    4.172875   -1.457857
     69          1           0       -8.328645   -1.091040    0.811287
     70          1           0       -0.002220   -2.812191    1.012704
     71          1           0        1.147855   -0.766467   -0.659322
     72          1           0        1.492789    0.468792    1.329341
     73          1           0        1.015774   -1.144472    1.952176
     74          1           0       -0.151813    0.194123    1.861706
     75          1           0        0.409804   -2.622530   -1.996537
     76          1           0       -0.838000   -3.757004   -1.397324
     77          1           0        0.726191   -5.357032   -0.831308
     78          1           0        1.512868   -4.156664    0.191643
     79          1           0       -0.008950    4.974486   -1.562536
     80          1           0       -0.299537    4.490722   -3.183727
     81          1           0        0.454205    3.347491   -1.985386
     82          1           0       -1.427253    6.768038   -1.698121
     83          1           0       -2.548179    7.602541   -2.748325
     84          1           0       -1.746930    6.098262   -3.359392
     85          1           0       -7.742165    2.571400   -2.020669
     86          1           0       -8.702864    1.612918    0.656922
     87          1           0       -9.308242    3.974406   -0.088644
     88          1           0       -8.077794    4.712817   -1.273867
     89          1           0       -7.608334    4.439398    0.324392
     90          1           0       -9.302148   -0.207674   -1.391351
     91          1           0       -9.660910    1.374448   -2.077128
     92          1           0      -11.615992    1.397618   -0.976162
     93          1           0      -10.780796    1.312469    0.590691
     94          1           0      -11.074012   -0.186294   -0.227929
     95          1           0       -8.000908   -4.201823    0.784740
     96          1           0       -8.370225   -2.931752    2.145945
     97          1           0       -7.486374   -4.418182    2.387065
     98          1           0       -2.398949   -5.081588    0.314788
     99          1           0        0.632163   -6.170377    2.783697
    100          1           0       -0.194576   -5.225952    3.930132
    101          1           0        0.693669   -4.310437    2.719962
    102          1           0        4.470897   -3.275279   -2.789685
    103          1           0        4.558193   -5.129235   -2.406778
    104          1           0        5.824066   -3.578291   -0.300721
    105          1           0        8.400249   -3.777098   -3.593201
    106          1           0        7.178367   -2.686634   -3.966643
    107          1           0        6.863048   -4.525644   -3.824713
    108          1           0        8.881562   -3.457181   -0.738989
    109          1           0        7.643058   -2.286820   -0.387199
    110          1           0        8.163327   -0.780860   -2.046818
    111          1           0        9.299040   -1.889561   -2.863820
    112          1           0       10.911370   -1.468764   -1.758767
    113          1           0       10.274241   -1.569437   -0.183504
    114          1           0        9.691419    1.054983   -1.687613
    115          1           0       12.203496    1.080695   -0.584728
    116          1           0       11.583317    1.841356   -2.134465
    117          1           0       12.296032    0.191200   -2.124607
    118          1           0       10.696442    1.873558    0.675399
    119          1           0       10.685299    0.179286    1.005994
    120          1           0        8.662104    0.016577    1.482250
    121          1           0        8.053900    0.990274    0.104781
    122          1           0        9.440795    2.438715    2.448477
    123          1           0        8.124047    1.314991    2.925702
    124          1           0        7.088634    2.970602    0.738316
    125          1           0        9.228184    4.296989    1.516510
    126          1           0        8.237057    4.927235    2.867767
    127          1           0        7.628878    5.110869    1.173011
    128          1           0        6.227152    2.664140    3.601246
    129          1           0        5.464644    2.331403    2.173225
    130          1           0        5.377179    4.976005    1.735982
    131          1           0        6.039643    5.076848    3.413242
    132          1           0        4.124515    5.024132    4.268033
    133          1           0        3.663185    3.464715    3.420462
    134          1           0        3.258110    6.251217    2.541149
    135          1           0        0.759864    4.945525    2.950751
    136          1           0        1.386626    6.434696    3.640310
    137          1           0        1.801944    4.893717    4.379027
    138          1           0        2.767197    3.609718    1.048448
    139          1           0        3.263866    5.150996    0.438327
    140          1           0        1.545370    4.908515    1.054803
 ---------------------------------------------------------------------

 SCF Done:  E(RCAM-B3LYP) =  -3007.15884870     A.U. after   19 cycles

 Excitation energies and oscillator strengths:

 Excited State   1:      Singlet-A      1.7360 eV  714.21 nm  f=0.3779  <S**2>=0.000
     245 -> 248       -0.19227
     246 -> 247        0.68308
     245 <- 248       -0.11099
 This state for optimization and/or second-order correction.
 Total Energy, E(TD-HF/TD-DFT) =  -3007.09505332
 Copying the excited state density for this state as the 1-particle RhoCI density.

 Excited State   2:      Singlet-A      2.2318 eV  555.54 nm  f=0.1071  <S**2>=0.000
     245 -> 247        0.63846
     246 -> 248        0.29384

 Excited State   3:      Singlet-A      3.3796 eV  366.86 nm  f=0.0315  <S**2>=0.000
     243 -> 247       -0.31288
     244 -> 247        0.58476
     246 -> 248        0.20618

 Excited State   4:      Singlet-A      3.5134 eV  352.89 nm  f=0.1991  <S**2>=0.000
     243 -> 247       -0.38455
     244 -> 247       -0.36795
     245 -> 247       -0.14825
     246 -> 248        0.42241

 Excited State   5:      Singlet-A      3.6196 eV  342.54 nm  f=0.0001  <S**2>=0.000
     240 -> 247        0.56322
     240 -> 249        0.32099
     240 -> 251       -0.21920

 The electronic state is 1-A.
 Alpha  occ. eigenvalues --  -46.88785 -19.25877 -19.25620 -19.19913 -19.19068
 Alpha  occ. eigenvalues --  -19.18759 -19.18642 -14.42327 -14.41457 -14.39363
 Alpha  occ. eigenvalues --  -14.39169 -10.39262 -10.38904 -10.35113 -10.34569
 Alpha  occ. eigenvalues --  -10.32263 -10.31987 -10.31632 -10.30911 -10.30888
 Alpha  occ. eigenvalues --  -10.30406 -10.29786 -10.29707 -10.29325 -10.29223
 Alpha  occ. eigenvalues --  -10.28938 -10.28707 -10.28484 -10.28424 -10.28207
 Alpha  occ. eigenvalues --  -10.27888 -10.27758 -10.27642 -10.27244 -10.27228
 Alpha  occ. eigenvalues --  -10.27061 -10.26993 -10.26721 -10.26613 -10.26403
 Alpha  occ. eigenvalues --  -10.26393 -10.26307 -10.26194 -10.26066 -10.26015
 Alpha  occ. eigenvalues --  -10.25993 -10.25985 -10.25889 -10.25791 -10.25655
 Alpha  occ. eigenvalues --  -10.25624 -10.25504 -10.25420 -10.25247 -10.25242
 Alpha  occ. eigenvalues --  -10.25234 -10.25227 -10.25224 -10.25042 -10.25025
 Alpha  occ. eigenvalues --  -10.25001 -10.24875 -10.24848 -10.24638 -10.24597
 Alpha  occ. eigenvalues --  -10.24370  -3.17270  -1.92166  -1.91725  -1.91567
 Alpha  occ. eigenvalues --   -1.18235  -1.16197  -1.10233  -1.09926  -1.09662
 Alpha  occ. eigenvalues --   -1.06269  -1.05405  -1.03736  -1.02594  -1.01633
 Alpha  occ. eigenvalues --   -0.92901  -0.91007  -0.90111  -0.89842  -0.89428
 Alpha  occ. eigenvalues --   -0.88956  -0.88159  -0.87778  -0.87412  -0.86820
 Alpha  occ. eigenvalues --   -0.86443  -0.85729  -0.84610  -0.84295  -0.83371
 Alpha  occ. eigenvalues --   -0.82887  -0.82248  -0.81483  -0.81041  -0.80647
 Alpha  occ. eigenvalues --   -0.79861  -0.78244  -0.77937  -0.77492  -0.76572
 Alpha  occ. eigenvalues --   -0.76418  -0.75894  -0.75248  -0.75115  -0.74194
 Alpha  occ. eigenvalues --   -0.73439  -0.72685  -0.71729  -0.70677  -0.69461
 Alpha  occ. eigenvalues --   -0.68738  -0.68545  -0.67260  -0.66848  -0.65871
 Alpha  occ. eigenvalues --   -0.65646  -0.65360  -0.64923  -0.64572  -0.64028
 Alpha  occ. eigenvalues --   -0.63253  -0.62861  -0.62789  -0.62251  -0.60081
 Alpha  occ. eigenvalues --   -0.59804  -0.59442  -0.59159  -0.58518  -0.58207
 Alpha  occ. eigenvalues --   -0.57692  -0.57578  -0.56665  -0.56200  -0.55939
 Alpha  occ. eigenvalues --   -0.55561  -0.55074  -0.54977  -0.54608  -0.54330
 Alpha  occ. eigenvalues --   -0.54051  -0.53725  -0.53459  -0.53264  -0.53055
 Alpha  occ. eigenvalues --   -0.52965  -0.52861  -0.52695  -0.52368  -0.52298
 Alpha  occ. eigenvalues --   -0.52149  -0.51637  -0.51416  -0.51344  -0.50818
 Alpha  occ. eigenvalues --   -0.50667  -0.50396  -0.50241  -0.50113  -0.49895
 Alpha  occ. eigenvalues --   -0.49737  -0.49419  -0.49269  -0.49030  -0.48744
 Alpha  occ. eigenvalues --   -0.48547  -0.48245  -0.48167  -0.48005  -0.47839
 Alpha  occ. eigenvalues --   -0.47665  -0.47354  -0.47224  -0.47088  -0.46888
 Alpha  occ. eigenvalues --   -0.46697  -0.46095  -0.46023  -0.45968  -0.45940
 Alpha  occ. eigenvalues --   -0.45662  -0.45592  -0.45328  -0.45205  -0.45063
 Alpha  occ. eigenvalues --   -0.44782  -0.44695  -0.44468  -0.44050  -0.43925
 Alpha  occ. eigenvalues --   -0.43912  -0.43667  -0.43612  -0.43397  -0.43125
 Alpha  occ. eigenvalues --   -0.42940  -0.42744  -0.42543  -0.42425  -0.42320
 Alpha  occ. eigenvalues --   -0.42121  -0.41975  -0.41874  -0.41653  -0.41514
 Alpha  occ. eigenvalues --   -0.41295  -0.41032  -0.40911  -0.40881  -0.40628
 Alpha  occ. eigenvalues --   -0.40280  -0.39656  -0.39347  -0.39138  -0.38526
 Alpha  occ. eigenvalues --   -0.38473  -0.38447  -0.37943  -0.37855  -0.37422
 Alpha  occ. eigenvalues --   -0.37187  -0.37128  -0.37049  -0.36756  -0.36233
 Alpha  occ. eigenvalues --   -0.36167  -0.35726  -0.34952  -0.34871  -0.34173
 Alpha  occ. eigenvalues --   -0.34063  -0.33211  -0.33102  -0.31235  -0.30851
 Alpha  occ. eigenvalues --   -0.30847  -0.30409  -0.29970  -0.29554  -0.23932
 Alpha  occ. eigenvalues --   -0.21200
 Alpha virt. eigenvalues --   -0.08542  -0.01693   0.00619   0.02084   0.02622
 Alpha virt. eigenvalues --    0.04046   0.05181   0.05912   0.05961   0.06345
 Alpha virt. eigenvalues --    0.07205   0.07979   0.08342   0.08501   0.08920

 Mulliken charges:
               1
     1  Mg   0.811384
     2  C   -0.017231
     3  C   -0.059072
     4  C   -0.051506
     5  C   -0.090693
     6  N   -0.281153
     7  C   -0.027069
     8  C   -0.058757
     9  C   -0.050216
    10  C   -0.008330
    11  C    0.083047
    12  C    0.106855
    13  C    0.099594
    14  C    0.135725
    15  O   -0.290836
    16  O   -0.340811
    17  N   -0.347815
    18  C    0.160152
    19  C   -0.147407
    20  C   -0.025816
    21  C    0.121906
    22  C    0.116627
    23  C   -0.010567
    24  O   -0.200539
    25  C    0.065077
    26  N   -0.225867
    27  C   -0.027111
    28  C   -0.062369
    29  C   -0.005243
    30  C    0.036200
    31  C    0.082338
    32  C    0.068513
    33  C   -0.006728
    34  N   -0.430920
    35  C    0.113781
    36  C   -0.190912
    37  C    0.021633
    38  C    0.146313
    39  C    0.125980
    40  C    0.035510
    41  O   -0.159924
    42  C    0.026664
    43  C    0.148899
    44  O   -0.177253
    45  O   -0.321235
    46  C    0.174086
    47  C    0.289772
    48  C   -0.115314
    49  C   -0.176865
    50  C    0.074713
    51  C    0.040446
    52  C   -0.019879
    53  C    0.119310
    54  C   -0.150260
    55  C    0.040413
    56  C   -0.002141
    57  C   -0.016350
    58  C    0.073731
    59  C   -0.134501
    60  C    0.062464
    61  C    0.033086
    62  C    0.018225
    63  C    0.058665
    64  C   -0.172416
    65  C    0.048156
    66  C    0.045611
    67  H   -0.035517
    68  H   -0.021591
    69  H   -0.029869
    70  H    0.001252
    71  H   -0.001332
    72  H    0.020827
    73  H    0.011935
    74  H    0.032075
    75  H    0.025974
    76  H    0.016553
    77  H    0.043327
    78  H    0.004321
    79  H    0.018272
    80  H    0.026940
    81  H    0.009147
    82  H    0.037662
    83  H    0.027680
    84  H    0.029360
    85  H    0.016609
    86  H    0.007555
    87  H    0.025678
    88  H    0.031633
    89  H    0.023661
    90  H    0.005553
    91  H    0.004342
    92  H    0.022260
    93  H    0.010483
    94  H    0.015996
    95  H    0.037105
    96  H    0.032285
    97  H    0.023044
    98  H    0.031603
    99  H    0.042864
   100  H    0.041694
   101  H    0.030512
   102  H    0.042302
   103  H    0.042213
   104  H    0.000889
   105  H    0.013642
   106  H    0.026292
   107  H    0.027274
   108  H    0.023222
   109  H   -0.005651
   110  H    0.005238
   111  H   -0.002651
   112  H   -0.014636
   113  H   -0.002755
   114  H   -0.004526
   115  H    0.004544
   116  H    0.015282
   117  H    0.005428
   118  H   -0.003623
   119  H   -0.012389
   120  H   -0.003466
   121  H    0.008458
   122  H    0.003517
   123  H   -0.002984
   124  H    0.001649
   125  H    0.012895
   126  H    0.017633
   127  H    0.005725
   128  H   -0.009243
   129  H   -0.013415
   130  H   -0.003157
   131  H    0.002384
   132  H   -0.008230
   133  H   -0.008041
   134  H   -0.013405
   135  H    0.005093
   136  H    0.012813
   137  H    0.000839
   138  H    0.003717
   139  H    0.014460
   140  H    0.010997
 Sum of Mulliken charges =  -0.00000

 Dipole moment (field-independent basis, Debye):
    X=              4.0546    Y=              2.8344    Z=             -1.6393  Tot=              5.2116
 Quadrupole moment (field-independent basis, Debye-Ang):
   XX=           -367.2391   YY=           -435.6186   ZZ=           -413.8344
   XY=             -9.1380   XZ=             11.9143   YZ=             -0.3370

 Normal termination of Gaussian 16 at Thu Apr 28 08:52:30 2022.
