 Gaussian 16, Revision A.03,
 Gaussian 16:  ES64L-G16RevA.03 25-Dec-2016

 ---------------------------------
 #p PBE1PBE/Def2SVP td=(nstates=5)
 ---------------------------------

 -----------------------------------------------------
 step_151_chromophore_12 TDDFT with PBE1PBE functional
 -----------------------------------------------------
 Symbolic Z-matrix:
 Charge =  0 Multiplicity = 1

                         Standard orientation:
 ---------------------------------------------------------------------
 Center     Atomic      Atomic             Coordinates (Angstroms)
 Number     Number       Type             X           Y           Z
 ---------------------------------------------------------------------
      1         12           0       -4.073145    0.110701   -0.603325
      2          6           0       -2.900108   -2.894318    0.528918
      3          6           0       -0.833069    1.193802   -1.072831
      4          6           0       -5.283124    3.229123   -1.183498
      5          6           0       -7.343318   -0.752509    0.484962
      6          7           0       -2.069158   -0.746736   -0.322524
      7          6           0       -1.852796   -2.050657    0.114363
      8          6           0       -0.287795   -2.317575    0.084060
      9          6           0        0.283477   -0.862716   -0.001974
     10          6           0       -0.913056   -0.119741   -0.601900
     11          6           0        0.700125   -0.277342    1.371787
     12          6           0        0.106416   -3.263133   -1.167648
     13          6           0        1.157291   -4.356761   -0.819201
     14          6           0        2.406011   -4.458740   -1.655289
     15          8           0        2.315326   -4.871370   -2.840392
     16          8           0        3.581597   -4.036377   -1.089405
     17          7           0       -3.107319    1.975341   -1.170524
     18          6           0       -1.779013    2.184577   -1.359961
     19          6           0       -1.652009    3.551473   -1.761402
     20          6           0       -2.906780    4.213021   -1.736230
     21          6           0       -3.851019    3.121500   -1.342545
     22          6           0       -0.302289    4.113158   -2.161412
     23          6           0       -3.229014    5.676220   -2.003498
     24          8           0       -4.352082    6.125278   -1.827159
     25          6           0       -2.157981    6.616739   -2.493298
     26          7           0       -5.986495    1.132422   -0.402339
     27          6           0       -6.243219    2.351614   -0.750679
     28          6           0       -7.749661    2.631586   -0.932501
     29          6           0       -8.383464    1.368969   -0.356193
     30          6           0       -7.161818    0.500957   -0.113766
     31          6           0       -8.278680    4.043112   -0.437476
     32          6           0       -9.525733    0.829473   -1.143460
     33          6           0      -10.856514    0.867254   -0.401871
     34          7           0       -4.983801   -1.376477    0.405468
     35          6           0       -6.324550   -1.716910    0.664522
     36          6           0       -6.399412   -3.043155    1.260343
     37          6           0       -5.106658   -3.559634    1.155539
     38          6           0       -4.275295   -2.574598    0.576323
     39          6           0       -7.690667   -3.632037    1.660040
     40          6           0       -4.287352   -4.735993    1.377588
     41          8           0       -4.668710   -5.769458    1.892406
     42          6           0       -2.840935   -4.361030    1.002671
     43          6           0       -2.020755   -4.410425    2.201207
     44          8           0       -2.213035   -3.773020    3.188138
     45          8           0       -0.963484   -5.206056    1.920395
     46          6           0        0.112667   -5.217260    2.884590
     47          6           0        4.664573   -4.090737   -2.092893
     48          6           0        5.931581   -3.840491   -1.353742
     49          6           0        7.027834   -3.401579   -1.951023
     50          6           0        7.334031   -3.623637   -3.431513
     51          6           0        8.186812   -2.759583   -1.205030
     52          6           0        8.938964   -1.532182   -1.899162
     53          6           0       10.143146   -1.031102   -1.122850
     54          6           0       10.314407    0.441358   -1.037822
     55          6           0       11.731878    0.930242   -1.555823
     56          6           0       10.171562    0.950746    0.431372
     57          6           0        8.683123    0.991041    0.994556
     58          6           0        8.463793    2.035702    2.182474
     59          6           0        7.426790    3.139479    1.760641
     60          6           0        8.216048    4.504872    1.862448
     61          6           0        6.116307    3.090622    2.604733
     62          6           0        5.440388    4.495559    2.712403
     63          6           0        4.026919    4.487760    3.324069
     64          6           0        2.893364    5.225414    2.595490
     65          6           0        1.632688    5.394784    3.425542
     66          6           0        2.605272    4.680989    1.168340
     67          1           0        0.215452    1.498481   -1.050031
     68          1           0       -5.759316    4.172875   -1.457857
     69          1           0       -8.328645   -1.091040    0.811287
     70          1           0       -0.002220   -2.812191    1.012704
     71          1           0        1.147855   -0.766467   -0.659322
     72          1           0        1.492789    0.468792    1.329341
     73          1           0        1.015774   -1.144472    1.952176
     74          1           0       -0.151813    0.194123    1.861706
     75          1           0        0.409804   -2.622530   -1.996537
     76          1           0       -0.838000   -3.757004   -1.397324
     77          1           0        0.726191   -5.357032   -0.831308
     78          1           0        1.512868   -4.156664    0.191643
     79          1           0       -0.008950    4.974486   -1.562536
     80          1           0       -0.299537    4.490722   -3.183727
     81          1           0        0.454205    3.347491   -1.985386
     82          1           0       -1.427253    6.768038   -1.698121
     83          1           0       -2.548179    7.602541   -2.748325
     84          1           0       -1.746930    6.098262   -3.359392
     85          1           0       -7.742165    2.571400   -2.020669
     86          1           0       -8.702864    1.612918    0.656922
     87          1           0       -9.308242    3.974406   -0.088644
     88          1           0       -8.077794    4.712817   -1.273867
     89          1           0       -7.608334    4.439398    0.324392
     90          1           0       -9.302148   -0.207674   -1.391351
     91          1           0       -9.660910    1.374448   -2.077128
     92          1           0      -11.615992    1.397618   -0.976162
     93          1           0      -10.780796    1.312469    0.590691
     94          1           0      -11.074012   -0.186294   -0.227929
     95          1           0       -8.000908   -4.201823    0.784740
     96          1           0       -8.370225   -2.931752    2.145945
     97          1           0       -7.486374   -4.418182    2.387065
     98          1           0       -2.398949   -5.081588    0.314788
     99          1           0        0.632163   -6.170377    2.783697
    100          1           0       -0.194576   -5.225952    3.930132
    101          1           0        0.693669   -4.310437    2.719962
    102          1           0        4.470897   -3.275279   -2.789685
    103          1           0        4.558193   -5.129235   -2.406778
    104          1           0        5.824066   -3.578291   -0.300721
    105          1           0        8.400249   -3.777098   -3.593201
    106          1           0        7.178367   -2.686634   -3.966643
    107          1           0        6.863048   -4.525644   -3.824713
    108          1           0        8.881562   -3.457181   -0.738989
    109          1           0        7.643058   -2.286820   -0.387199
    110          1           0        8.163327   -0.780860   -2.046818
    111          1           0        9.299040   -1.889561   -2.863820
    112          1           0       10.911370   -1.468764   -1.758767
    113          1           0       10.274241   -1.569437   -0.183504
    114          1           0        9.691419    1.054983   -1.687613
    115          1           0       12.203496    1.080695   -0.584728
    116          1           0       11.583317    1.841356   -2.134465
    117          1           0       12.296032    0.191200   -2.124607
    118          1           0       10.696442    1.873558    0.675399
    119          1           0       10.685299    0.179286    1.005994
    120          1           0        8.662104    0.016577    1.482250
    121          1           0        8.053900    0.990274    0.104781
    122          1           0        9.440795    2.438715    2.448477
    123          1           0        8.124047    1.314991    2.925702
    124          1           0        7.088634    2.970602    0.738316
    125          1           0        9.228184    4.296989    1.516510
    126          1           0        8.237057    4.927235    2.867767
    127          1           0        7.628878    5.110869    1.173011
    128          1           0        6.227152    2.664140    3.601246
    129          1           0        5.464644    2.331403    2.173225
    130          1           0        5.377179    4.976005    1.735982
    131          1           0        6.039643    5.076848    3.413242
    132          1           0        4.124515    5.024132    4.268033
    133          1           0        3.663185    3.464715    3.420462
    134          1           0        3.258110    6.251217    2.541149
    135          1           0        0.759864    4.945525    2.950751
    136          1           0        1.386626    6.434696    3.640310
    137          1           0        1.801944    4.893717    4.379027
    138          1           0        2.767197    3.609718    1.048448
    139          1           0        3.263866    5.150996    0.438327
    140          1           0        1.545370    4.908515    1.054803
 ---------------------------------------------------------------------

 SCF Done:  E(RPBE1PBE) =  -3005.34747314     A.U. after   15 cycles

 Excitation energies and oscillator strengths:

 Excited State   1:      Singlet-A      1.8920 eV  655.31 nm  f=0.3665  <S**2>=0.000
     245 -> 248       -0.18626
     246 -> 247        0.68969
     246 <- 247       -0.10081
 This state for optimization and/or second-order correction.
 Total Energy, E(TD-HF/TD-DFT) =  -3005.27794402
 Copying the excited state density for this state as the 1-particle RhoCI density.

 Excited State   2:      Singlet-A      2.2441 eV  552.50 nm  f=0.1046  <S**2>=0.000
     245 -> 247        0.65023
     246 -> 248        0.26868

 Excited State   3:      Singlet-A      3.0502 eV  406.49 nm  f=0.0013  <S**2>=0.000
     243 -> 247       -0.27626
     244 -> 247        0.62592

 Excited State   4:      Singlet-A      3.0852 eV  401.86 nm  f=0.0004  <S**2>=0.000
     242 -> 247        0.28872
     243 -> 247        0.53932
     243 -> 249       -0.10528
     244 -> 247        0.30536

 Excited State   5:      Singlet-A      3.1003 eV  399.90 nm  f=0.0001  <S**2>=0.000
     240 -> 247        0.66792
     240 -> 249        0.17668

 The electronic state is 1-A.
 Alpha  occ. eigenvalues --  -46.92196 -19.26521 -19.26339 -19.20102 -19.19432
 Alpha  occ. eigenvalues --  -19.19040 -19.18756 -14.41830 -14.40972 -14.38998
 Alpha  occ. eigenvalues --  -14.38939 -10.36353 -10.35887 -10.32154 -10.31778
 Alpha  occ. eigenvalues --  -10.29496 -10.29485 -10.29392 -10.28536 -10.28512
 Alpha  occ. eigenvalues --  -10.28238 -10.27339 -10.27319 -10.27205 -10.27093
 Alpha  occ. eigenvalues --  -10.26789 -10.26549 -10.26262 -10.25945 -10.25852
 Alpha  occ. eigenvalues --  -10.25533 -10.25468 -10.25257 -10.25058 -10.24857
 Alpha  occ. eigenvalues --  -10.24698 -10.24582 -10.24331 -10.24253 -10.24055
 Alpha  occ. eigenvalues --  -10.24014 -10.23849 -10.23608 -10.23571 -10.23562
 Alpha  occ. eigenvalues --  -10.23554 -10.23395 -10.23373 -10.23329 -10.23301
 Alpha  occ. eigenvalues --  -10.23298 -10.23134 -10.23023 -10.22812 -10.22781
 Alpha  occ. eigenvalues --  -10.22773 -10.22759 -10.22703 -10.22700 -10.22652
 Alpha  occ. eigenvalues --  -10.22555 -10.22387 -10.22263 -10.22167 -10.22036
 Alpha  occ. eigenvalues --  -10.21730  -3.14263  -1.87099  -1.86637  -1.86483
 Alpha  occ. eigenvalues --   -1.13007  -1.11044  -1.05033  -1.04568  -1.04489
 Alpha  occ. eigenvalues --   -1.01148  -1.00074  -0.98313  -0.97209  -0.96375
 Alpha  occ. eigenvalues --   -0.87304  -0.85143  -0.84451  -0.83956  -0.83526
 Alpha  occ. eigenvalues --   -0.83165  -0.82475  -0.81874  -0.81756  -0.81021
 Alpha  occ. eigenvalues --   -0.80824  -0.79972  -0.78867  -0.78540  -0.77643
 Alpha  occ. eigenvalues --   -0.77071  -0.76511  -0.75704  -0.75299  -0.74943
 Alpha  occ. eigenvalues --   -0.74019  -0.72562  -0.72203  -0.71784  -0.70890
 Alpha  occ. eigenvalues --   -0.70578  -0.69954  -0.69610  -0.69228  -0.68363
 Alpha  occ. eigenvalues --   -0.67784  -0.67148  -0.66172  -0.65008  -0.63852
 Alpha  occ. eigenvalues --   -0.63092  -0.62883  -0.61673  -0.61135  -0.60300
 Alpha  occ. eigenvalues --   -0.60078  -0.59567  -0.59498  -0.59153  -0.58151
 Alpha  occ. eigenvalues --   -0.57749  -0.57371  -0.57027  -0.56428  -0.54583
 Alpha  occ. eigenvalues --   -0.54293  -0.53966  -0.53626  -0.53035  -0.52809
 Alpha  occ. eigenvalues --   -0.52218  -0.52001  -0.51124  -0.50762  -0.50526
 Alpha  occ. eigenvalues --   -0.50181  -0.49576  -0.49423  -0.48998  -0.48882
 Alpha  occ. eigenvalues --   -0.48652  -0.48232  -0.48002  -0.47866  -0.47538
 Alpha  occ. eigenvalues --   -0.47426  -0.47347  -0.47046  -0.46949  -0.46821
 Alpha  occ. eigenvalues --   -0.46709  -0.46292  -0.45958  -0.45883  -0.45486
 Alpha  occ. eigenvalues --   -0.45186  -0.44983  -0.44875  -0.44735  -0.44415
 Alpha  occ. eigenvalues --   -0.44292  -0.43980  -0.43849  -0.43609  -0.43373
 Alpha  occ. eigenvalues --   -0.43051  -0.42887  -0.42773  -0.42690  -0.42444
 Alpha  occ. eigenvalues --   -0.42361  -0.42006  -0.41867  -0.41702  -0.41531
 Alpha  occ. eigenvalues --   -0.41327  -0.40813  -0.40761  -0.40715  -0.40588
 Alpha  occ. eigenvalues --   -0.40377  -0.40257  -0.39994  -0.39942  -0.39822
 Alpha  occ. eigenvalues --   -0.39575  -0.39355  -0.39281  -0.38838  -0.38762
 Alpha  occ. eigenvalues --   -0.38576  -0.38477  -0.38350  -0.38103  -0.37908
 Alpha  occ. eigenvalues --   -0.37787  -0.37542  -0.37357  -0.37206  -0.37143
 Alpha  occ. eigenvalues --   -0.36938  -0.36776  -0.36705  -0.36562  -0.36382
 Alpha  occ. eigenvalues --   -0.36030  -0.35793  -0.35757  -0.35664  -0.35545
 Alpha  occ. eigenvalues --   -0.35094  -0.34612  -0.34180  -0.34108  -0.33488
 Alpha  occ. eigenvalues --   -0.33326  -0.33226  -0.32803  -0.32777  -0.32451
 Alpha  occ. eigenvalues --   -0.32089  -0.31990  -0.31878  -0.31809  -0.31308
 Alpha  occ. eigenvalues --   -0.31062  -0.30515  -0.29862  -0.29658  -0.29387
 Alpha  occ. eigenvalues --   -0.29094  -0.28745  -0.28015  -0.26872  -0.25741
 Alpha  occ. eigenvalues --   -0.25658  -0.25617  -0.25501  -0.25215  -0.20889
 Alpha  occ. eigenvalues --   -0.18845
 Alpha virt. eigenvalues --   -0.11038  -0.05170  -0.03649  -0.01824  -0.00654
 Alpha virt. eigenvalues --   -0.00514   0.00724   0.01235   0.01513   0.03192
 Alpha virt. eigenvalues --    0.03382   0.04278   0.04783   0.05103   0.05217

 Mulliken charges:
               1
     1  Mg   0.955863
     2  C   -0.050494
     3  C   -0.066695
     4  C   -0.046384
     5  C   -0.077622
     6  N   -0.382474
     7  C    0.053448
     8  C   -0.140743
     9  C   -0.129348
    10  C    0.040784
    11  C    0.028827
    12  C    0.061055
    13  C    0.020530
    14  C    0.198542
    15  O   -0.317941
    16  O   -0.371645
    17  N   -0.460884
    18  C    0.191000
    19  C   -0.181657
    20  C   -0.077743
    21  C    0.159784
    22  C    0.059884
    23  C    0.040966
    24  O   -0.238562
    25  C   -0.010395
    26  N   -0.337582
    27  C    0.019793
    28  C   -0.136848
    29  C   -0.088069
    30  C    0.070970
    31  C    0.019166
    32  C    0.008192
    33  C   -0.077489
    34  N   -0.540947
    35  C    0.133450
    36  C   -0.204916
    37  C   -0.034624
    38  C    0.197344
    39  C    0.068738
    40  C    0.138394
    41  O   -0.207265
    42  C   -0.088111
    43  C    0.251659
    44  O   -0.213466
    45  O   -0.356177
    46  C    0.117527
    47  C    0.246272
    48  C   -0.129778
    49  C   -0.208181
    50  C    0.007455
    51  C   -0.026334
    52  C   -0.082606
    53  C    0.069652
    54  C   -0.239647
    55  C   -0.017530
    56  C   -0.057776
    57  C   -0.077624
    58  C    0.020788
    59  C   -0.219492
    60  C   -0.005934
    61  C   -0.010029
    62  C   -0.054754
    63  C    0.003539
    64  C   -0.262596
    65  C   -0.012259
    66  C   -0.017103
    67  H   -0.002180
    68  H    0.012491
    69  H    0.002376
    70  H    0.046823
    71  H    0.034643
    72  H    0.047763
    73  H    0.040005
    74  H    0.059693
    75  H    0.056782
    76  H    0.051226
    77  H    0.074211
    78  H    0.038760
    79  H    0.046535
    80  H    0.054317
    81  H    0.037389
    82  H    0.064401
    83  H    0.054999
    84  H    0.056557
    85  H    0.056332
    86  H    0.047460
    87  H    0.053793
    88  H    0.058124
    89  H    0.052140
    90  H    0.039040
    91  H    0.037123
    92  H    0.049605
    93  H    0.037107
    94  H    0.043162
    95  H    0.066860
    96  H    0.057686
    97  H    0.053001
    98  H    0.068099
    99  H    0.064340
   100  H    0.063357
   101  H    0.051690
   102  H    0.069464
   103  H    0.069455
   104  H    0.030074
   105  H    0.041780
   106  H    0.054464
   107  H    0.054585
   108  H    0.054641
   109  H    0.029785
   110  H    0.036967
   111  H    0.029724
   112  H    0.019126
   113  H    0.027004
   114  H    0.032936
   115  H    0.032782
   116  H    0.042734
   117  H    0.032671
   118  H    0.028115
   119  H    0.022198
   120  H    0.030327
   121  H    0.039664
   122  H    0.034112
   123  H    0.029262
   124  H    0.038916
   125  H    0.042625
   126  H    0.045527
   127  H    0.034892
   128  H    0.022392
   129  H    0.019310
   130  H    0.030593
   131  H    0.036129
   132  H    0.025312
   133  H    0.024480
   134  H    0.026170
   135  H    0.032217
   136  H    0.040014
   137  H    0.028353
   138  H    0.030921
   139  H    0.040961
   140  H    0.039713
 Sum of Mulliken charges =  -0.00000

 Dipole moment (field-independent basis, Debye):
    X=              3.8504    Y=              2.6846    Z=             -1.5414  Tot=              4.9405
 Quadrupole moment (field-independent basis, Debye-Ang):
   XX=           -360.0525   YY=           -433.6728   ZZ=           -411.4162
   XY=             -8.5909   XZ=             11.4780   YZ=             -0.1703

 Normal termination of Gaussian 16 at Thu Apr 28 09:10:34 2022.
