 Gaussian 16, Revision A.03,
 Gaussian 16:  ES64L-G16RevA.03 25-Dec-2016

 --------------------------------
 #p wB97XD/Def2SVP td=(nstates=5)
 --------------------------------

 ----------------------------------------------------
 step_151_chromophore_12 TDDFT with wB97XD functional
 ----------------------------------------------------
 Symbolic Z-matrix:
 Charge =  0 Multiplicity = 1

                         Standard orientation:
 ---------------------------------------------------------------------
 Center     Atomic      Atomic             Coordinates (Angstroms)
 Number     Number       Type             X           Y           Z
 ---------------------------------------------------------------------
      1         12           0       -4.073145    0.110701   -0.603325
      2          6           0       -2.900108   -2.894318    0.528918
      3          6           0       -0.833069    1.193802   -1.072831
      4          6           0       -5.283124    3.229123   -1.183498
      5          6           0       -7.343318   -0.752509    0.484962
      6          7           0       -2.069158   -0.746736   -0.322524
      7          6           0       -1.852796   -2.050657    0.114363
      8          6           0       -0.287795   -2.317575    0.084060
      9          6           0        0.283477   -0.862716   -0.001974
     10          6           0       -0.913056   -0.119741   -0.601900
     11          6           0        0.700125   -0.277342    1.371787
     12          6           0        0.106416   -3.263133   -1.167648
     13          6           0        1.157291   -4.356761   -0.819201
     14          6           0        2.406011   -4.458740   -1.655289
     15          8           0        2.315326   -4.871370   -2.840392
     16          8           0        3.581597   -4.036377   -1.089405
     17          7           0       -3.107319    1.975341   -1.170524
     18          6           0       -1.779013    2.184577   -1.359961
     19          6           0       -1.652009    3.551473   -1.761402
     20          6           0       -2.906780    4.213021   -1.736230
     21          6           0       -3.851019    3.121500   -1.342545
     22          6           0       -0.302289    4.113158   -2.161412
     23          6           0       -3.229014    5.676220   -2.003498
     24          8           0       -4.352082    6.125278   -1.827159
     25          6           0       -2.157981    6.616739   -2.493298
     26          7           0       -5.986495    1.132422   -0.402339
     27          6           0       -6.243219    2.351614   -0.750679
     28          6           0       -7.749661    2.631586   -0.932501
     29          6           0       -8.383464    1.368969   -0.356193
     30          6           0       -7.161818    0.500957   -0.113766
     31          6           0       -8.278680    4.043112   -0.437476
     32          6           0       -9.525733    0.829473   -1.143460
     33          6           0      -10.856514    0.867254   -0.401871
     34          7           0       -4.983801   -1.376477    0.405468
     35          6           0       -6.324550   -1.716910    0.664522
     36          6           0       -6.399412   -3.043155    1.260343
     37          6           0       -5.106658   -3.559634    1.155539
     38          6           0       -4.275295   -2.574598    0.576323
     39          6           0       -7.690667   -3.632037    1.660040
     40          6           0       -4.287352   -4.735993    1.377588
     41          8           0       -4.668710   -5.769458    1.892406
     42          6           0       -2.840935   -4.361030    1.002671
     43          6           0       -2.020755   -4.410425    2.201207
     44          8           0       -2.213035   -3.773020    3.188138
     45          8           0       -0.963484   -5.206056    1.920395
     46          6           0        0.112667   -5.217260    2.884590
     47          6           0        4.664573   -4.090737   -2.092893
     48          6           0        5.931581   -3.840491   -1.353742
     49          6           0        7.027834   -3.401579   -1.951023
     50          6           0        7.334031   -3.623637   -3.431513
     51          6           0        8.186812   -2.759583   -1.205030
     52          6           0        8.938964   -1.532182   -1.899162
     53          6           0       10.143146   -1.031102   -1.122850
     54          6           0       10.314407    0.441358   -1.037822
     55          6           0       11.731878    0.930242   -1.555823
     56          6           0       10.171562    0.950746    0.431372
     57          6           0        8.683123    0.991041    0.994556
     58          6           0        8.463793    2.035702    2.182474
     59          6           0        7.426790    3.139479    1.760641
     60          6           0        8.216048    4.504872    1.862448
     61          6           0        6.116307    3.090622    2.604733
     62          6           0        5.440388    4.495559    2.712403
     63          6           0        4.026919    4.487760    3.324069
     64          6           0        2.893364    5.225414    2.595490
     65          6           0        1.632688    5.394784    3.425542
     66          6           0        2.605272    4.680989    1.168340
     67          1           0        0.215452    1.498481   -1.050031
     68          1           0       -5.759316    4.172875   -1.457857
     69          1           0       -8.328645   -1.091040    0.811287
     70          1           0       -0.002220   -2.812191    1.012704
     71          1           0        1.147855   -0.766467   -0.659322
     72          1           0        1.492789    0.468792    1.329341
     73          1           0        1.015774   -1.144472    1.952176
     74          1           0       -0.151813    0.194123    1.861706
     75          1           0        0.409804   -2.622530   -1.996537
     76          1           0       -0.838000   -3.757004   -1.397324
     77          1           0        0.726191   -5.357032   -0.831308
     78          1           0        1.512868   -4.156664    0.191643
     79          1           0       -0.008950    4.974486   -1.562536
     80          1           0       -0.299537    4.490722   -3.183727
     81          1           0        0.454205    3.347491   -1.985386
     82          1           0       -1.427253    6.768038   -1.698121
     83          1           0       -2.548179    7.602541   -2.748325
     84          1           0       -1.746930    6.098262   -3.359392
     85          1           0       -7.742165    2.571400   -2.020669
     86          1           0       -8.702864    1.612918    0.656922
     87          1           0       -9.308242    3.974406   -0.088644
     88          1           0       -8.077794    4.712817   -1.273867
     89          1           0       -7.608334    4.439398    0.324392
     90          1           0       -9.302148   -0.207674   -1.391351
     91          1           0       -9.660910    1.374448   -2.077128
     92          1           0      -11.615992    1.397618   -0.976162
     93          1           0      -10.780796    1.312469    0.590691
     94          1           0      -11.074012   -0.186294   -0.227929
     95          1           0       -8.000908   -4.201823    0.784740
     96          1           0       -8.370225   -2.931752    2.145945
     97          1           0       -7.486374   -4.418182    2.387065
     98          1           0       -2.398949   -5.081588    0.314788
     99          1           0        0.632163   -6.170377    2.783697
    100          1           0       -0.194576   -5.225952    3.930132
    101          1           0        0.693669   -4.310437    2.719962
    102          1           0        4.470897   -3.275279   -2.789685
    103          1           0        4.558193   -5.129235   -2.406778
    104          1           0        5.824066   -3.578291   -0.300721
    105          1           0        8.400249   -3.777098   -3.593201
    106          1           0        7.178367   -2.686634   -3.966643
    107          1           0        6.863048   -4.525644   -3.824713
    108          1           0        8.881562   -3.457181   -0.738989
    109          1           0        7.643058   -2.286820   -0.387199
    110          1           0        8.163327   -0.780860   -2.046818
    111          1           0        9.299040   -1.889561   -2.863820
    112          1           0       10.911370   -1.468764   -1.758767
    113          1           0       10.274241   -1.569437   -0.183504
    114          1           0        9.691419    1.054983   -1.687613
    115          1           0       12.203496    1.080695   -0.584728
    116          1           0       11.583317    1.841356   -2.134465
    117          1           0       12.296032    0.191200   -2.124607
    118          1           0       10.696442    1.873558    0.675399
    119          1           0       10.685299    0.179286    1.005994
    120          1           0        8.662104    0.016577    1.482250
    121          1           0        8.053900    0.990274    0.104781
    122          1           0        9.440795    2.438715    2.448477
    123          1           0        8.124047    1.314991    2.925702
    124          1           0        7.088634    2.970602    0.738316
    125          1           0        9.228184    4.296989    1.516510
    126          1           0        8.237057    4.927235    2.867767
    127          1           0        7.628878    5.110869    1.173011
    128          1           0        6.227152    2.664140    3.601246
    129          1           0        5.464644    2.331403    2.173225
    130          1           0        5.377179    4.976005    1.735982
    131          1           0        6.039643    5.076848    3.413242
    132          1           0        4.124515    5.024132    4.268033
    133          1           0        3.663185    3.464715    3.420462
    134          1           0        3.258110    6.251217    2.541149
    135          1           0        0.759864    4.945525    2.950751
    136          1           0        1.386626    6.434696    3.640310
    137          1           0        1.801944    4.893717    4.379027
    138          1           0        2.767197    3.609718    1.048448
    139          1           0        3.263866    5.150996    0.438327
    140          1           0        1.545370    4.908515    1.054803
 ---------------------------------------------------------------------

 SCF Done:  E(RwB97XD) =  -3007.85711841     A.U. after   19 cycles

 Excitation energies and oscillator strengths:

 Excited State   1:      Singlet-A      1.6788 eV  738.54 nm  f=0.3760  <S**2>=0.000
     245 -> 248       -0.19779
     246 -> 247        0.68104
     245 <- 248       -0.12035
 This state for optimization and/or second-order correction.
 Total Energy, E(TD-HF/TD-DFT) =  -3007.79542468
 Copying the excited state density for this state as the 1-particle RhoCI density.

 Excited State   2:      Singlet-A      2.1750 eV  570.05 nm  f=0.1045  <S**2>=0.000
     245 -> 247        0.63659
     246 -> 248        0.29578

 Excited State   3:      Singlet-A      3.3960 eV  365.09 nm  f=0.0421  <S**2>=0.000
     243 -> 247       -0.35912
     244 -> 247        0.54425
     246 -> 248        0.22569

 Excited State   4:      Singlet-A      3.5268 eV  351.55 nm  f=0.2443  <S**2>=0.000
     243 -> 247       -0.31077
     244 -> 247       -0.40232
     245 -> 247       -0.16003
     246 -> 248        0.44379

 Excited State   5:      Singlet-A      3.6528 eV  339.42 nm  f=0.0005  <S**2>=0.000
     240 -> 249       -0.15811
     241 -> 247        0.54517
     241 -> 249        0.30627
     241 -> 250       -0.23386

 The electronic state is 1-A.
 Alpha  occ. eigenvalues --  -46.95131 -19.31090 -19.30893 -19.24825 -19.24071
 Alpha  occ. eigenvalues --  -19.23794 -19.23690 -14.46935 -14.46031 -14.43982
 Alpha  occ. eigenvalues --  -14.43780 -10.43110 -10.42711 -10.39101 -10.38566
 Alpha  occ. eigenvalues --  -10.36018 -10.35889 -10.35682 -10.35024 -10.34934
 Alpha  occ. eigenvalues --  -10.34390 -10.33853 -10.33711 -10.33329 -10.33322
 Alpha  occ. eigenvalues --  -10.32938 -10.32848 -10.32608 -10.32535 -10.32192
 Alpha  occ. eigenvalues --  -10.31917 -10.31713 -10.31682 -10.31392 -10.31277
 Alpha  occ. eigenvalues --  -10.31065 -10.31057 -10.30691 -10.30627 -10.30418
 Alpha  occ. eigenvalues --  -10.30306 -10.30252 -10.30083 -10.29966 -10.29946
 Alpha  occ. eigenvalues --  -10.29946 -10.29884 -10.29834 -10.29694 -10.29645
 Alpha  occ. eigenvalues --  -10.29565 -10.29438 -10.29380 -10.29183 -10.29173
 Alpha  occ. eigenvalues --  -10.29169 -10.29156 -10.29045 -10.29000 -10.28944
 Alpha  occ. eigenvalues --  -10.28891 -10.28849 -10.28714 -10.28561 -10.28449
 Alpha  occ. eigenvalues --  -10.28172  -3.21064  -1.94649  -1.94185  -1.94028
 Alpha  occ. eigenvalues --   -1.20396  -1.18413  -1.12434  -1.12162  -1.11860
 Alpha  occ. eigenvalues --   -1.08494  -1.07411  -1.05744  -1.04662  -1.03651
 Alpha  occ. eigenvalues --   -0.94873  -0.92825  -0.91964  -0.91634  -0.91207
 Alpha  occ. eigenvalues --   -0.90810  -0.90108  -0.89557  -0.89341  -0.88782
 Alpha  occ. eigenvalues --   -0.88375  -0.87629  -0.86498  -0.86180  -0.85256
 Alpha  occ. eigenvalues --   -0.84729  -0.84178  -0.83430  -0.82957  -0.82586
 Alpha  occ. eigenvalues --   -0.81700  -0.80188  -0.79874  -0.79426  -0.78496
 Alpha  occ. eigenvalues --   -0.78270  -0.77685  -0.77207  -0.76937  -0.76046
 Alpha  occ. eigenvalues --   -0.75376  -0.74664  -0.73704  -0.72618  -0.71372
 Alpha  occ. eigenvalues --   -0.70655  -0.70504  -0.69280  -0.68758  -0.67781
 Alpha  occ. eigenvalues --   -0.67597  -0.67224  -0.66935  -0.66576  -0.65845
 Alpha  occ. eigenvalues --   -0.65240  -0.64761  -0.64698  -0.64088  -0.62049
 Alpha  occ. eigenvalues --   -0.61777  -0.61443  -0.61109  -0.60478  -0.60180
 Alpha  occ. eigenvalues --   -0.59614  -0.59511  -0.58554  -0.58146  -0.57938
 Alpha  occ. eigenvalues --   -0.57529  -0.57002  -0.56908  -0.56456  -0.56306
 Alpha  occ. eigenvalues --   -0.55987  -0.55623  -0.55391  -0.55192  -0.54949
 Alpha  occ. eigenvalues --   -0.54805  -0.54794  -0.54646  -0.54325  -0.54234
 Alpha  occ. eigenvalues --   -0.54065  -0.53572  -0.53303  -0.53250  -0.52743
 Alpha  occ. eigenvalues --   -0.52551  -0.52324  -0.52169  -0.52018  -0.51810
 Alpha  occ. eigenvalues --   -0.51658  -0.51387  -0.51236  -0.50944  -0.50654
 Alpha  occ. eigenvalues --   -0.50508  -0.50163  -0.50051  -0.49916  -0.49718
 Alpha  occ. eigenvalues --   -0.49581  -0.49256  -0.49129  -0.48999  -0.48837
 Alpha  occ. eigenvalues --   -0.48580  -0.48056  -0.47952  -0.47873  -0.47824
 Alpha  occ. eigenvalues --   -0.47562  -0.47510  -0.47197  -0.47159  -0.47000
 Alpha  occ. eigenvalues --   -0.46717  -0.46574  -0.46400  -0.46001  -0.45848
 Alpha  occ. eigenvalues --   -0.45815  -0.45551  -0.45503  -0.45286  -0.45043
 Alpha  occ. eigenvalues --   -0.44893  -0.44694  -0.44487  -0.44328  -0.44251
 Alpha  occ. eigenvalues --   -0.44089  -0.43912  -0.43789  -0.43582  -0.43474
 Alpha  occ. eigenvalues --   -0.43154  -0.42900  -0.42791  -0.42753  -0.42515
 Alpha  occ. eigenvalues --   -0.42160  -0.41582  -0.41200  -0.41022  -0.40435
 Alpha  occ. eigenvalues --   -0.40337  -0.40290  -0.39856  -0.39811  -0.39353
 Alpha  occ. eigenvalues --   -0.39134  -0.39032  -0.38968  -0.38836  -0.38221
 Alpha  occ. eigenvalues --   -0.38027  -0.37563  -0.36816  -0.36804  -0.36175
 Alpha  occ. eigenvalues --   -0.35921  -0.35393  -0.35125  -0.33451  -0.32818
 Alpha  occ. eigenvalues --   -0.32805  -0.32454  -0.32167  -0.31720  -0.25859
 Alpha  occ. eigenvalues --   -0.23011
 Alpha virt. eigenvalues --   -0.06896   0.00214   0.02667   0.04689   0.05226
 Alpha virt. eigenvalues --    0.06305   0.07424   0.08083   0.08279   0.09625
 Alpha virt. eigenvalues --    0.10166   0.10822   0.11360   0.11894   0.11935

 Mulliken charges:
               1
     1  Mg   0.947059
     2  C   -0.041839
     3  C   -0.075960
     4  C   -0.062377
     5  C   -0.096444
     6  N   -0.350343
     7  C    0.015333
     8  C   -0.096125
     9  C   -0.102846
    10  C    0.021122
    11  C    0.036742
    12  C    0.068168
    13  C    0.041132
    14  C    0.190936
    15  O   -0.317602
    16  O   -0.371797
    17  N   -0.428275
    18  C    0.181425
    19  C   -0.168397
    20  C   -0.070026
    21  C    0.149904
    22  C    0.072753
    23  C    0.037367
    24  O   -0.232232
    25  C    0.003414
    26  N   -0.302084
    27  C    0.005081
    28  C   -0.111259
    29  C   -0.058140
    30  C    0.060491
    31  C    0.031002
    32  C    0.019649
    33  C   -0.061215
    34  N   -0.512151
    35  C    0.125715
    36  C   -0.201185
    37  C   -0.026064
    38  C    0.178969
    39  C    0.078426
    40  C    0.115464
    41  O   -0.197584
    42  C   -0.046693
    43  C    0.223939
    44  O   -0.207695
    45  O   -0.352374
    46  C    0.131835
    47  C    0.259448
    48  C   -0.135718
    49  C   -0.199743
    50  C    0.019726
    51  C   -0.003686
    52  C   -0.062747
    53  C    0.079406
    54  C   -0.212009
    55  C   -0.003915
    56  C   -0.037101
    57  C   -0.059959
    58  C    0.034667
    59  C   -0.191860
    60  C    0.012123
    61  C   -0.002545
    62  C   -0.030504
    63  C    0.018452
    64  C   -0.233181
    65  C   -0.001506
    66  C   -0.003359
    67  H   -0.011101
    68  H    0.004153
    69  H   -0.004759
    70  H    0.014721
    71  H    0.026478
    72  H    0.043382
    73  H    0.034150
    74  H    0.053893
    75  H    0.050468
    76  H    0.041644
    77  H    0.070275
    78  H    0.028366
    79  H    0.040131
    80  H    0.049600
    81  H    0.032761
    82  H    0.059096
    83  H    0.054737
    84  H    0.049028
    85  H    0.043083
    86  H    0.033040
    87  H    0.048847
    88  H    0.052651
    89  H    0.046038
    90  H    0.030188
    91  H    0.029528
    92  H    0.044792
    93  H    0.030108
    94  H    0.037294
    95  H    0.061055
    96  H    0.053110
    97  H    0.048311
    98  H    0.062277
    99  H    0.061614
   100  H    0.060060
   101  H    0.047755
   102  H    0.064219
   103  H    0.064157
   104  H    0.027655
   105  H    0.035333
   106  H    0.048505
   107  H    0.050571
   108  H    0.048091
   109  H    0.017315
   110  H    0.027427
   111  H    0.019502
   112  H    0.010275
   113  H    0.018283
   114  H    0.021414
   115  H    0.024317
   116  H    0.037963
   117  H    0.027225
   118  H    0.017106
   119  H    0.010113
   120  H    0.020439
   121  H    0.028687
   122  H    0.024965
   123  H    0.022011
   124  H    0.027571
   125  H    0.034711
   126  H    0.038899
   127  H    0.027201
   128  H    0.014433
   129  H    0.010107
   130  H    0.017433
   131  H    0.026341
   132  H    0.016936
   133  H    0.013771
   134  H    0.014528
   135  H    0.025948
   136  H    0.035329
   137  H    0.022255
   138  H    0.024294
   139  H    0.035225
   140  H    0.031469
 Sum of Mulliken charges =  -0.00000

 Dipole moment (field-independent basis, Debye):
    X=              4.1293    Y=              2.9698    Z=             -1.6888  Tot=              5.3594
 Quadrupole moment (field-independent basis, Debye-Ang):
   XX=           -362.1623   YY=           -431.8773   ZZ=           -410.9689
   XY=             -9.3022   XZ=             11.9134   YZ=             -0.8508

 Normal termination of Gaussian 16 at Thu Apr 28 09:44:17 2022.
