 Gaussian 16, Revision A.03,
 Gaussian 16:  ES64L-G16RevA.03 25-Dec-2016

 --------------------
 #p ZINDO=(nstates=5)
 --------------------

 -----------------------------
 step_151_chromophore_12 ZINDO
 -----------------------------
 Symbolic Z-matrix:
 Charge =  0 Multiplicity = 1

                         Standard orientation:
 ---------------------------------------------------------------------
 Center     Atomic      Atomic             Coordinates (Angstroms)
 Number     Number       Type             X           Y           Z
 ---------------------------------------------------------------------
      1         12           0       -4.073145    0.110701   -0.603325
      2          6           0       -2.900108   -2.894318    0.528918
      3          6           0       -0.833069    1.193802   -1.072831
      4          6           0       -5.283124    3.229123   -1.183498
      5          6           0       -7.343318   -0.752509    0.484962
      6          7           0       -2.069158   -0.746736   -0.322524
      7          6           0       -1.852796   -2.050657    0.114363
      8          6           0       -0.287795   -2.317575    0.084060
      9          6           0        0.283477   -0.862716   -0.001974
     10          6           0       -0.913056   -0.119741   -0.601900
     11          6           0        0.700125   -0.277342    1.371787
     12          6           0        0.106416   -3.263133   -1.167648
     13          6           0        1.157291   -4.356761   -0.819201
     14          6           0        2.406011   -4.458740   -1.655289
     15          8           0        2.315326   -4.871370   -2.840392
     16          8           0        3.581597   -4.036377   -1.089405
     17          7           0       -3.107319    1.975341   -1.170524
     18          6           0       -1.779013    2.184577   -1.359961
     19          6           0       -1.652009    3.551473   -1.761402
     20          6           0       -2.906780    4.213021   -1.736230
     21          6           0       -3.851019    3.121500   -1.342545
     22          6           0       -0.302289    4.113158   -2.161412
     23          6           0       -3.229014    5.676220   -2.003498
     24          8           0       -4.352082    6.125278   -1.827159
     25          6           0       -2.157981    6.616739   -2.493298
     26          7           0       -5.986495    1.132422   -0.402339
     27          6           0       -6.243219    2.351614   -0.750679
     28          6           0       -7.749661    2.631586   -0.932501
     29          6           0       -8.383464    1.368969   -0.356193
     30          6           0       -7.161818    0.500957   -0.113766
     31          6           0       -8.278680    4.043112   -0.437476
     32          6           0       -9.525733    0.829473   -1.143460
     33          6           0      -10.856514    0.867254   -0.401871
     34          7           0       -4.983801   -1.376477    0.405468
     35          6           0       -6.324550   -1.716910    0.664522
     36          6           0       -6.399412   -3.043155    1.260343
     37          6           0       -5.106658   -3.559634    1.155539
     38          6           0       -4.275295   -2.574598    0.576323
     39          6           0       -7.690667   -3.632037    1.660040
     40          6           0       -4.287352   -4.735993    1.377588
     41          8           0       -4.668710   -5.769458    1.892406
     42          6           0       -2.840935   -4.361030    1.002671
     43          6           0       -2.020755   -4.410425    2.201207
     44          8           0       -2.213035   -3.773020    3.188138
     45          8           0       -0.963484   -5.206056    1.920395
     46          6           0        0.112667   -5.217260    2.884590
     47          6           0        4.664573   -4.090737   -2.092893
     48          6           0        5.931581   -3.840491   -1.353742
     49          6           0        7.027834   -3.401579   -1.951023
     50          6           0        7.334031   -3.623637   -3.431513
     51          6           0        8.186812   -2.759583   -1.205030
     52          6           0        8.938964   -1.532182   -1.899162
     53          6           0       10.143146   -1.031102   -1.122850
     54          6           0       10.314407    0.441358   -1.037822
     55          6           0       11.731878    0.930242   -1.555823
     56          6           0       10.171562    0.950746    0.431372
     57          6           0        8.683123    0.991041    0.994556
     58          6           0        8.463793    2.035702    2.182474
     59          6           0        7.426790    3.139479    1.760641
     60          6           0        8.216048    4.504872    1.862448
     61          6           0        6.116307    3.090622    2.604733
     62          6           0        5.440388    4.495559    2.712403
     63          6           0        4.026919    4.487760    3.324069
     64          6           0        2.893364    5.225414    2.595490
     65          6           0        1.632688    5.394784    3.425542
     66          6           0        2.605272    4.680989    1.168340
     67          1           0        0.215452    1.498481   -1.050031
     68          1           0       -5.759316    4.172875   -1.457857
     69          1           0       -8.328645   -1.091040    0.811287
     70          1           0       -0.002220   -2.812191    1.012704
     71          1           0        1.147855   -0.766467   -0.659322
     72          1           0        1.492789    0.468792    1.329341
     73          1           0        1.015774   -1.144472    1.952176
     74          1           0       -0.151813    0.194123    1.861706
     75          1           0        0.409804   -2.622530   -1.996537
     76          1           0       -0.838000   -3.757004   -1.397324
     77          1           0        0.726191   -5.357032   -0.831308
     78          1           0        1.512868   -4.156664    0.191643
     79          1           0       -0.008950    4.974486   -1.562536
     80          1           0       -0.299537    4.490722   -3.183727
     81          1           0        0.454205    3.347491   -1.985386
     82          1           0       -1.427253    6.768038   -1.698121
     83          1           0       -2.548179    7.602541   -2.748325
     84          1           0       -1.746930    6.098262   -3.359392
     85          1           0       -7.742165    2.571400   -2.020669
     86          1           0       -8.702864    1.612918    0.656922
     87          1           0       -9.308242    3.974406   -0.088644
     88          1           0       -8.077794    4.712817   -1.273867
     89          1           0       -7.608334    4.439398    0.324392
     90          1           0       -9.302148   -0.207674   -1.391351
     91          1           0       -9.660910    1.374448   -2.077128
     92          1           0      -11.615992    1.397618   -0.976162
     93          1           0      -10.780796    1.312469    0.590691
     94          1           0      -11.074012   -0.186294   -0.227929
     95          1           0       -8.000908   -4.201823    0.784740
     96          1           0       -8.370225   -2.931752    2.145945
     97          1           0       -7.486374   -4.418182    2.387065
     98          1           0       -2.398949   -5.081588    0.314788
     99          1           0        0.632163   -6.170377    2.783697
    100          1           0       -0.194576   -5.225952    3.930132
    101          1           0        0.693669   -4.310437    2.719962
    102          1           0        4.470897   -3.275279   -2.789685
    103          1           0        4.558193   -5.129235   -2.406778
    104          1           0        5.824066   -3.578291   -0.300721
    105          1           0        8.400249   -3.777098   -3.593201
    106          1           0        7.178367   -2.686634   -3.966643
    107          1           0        6.863048   -4.525644   -3.824713
    108          1           0        8.881562   -3.457181   -0.738989
    109          1           0        7.643058   -2.286820   -0.387199
    110          1           0        8.163327   -0.780860   -2.046818
    111          1           0        9.299040   -1.889561   -2.863820
    112          1           0       10.911370   -1.468764   -1.758767
    113          1           0       10.274241   -1.569437   -0.183504
    114          1           0        9.691419    1.054983   -1.687613
    115          1           0       12.203496    1.080695   -0.584728
    116          1           0       11.583317    1.841356   -2.134465
    117          1           0       12.296032    0.191200   -2.124607
    118          1           0       10.696442    1.873558    0.675399
    119          1           0       10.685299    0.179286    1.005994
    120          1           0        8.662104    0.016577    1.482250
    121          1           0        8.053900    0.990274    0.104781
    122          1           0        9.440795    2.438715    2.448477
    123          1           0        8.124047    1.314991    2.925702
    124          1           0        7.088634    2.970602    0.738316
    125          1           0        9.228184    4.296989    1.516510
    126          1           0        8.237057    4.927235    2.867767
    127          1           0        7.628878    5.110869    1.173011
    128          1           0        6.227152    2.664140    3.601246
    129          1           0        5.464644    2.331403    2.173225
    130          1           0        5.377179    4.976005    1.735982
    131          1           0        6.039643    5.076848    3.413242
    132          1           0        4.124515    5.024132    4.268033
    133          1           0        3.663185    3.464715    3.420462
    134          1           0        3.258110    6.251217    2.541149
    135          1           0        0.759864    4.945525    2.950751
    136          1           0        1.386626    6.434696    3.640310
    137          1           0        1.801944    4.893717    4.379027
    138          1           0        2.767197    3.609718    1.048448
    139          1           0        3.263866    5.150996    0.438327
    140          1           0        1.545370    4.908515    1.054803
 ---------------------------------------------------------------------

 SCF Done:  E(RZINDO/S) =  -474.460725719     A.U. after   19 cycles

 Excitation energies and oscillator strengths:

 Excited State   1:      Singlet-A      1.2734 eV  973.67 nm  f=0.5822  <S**2>=0.000
     175 ->178         0.19925
     176 ->177         0.66090
 This state for optimization and/or second-order correction.
 Total Energy, E(CIS/TDA) =  -474.413930324
 Copying the excited state density for this state as the 1-particle RhoCI density.

 Excited State   2:      Singlet-A      1.9166 eV  646.88 nm  f=0.0331  <S**2>=0.000
     175 ->177         0.53801
     176 ->178        -0.43403

 Excited State   3:      Singlet-A      2.9840 eV  415.49 nm  f=0.6943  <S**2>=0.000
     168 ->177         0.12906
     168 ->179        -0.13077
     168 ->181        -0.12788
     175 ->177         0.31376
     176 ->178         0.42866
     176 ->179         0.22245
     176 ->181        -0.12383

 Excited State   4:      Singlet-A      3.0045 eV  412.66 nm  f=0.0173  <S**2>=0.000
     168 ->177         0.22959
     168 ->179        -0.34771
     168 ->181        -0.22600
     168 ->186        -0.18163
     168 ->187         0.10293
     169 ->177        -0.11053
     169 ->181         0.10861
     170 ->177         0.16077
     170 ->179         0.15990
     170 ->181        -0.16639
     170 ->186         0.10375

 Excited State   5:      Singlet-A      3.0180 eV  410.81 nm  f=0.1738  <S**2>=0.000
     168 ->177        -0.14411
     168 ->179         0.13572
     168 ->181         0.15265
     169 ->179        -0.10329
     170 ->177         0.23413
     170 ->178         0.15193
     170 ->179         0.26093
     170 ->181        -0.24628
     170 ->182         0.10376
     170 ->186         0.16562
     175 ->177         0.15300
     176 ->178         0.20660
     176 ->179         0.15158

 The electronic state is 1-A.
 Alpha  occ. eigenvalues --   -1.84247  -1.82571  -1.79950  -1.75053  -1.74598
 Alpha  occ. eigenvalues --   -1.71228  -1.64521  -1.61533  -1.59518  -1.59035
 Alpha  occ. eigenvalues --   -1.55344  -1.52565  -1.50804  -1.49645  -1.48115
 Alpha  occ. eigenvalues --   -1.44837  -1.42064  -1.40213  -1.38930  -1.38468
 Alpha  occ. eigenvalues --   -1.36057  -1.34068  -1.33799  -1.32369  -1.28786
 Alpha  occ. eigenvalues --   -1.27360  -1.25831  -1.22066  -1.20737  -1.19106
 Alpha  occ. eigenvalues --   -1.17604  -1.16230  -1.15982  -1.14695  -1.14187
 Alpha  occ. eigenvalues --   -1.12777  -1.10918  -1.10488  -1.04588  -1.03730
 Alpha  occ. eigenvalues --   -1.02343  -1.00876  -0.98544  -0.97889  -0.96798
 Alpha  occ. eigenvalues --   -0.96571  -0.94411  -0.93701  -0.92890  -0.91220
 Alpha  occ. eigenvalues --   -0.90721  -0.88949  -0.88440  -0.88054  -0.86320
 Alpha  occ. eigenvalues --   -0.85457  -0.84133  -0.83562  -0.82634  -0.80363
 Alpha  occ. eigenvalues --   -0.79539  -0.79160  -0.77562  -0.76448  -0.76173
 Alpha  occ. eigenvalues --   -0.75881  -0.74431  -0.74210  -0.74083  -0.73216
 Alpha  occ. eigenvalues --   -0.72922  -0.72513  -0.71991  -0.71768  -0.70924
 Alpha  occ. eigenvalues --   -0.70845  -0.70125  -0.69468  -0.68922  -0.68599
 Alpha  occ. eigenvalues --   -0.67970  -0.67635  -0.67224  -0.66891  -0.66054
 Alpha  occ. eigenvalues --   -0.65886  -0.65415  -0.65138  -0.64263  -0.64164
 Alpha  occ. eigenvalues --   -0.63305  -0.63032  -0.62524  -0.62161  -0.61962
 Alpha  occ. eigenvalues --   -0.61323  -0.60771  -0.60611  -0.60471  -0.60166
 Alpha  occ. eigenvalues --   -0.59779  -0.59600  -0.59246  -0.59139  -0.58784
 Alpha  occ. eigenvalues --   -0.57941  -0.57616  -0.56997  -0.56780  -0.56521
 Alpha  occ. eigenvalues --   -0.56166  -0.55632  -0.55141  -0.54758  -0.54537
 Alpha  occ. eigenvalues --   -0.54387  -0.53821  -0.53637  -0.52756  -0.52246
 Alpha  occ. eigenvalues --   -0.52093  -0.51937  -0.51624  -0.51477  -0.51080
 Alpha  occ. eigenvalues --   -0.51010  -0.50919  -0.50790  -0.50423  -0.50238
 Alpha  occ. eigenvalues --   -0.50159  -0.50117  -0.50018  -0.49590  -0.49519
 Alpha  occ. eigenvalues --   -0.49167  -0.48887  -0.48599  -0.48296  -0.47863
 Alpha  occ. eigenvalues --   -0.47396  -0.47306  -0.47233  -0.47008  -0.46647
 Alpha  occ. eigenvalues --   -0.46354  -0.45842  -0.45770  -0.45570  -0.45407
 Alpha  occ. eigenvalues --   -0.44817  -0.44702  -0.44655  -0.44286  -0.43825
 Alpha  occ. eigenvalues --   -0.43392  -0.43270  -0.42590  -0.42446  -0.42304
 Alpha  occ. eigenvalues --   -0.42180  -0.41898  -0.41811  -0.38649  -0.38445
 Alpha  occ. eigenvalues --   -0.37981  -0.37035  -0.35502  -0.34686  -0.34508
 Alpha  occ. eigenvalues --   -0.33306  -0.32892  -0.32431  -0.32127  -0.26473
 Alpha  occ. eigenvalues --   -0.21706
 Alpha virt. eigenvalues --   -0.08274  -0.02132  -0.00175   0.01004   0.01535
 Alpha virt. eigenvalues --    0.01877   0.02823   0.03397   0.04270   0.05179
 Alpha virt. eigenvalues --    0.06476   0.07025   0.07241   0.07779   0.08502

 Mulliken charges:
               1
     1  Mg   0.426569
     2  C   -0.025762
     3  C   -0.078349
     4  C   -0.074494
     5  C   -0.068749
     6  N   -0.278977
     7  C    0.094658
     8  C   -0.004373
     9  C    0.011055
    10  C    0.142239
    11  C   -0.047149
    12  C   -0.018421
    13  C    0.009575
    14  C    0.463235
    15  O   -0.542847
    16  O   -0.268417
    17  N   -0.328505
    18  C    0.124995
    19  C    0.018733
    20  C   -0.047921
    21  C    0.136859
    22  C   -0.050336
    23  C    0.332122
    24  O   -0.522161
    25  C   -0.027553
    26  N   -0.252153
    27  C    0.159295
    28  C   -0.007206
    29  C    0.007567
    30  C    0.111517
    31  C   -0.055541
    32  C   -0.021956
    33  C   -0.060345
    34  N   -0.336432
    35  C    0.075958
    36  C    0.036242
    37  C   -0.044578
    38  C    0.094050
    39  C   -0.039449
    40  C    0.338020
    41  O   -0.521532
    42  C    0.057710
    43  C    0.503183
    44  O   -0.519412
    45  O   -0.276067
    46  C    0.071735
    47  C    0.107000
    48  C   -0.095669
    49  C    0.003451
    50  C   -0.049479
    51  C   -0.036053
    52  C   -0.033850
    53  C   -0.021968
    54  C   -0.008589
    55  C   -0.074810
    56  C   -0.047694
    57  C   -0.061446
    58  C   -0.041802
    59  C   -0.015353
    60  C   -0.062235
    61  C   -0.034864
    62  C   -0.037540
    63  C   -0.037021
    64  C   -0.012681
    65  C   -0.054470
    66  C   -0.058666
    67  H    0.012390
    68  H    0.037006
    69  H    0.029833
    70  H    0.035249
    71  H    0.024629
    72  H    0.023125
    73  H    0.020658
    74  H    0.029589
    75  H    0.038447
    76  H    0.028566
    77  H    0.050361
    78  H    0.024155
    79  H    0.024948
    80  H    0.032150
    81  H    0.023381
    82  H    0.040177
    83  H    0.039136
    84  H    0.036874
    85  H    0.034025
    86  H    0.029429
    87  H    0.031228
    88  H    0.027406
    89  H    0.027161
    90  H    0.019551
    91  H    0.019085
    92  H    0.024254
    93  H    0.019916
    94  H    0.018842
    95  H    0.041856
    96  H    0.036073
    97  H    0.025026
    98  H    0.051157
    99  H    0.034077
   100  H    0.046575
   101  H    0.038926
   102  H    0.059349
   103  H    0.066245
   104  H    0.029222
   105  H    0.016286
   106  H    0.034411
   107  H    0.028342
   108  H    0.036174
   109  H    0.008541
   110  H    0.021131
   111  H    0.019590
   112  H    0.009444
   113  H    0.025946
   114  H    0.021670
   115  H    0.023317
   116  H    0.022010
   117  H    0.021996
   118  H    0.021132
   119  H    0.010425
   120  H    0.011638
   121  H    0.032546
   122  H    0.030954
   123  H    0.022615
   124  H    0.025946
   125  H    0.021931
   126  H    0.029408
   127  H    0.018436
   128  H    0.018827
   129  H    0.012156
   130  H    0.024166
   131  H    0.021550
   132  H    0.014794
   133  H    0.019792
   134  H    0.010202
   135  H    0.018272
   136  H    0.019195
   137  H    0.014474
   138  H    0.019356
   139  H    0.018583
   140  H    0.021773
 Sum of Mulliken charges =  -0.00000

 Dipole moment (field-independent basis, Debye):
    X=              6.2538    Y=              4.0854    Z=             -3.4941  Tot=              8.2468
 N-N= 4.507254046761D+03 E-N= 0.000000000000D+00  KE=-9.688709793442D+03
 Leave Link  601 at Thu Apr 28 09:56:03 2022, MaxMem=  6710886400 cpu:               1.2 elap:               0.1
 (Enter /sw/apps/gaussian-16.0/g16/l9999.exe)
 1\1\GINC-BP1-COMPUTE139\SP\RZINDO CIS\STO-3G\C55H74Mg1N4O6\OF15641\28-
 Apr-2022\0\\#p ZINDO=(nstates=5)\\step_151_chromophore_12 ZINDO\\0,1\M
 g,0,48.24,15.222,28.1\C,0,46.109,14.965,30.761\C,0,50.301,17.273,29.95
 4\C,0,50.003,15.874,25.273\C,0,45.822,13.67,26.01\N,0,48.232,16.032,30
 .143\C,0,47.249,15.726,31.08\C,0,47.656,16.416,32.451\C,0,48.725,17.45
 8,31.98\C,0,49.186,16.822,30.666\C,0,48.151,18.882,31.765\C,0,48.213,1
 5.318,33.5\C,0,47.698,15.524,34.954\C,0,48.7,15.614,36.075\O,0,49.338,

 Normal termination of Gaussian 16 at Thu Apr 28 09:56:04 2022.
