 Gaussian 16, Revision A.03,
 Gaussian 16:  ES64L-G16RevA.03 25-Dec-2016

 ------------------------------
 #p blyp/Def2SVP td=(nstates=5)
 ------------------------------

 --------------------------------------------------
 step_251_chromophore_10 TDDFT with blyp functional
 --------------------------------------------------
 Symbolic Z-matrix:
 Charge =  0 Multiplicity = 1

                         Standard orientation:
 ---------------------------------------------------------------------
 Center     Atomic      Atomic             Coordinates (Angstroms)
 Number     Number       Type             X           Y           Z
 ---------------------------------------------------------------------
      1         12           0        5.710474    0.501943    0.070614
      2          6           0        3.665959   -2.211374    0.128696
      3          6           0        3.139080    2.696160   -0.619615
      4          6           0        7.989358    3.048997   -0.135700
      5          6           0        8.536162   -1.740203    0.351956
      6          7           0        3.693102    0.218991   -0.412498
      7          6           0        2.977448   -0.977816   -0.072824
      8          6           0        1.522190   -0.731194   -0.039020
      9          6           0        1.436474    0.725656   -0.681240
     10          6           0        2.834786    1.294716   -0.589120
     11          6           0        0.922916    0.716261   -2.207136
     12          6           0        0.849542   -0.977836    1.346364
     13          6           0       -0.435089   -1.741035    1.304916
     14          6           0       -1.412598   -1.391836    0.114361
     15          8           0       -1.557054   -0.312149   -0.470880
     16          8           0       -2.215139   -2.473672   -0.050928
     17          7           0        5.571371    2.601636   -0.252663
     18          6           0        4.403613    3.249152   -0.527303
     19          6           0        4.704493    4.632648   -0.667471
     20          6           0        6.124814    4.817609   -0.444547
     21          6           0        6.664436    3.441995   -0.179301
     22          6           0        3.639167    5.666960   -1.092084
     23          6           0        7.005063    6.027404   -0.400901
     24          8           0        8.236497    6.078888   -0.306143
     25          6           0        6.246358    7.407934   -0.431406
     26          7           0        8.009767    0.643958   -0.003156
     27          6           0        8.642949    1.790423    0.011196
     28          6           0       10.125787    1.633095    0.341467
     29          6           0       10.280088    0.092866    0.494043
     30          6           0        8.850794   -0.386927    0.249239
     31          6           0       11.107552    2.245841   -0.781724
     32          6           0       10.788696   -0.227034    1.968561
     33          6           0        9.888742    0.042114    3.199884
     34          7           0        6.067908   -1.572437    0.050847
     35          6           0        7.234641   -2.292594    0.224981
     36          6           0        6.831498   -3.704566    0.384983
     37          6           0        5.471222   -3.782760    0.376275
     38          6           0        5.049540   -2.420411    0.162166
     39          6           0        7.784362   -4.849919    0.384032
     40          6           0        4.296760   -4.649336    0.472147
     41          8           0        4.198443   -5.855891    0.620444
     42          6           0        3.086131   -3.630235    0.301371
     43          6           0        2.368094   -4.010931   -0.931980
     44          8           0        2.827576   -4.122507   -2.081936
     45          8           0        1.070974   -4.224887   -0.511795
     46          6           0        0.107889   -4.439815   -1.599692
     47          6           0       -3.124187   -2.419236   -1.160745
     48          6           0       -4.368392   -2.013408   -0.512261
     49          6           0       -5.326149   -2.877651    0.008247
     50          6           0       -5.455682   -4.387702    0.020493
     51          6           0       -6.496450   -2.236781    0.751349
     52          6           0       -7.418073   -1.698501   -0.355352
     53          6           0       -7.352497   -0.135450   -0.468441
     54          6           0       -8.779284    0.458057   -0.604581
     55          6           0       -8.832159    1.551330   -1.704082
     56          6           0       -9.136889    1.111204    0.806331
     57          6           0      -10.555399    1.803902    0.804705
     58          6           0      -11.509807    1.109270    1.845553
     59          6           0      -12.529718    2.224342    2.391446
     60          6           0      -12.168546    2.523486    3.799427
     61          6           0      -14.055280    1.902294    2.144932
     62          6           0      -14.480846    2.164265    0.678968
     63          6           0      -15.284038    0.989009   -0.021201
     64          6           0      -14.585110    0.547667   -1.344434
     65          6           0      -14.419867    1.660597   -2.400721
     66          6           0      -15.386368   -0.638668   -1.875490
     67          1           0        2.347345    3.429429   -0.785842
     68          1           0        8.645982    3.921363   -0.095840
     69          1           0        9.370539   -2.424430    0.515822
     70          1           0        1.107910   -1.474993   -0.720815
     71          1           0        0.765256    1.322953   -0.064896
     72          1           0        0.470154   -0.227873   -2.509986
     73          1           0        1.819274    0.766488   -2.825136
     74          1           0        0.312230    1.615835   -2.272008
     75          1           0        0.638378   -0.022461    1.826834
     76          1           0        1.604609   -1.558083    1.876542
     77          1           0       -1.070124   -1.554182    2.170001
     78          1           0       -0.452481   -2.830932    1.315449
     79          1           0        2.934943    5.969001   -0.316968
     80          1           0        3.172963    5.179274   -1.948028
     81          1           0        4.065014    6.639140   -1.339391
     82          1           0        5.865699    7.579151   -1.438355
     83          1           0        6.890459    8.154820    0.032340
     84          1           0        5.409347    7.461689    0.265046
     85          1           0       10.317328    2.109178    1.302815
     86          1           0       10.993723   -0.345973   -0.203331
     87          1           0       11.511233    3.164272   -0.354040
     88          1           0       10.541576    2.494514   -1.680045
     89          1           0       11.986068    1.683840   -1.096109
     90          1           0       11.754267    0.207015    2.227620
     91          1           0       10.878483   -1.312836    1.922376
     92          1           0        9.718016   -0.961713    3.589085
     93          1           0        8.972237    0.572063    2.943556
     94          1           0       10.361889    0.653988    3.967861
     95          1           0        7.294352   -5.565097    1.044004
     96          1           0        8.777741   -4.576106    0.739941
     97          1           0        7.691448   -5.345365   -0.581523
     98          1           0        2.492733   -3.919509    1.168320
     99          1           0       -0.798541   -4.698736   -1.051709
    100          1           0        0.451338   -5.328673   -2.128921
    101          1           0        0.042582   -3.642279   -2.340096
    102          1           0       -3.176901   -3.368568   -1.694150
    103          1           0       -2.909106   -1.689846   -1.941689
    104          1           0       -4.518378   -0.939746   -0.400978
    105          1           0       -6.449717   -4.782165   -0.186213
    106          1           0       -5.231613   -4.767582    1.017046
    107          1           0       -4.770038   -4.727198   -0.756823
    108          1           0       -6.144425   -1.470084    1.440891
    109          1           0       -6.915842   -3.038490    1.358610
    110          1           0       -8.458859   -1.936234   -0.131573
    111          1           0       -7.153663   -2.242869   -1.262122
    112          1           0       -6.665119    0.050213   -1.294180
    113          1           0       -6.835796    0.308278    0.382620
    114          1           0       -9.528855   -0.312995   -0.782087
    115          1           0       -9.652432    1.335673   -2.389807
    116          1           0       -7.872876    1.491834   -2.217284
    117          1           0       -8.864076    2.563188   -1.301368
    118          1           0       -8.459270    1.903904    1.125186
    119          1           0       -9.111200    0.275783    1.506335
    120          1           0      -10.918377    1.786260   -0.223004
    121          1           0      -10.477371    2.851554    1.096281
    122          1           0      -11.016671    0.686251    2.720058
    123          1           0      -11.975293    0.244326    1.372380
    124          1           0      -12.353627    3.176954    1.892090
    125          1           0      -12.361099    1.607272    4.358122
    126          1           0      -12.824863    3.252059    4.273994
    127          1           0      -11.170272    2.918847    3.988237
    128          1           0      -14.548151    2.674602    2.735407
    129          1           0      -14.264517    0.902884    2.523722
    130          1           0      -13.578564    2.416431    0.123293
    131          1           0      -15.114266    3.050731    0.722892
    132          1           0      -16.257838    1.410307   -0.270174
    133          1           0      -15.311448    0.104312    0.614855
    134          1           0      -13.592738    0.215828   -1.039468
    135          1           0      -14.854001    2.608409   -2.081584
    136          1           0      -14.647302    1.413011   -3.437800
    137          1           0      -13.339808    1.750575   -2.292451
    138          1           0      -16.446209   -0.473788   -2.068569
    139          1           0      -15.358508   -1.510591   -1.222346
    140          1           0      -14.951030   -0.872956   -2.846423
 ---------------------------------------------------------------------

 SCF Done:  E(RB-LYP) =  -3007.38166102     A.U. after   21 cycles

 Excitation energies and oscillator strengths:

 Excited State   1:      Singlet-A      1.7752 eV  698.41 nm  f=0.3055  <S**2>=0.000
     245 -> 248        0.19821
     246 -> 247        0.69065
     246 <- 247       -0.14764
 This state for optimization and/or second-order correction.
 Total Energy, E(TD-HF/TD-DFT) =  -3007.31642269
 Copying the excited state density for this state as the 1-particle RhoCI density.

 Excited State   2:      Singlet-A      1.9787 eV  626.58 nm  f=0.0053  <S**2>=0.000
     244 -> 247        0.65923
     245 -> 247       -0.23638

 Excited State   3:      Singlet-A      2.0199 eV  613.82 nm  f=0.0400  <S**2>=0.000
     244 -> 247        0.25366
     245 -> 247        0.59376
     246 -> 248       -0.27254

 Excited State   4:      Singlet-A      2.1678 eV  571.94 nm  f=0.0001  <S**2>=0.000
     243 -> 247        0.70578

 Excited State   5:      Singlet-A      2.3125 eV  536.16 nm  f=0.0003  <S**2>=0.000
     242 -> 247        0.70659

 The electronic state is 1-A.
 Alpha  occ. eigenvalues --  -46.27443 -18.83268 -18.82781 -18.77906 -18.77220
 Alpha  occ. eigenvalues --  -18.76388 -18.75833 -14.03252 -14.03037 -14.00974
 Alpha  occ. eigenvalues --  -14.00749 -10.05085 -10.04066 -10.00033  -9.99957
 Alpha  occ. eigenvalues --   -9.97899  -9.97848  -9.97069  -9.96885  -9.96195
 Alpha  occ. eigenvalues --   -9.95903  -9.95596  -9.95494  -9.95116  -9.94505
 Alpha  occ. eigenvalues --   -9.94119  -9.94027  -9.93829  -9.93761  -9.93744
 Alpha  occ. eigenvalues --   -9.93655  -9.93638  -9.93619  -9.93505  -9.93503
 Alpha  occ. eigenvalues --   -9.93175  -9.93171  -9.93064  -9.93057  -9.93009
 Alpha  occ. eigenvalues --   -9.92943  -9.92699  -9.92391  -9.91996  -9.91981
 Alpha  occ. eigenvalues --   -9.91901  -9.91881  -9.91845  -9.91823  -9.91790
 Alpha  occ. eigenvalues --   -9.91727  -9.91571  -9.91550  -9.91447  -9.91434
 Alpha  occ. eigenvalues --   -9.91400  -9.91347  -9.91330  -9.91176  -9.91056
 Alpha  occ. eigenvalues --   -9.91029  -9.90898  -9.90868  -9.90726  -9.90522
 Alpha  occ. eigenvalues --   -9.90477  -2.91950  -1.72376  -1.71823  -1.71668
 Alpha  occ. eigenvalues --   -0.99527  -0.97540  -0.91805  -0.90794  -0.90702
 Alpha  occ. eigenvalues --   -0.89580  -0.87207  -0.86125  -0.84938  -0.83894
 Alpha  occ. eigenvalues --   -0.75223  -0.74051  -0.72941  -0.72587  -0.72115
 Alpha  occ. eigenvalues --   -0.71802  -0.71258  -0.70914  -0.70590  -0.70244
 Alpha  occ. eigenvalues --   -0.69393  -0.69177  -0.68030  -0.67286  -0.66856
 Alpha  occ. eigenvalues --   -0.66371  -0.65790  -0.65384  -0.65083  -0.64143
 Alpha  occ. eigenvalues --   -0.63696  -0.62349  -0.62073  -0.61416  -0.60629
 Alpha  occ. eigenvalues --   -0.60458  -0.60277  -0.59627  -0.59078  -0.58842
 Alpha  occ. eigenvalues --   -0.58384  -0.57279  -0.56931  -0.55683  -0.54998
 Alpha  occ. eigenvalues --   -0.54076  -0.53615  -0.52923  -0.52285  -0.51677
 Alpha  occ. eigenvalues --   -0.51186  -0.50979  -0.50557  -0.50370  -0.50338
 Alpha  occ. eigenvalues --   -0.49497  -0.48765  -0.48728  -0.48433  -0.47265
 Alpha  occ. eigenvalues --   -0.46469  -0.45769  -0.45519  -0.45244  -0.44382
 Alpha  occ. eigenvalues --   -0.43997  -0.43667  -0.43039  -0.42682  -0.42417
 Alpha  occ. eigenvalues --   -0.42071  -0.41913  -0.41500  -0.41350  -0.41293
 Alpha  occ. eigenvalues --   -0.41076  -0.40524  -0.40377  -0.40138  -0.40106
 Alpha  occ. eigenvalues --   -0.39828  -0.39761  -0.39443  -0.39257  -0.39156
 Alpha  occ. eigenvalues --   -0.38972  -0.38914  -0.38807  -0.38541  -0.38362
 Alpha  occ. eigenvalues --   -0.38085  -0.37855  -0.37562  -0.37368  -0.37176
 Alpha  occ. eigenvalues --   -0.37029  -0.36829  -0.36626  -0.36520  -0.36366
 Alpha  occ. eigenvalues --   -0.36276  -0.35968  -0.35837  -0.35579  -0.35506
 Alpha  occ. eigenvalues --   -0.35328  -0.35164  -0.34827  -0.34750  -0.34640
 Alpha  occ. eigenvalues --   -0.34542  -0.34462  -0.34417  -0.34126  -0.33950
 Alpha  occ. eigenvalues --   -0.33939  -0.33739  -0.33497  -0.33158  -0.33084
 Alpha  occ. eigenvalues --   -0.32759  -0.32598  -0.32490  -0.32378  -0.32314
 Alpha  occ. eigenvalues --   -0.31809  -0.31651  -0.31563  -0.31412  -0.31083
 Alpha  occ. eigenvalues --   -0.31041  -0.30987  -0.30873  -0.30842  -0.30672
 Alpha  occ. eigenvalues --   -0.30478  -0.30238  -0.30199  -0.30117  -0.30076
 Alpha  occ. eigenvalues --   -0.29784  -0.29726  -0.29650  -0.29220  -0.28892
 Alpha  occ. eigenvalues --   -0.28820  -0.28552  -0.28460  -0.27868  -0.27724
 Alpha  occ. eigenvalues --   -0.27619  -0.27260  -0.26788  -0.26675  -0.26386
 Alpha  occ. eigenvalues --   -0.26203  -0.25880  -0.25719  -0.25616  -0.25424
 Alpha  occ. eigenvalues --   -0.25257  -0.24972  -0.24715  -0.23969  -0.23098
 Alpha  occ. eigenvalues --   -0.22946  -0.22795  -0.22436  -0.21628  -0.21037
 Alpha  occ. eigenvalues --   -0.20290  -0.19851  -0.19225  -0.18542  -0.17340
 Alpha  occ. eigenvalues --   -0.15581
 Alpha virt. eigenvalues --   -0.11355  -0.07117  -0.06520  -0.04623  -0.03844
 Alpha virt. eigenvalues --   -0.03091  -0.02851  -0.02724  -0.01449   0.00490
 Alpha virt. eigenvalues --    0.00958   0.01749   0.01847   0.02175   0.02653

 Mulliken charges:
               1
     1  Mg   0.667446
     2  C    0.059317
     3  C   -0.079827
     4  C   -0.006297
     5  C   -0.074162
     6  N   -0.298424
     7  C   -0.079362
     8  C    0.008653
     9  C   -0.014345
    10  C    0.090442
    11  C    0.146172
    12  C    0.216668
    13  C    0.089201
    14  C    0.060993
    15  O   -0.202206
    16  O   -0.241978
    17  N   -0.287809
    18  C    0.142570
    19  C   -0.126616
    20  C    0.030418
    21  C    0.072352
    22  C    0.161246
    23  C   -0.059608
    24  O   -0.165628
    25  C    0.084057
    26  N   -0.128115
    27  C   -0.027393
    28  C    0.037190
    29  C    0.056237
    30  C   -0.001987
    31  C    0.099602
    32  C    0.029134
    33  C    0.060920
    34  N   -0.228932
    35  C    0.125151
    36  C   -0.228077
    37  C    0.114818
    38  C    0.041165
    39  C    0.181154
    40  C   -0.043684
    41  O   -0.117223
    42  C    0.031039
    43  C    0.118166
    44  O   -0.192071
    45  O   -0.281310
    46  C    0.215275
    47  C    0.342326
    48  C   -0.133991
    49  C   -0.188897
    50  C    0.167024
    51  C    0.130320
    52  C    0.076376
    53  C    0.114355
    54  C   -0.106950
    55  C    0.128693
    56  C    0.067143
    57  C    0.052450
    58  C    0.099480
    59  C   -0.094048
    60  C    0.109887
    61  C    0.113458
    62  C    0.066405
    63  C    0.102464
    64  C   -0.123416
    65  C    0.114070
    66  C    0.111002
    67  H   -0.060452
    68  H   -0.044891
    69  H   -0.057678
    70  H   -0.018765
    71  H   -0.030591
    72  H   -0.004749
    73  H   -0.012246
    74  H    0.007331
    75  H   -0.016376
    76  H   -0.018741
    77  H   -0.005317
    78  H   -0.003026
    79  H    0.003584
    80  H    0.015201
    81  H   -0.036085
    82  H    0.034117
    83  H   -0.009907
    84  H   -0.008526
    85  H   -0.010230
    86  H   -0.024124
    87  H   -0.001819
    88  H    0.002835
    89  H   -0.006078
    90  H   -0.011522
    91  H   -0.030306
    92  H   -0.001345
    93  H    0.001346
    94  H   -0.008630
    95  H   -0.003375
    96  H   -0.003644
    97  H    0.015196
    98  H   -0.004308
    99  H    0.023534
   100  H    0.010161
   101  H    0.020718
   102  H   -0.015813
   103  H   -0.012432
   104  H   -0.018035
   105  H   -0.004444
   106  H    0.011250
   107  H   -0.018067
   108  H   -0.019844
   109  H   -0.051578
   110  H   -0.034688
   111  H   -0.017131
   112  H   -0.026235
   113  H   -0.027067
   114  H   -0.024914
   115  H   -0.006762
   116  H   -0.029125
   117  H   -0.012055
   118  H   -0.026043
   119  H   -0.027546
   120  H   -0.013315
   121  H   -0.027960
   122  H   -0.031756
   123  H   -0.035735
   124  H   -0.035596
   125  H   -0.026578
   126  H   -0.033715
   127  H   -0.015137
   128  H   -0.046182
   129  H   -0.027936
   130  H   -0.022984
   131  H   -0.032942
   132  H   -0.031381
   133  H   -0.027166
   134  H   -0.028914
   135  H   -0.008150
   136  H   -0.008534
   137  H   -0.015615
   138  H   -0.022201
   139  H   -0.024086
   140  H   -0.027366
 Sum of Mulliken charges =  -0.00000

 Dipole moment (field-independent basis, Debye):
    X=             -4.1139    Y=              0.7727    Z=              2.0803  Tot=              4.6743
 Quadrupole moment (field-independent basis, Debye-Ang):
   XX=           -392.7626   YY=           -432.2944   ZZ=           -405.7015
   XY=             -1.0168   XZ=             16.8101   YZ=              0.3429

 Normal termination of Gaussian 16 at Fri Apr 29 10:13:53 2022.
