 Gaussian 16, Revision A.03,
 Gaussian 16:  ES64L-G16RevA.03 25-Dec-2016

 -----------------------------------
 #p cam-b3lyp/Def2SVP td=(nstates=5)
 -----------------------------------

 -------------------------------------------------------
 step_251_chromophore_10 TDDFT with cam-b3lyp functional
 -------------------------------------------------------
 Symbolic Z-matrix:
 Charge =  0 Multiplicity = 1

                         Standard orientation:
 ---------------------------------------------------------------------
 Center     Atomic      Atomic             Coordinates (Angstroms)
 Number     Number       Type             X           Y           Z
 ---------------------------------------------------------------------
      1         12           0        5.710474    0.501943    0.070614
      2          6           0        3.665959   -2.211374    0.128696
      3          6           0        3.139080    2.696160   -0.619615
      4          6           0        7.989358    3.048997   -0.135700
      5          6           0        8.536162   -1.740203    0.351956
      6          7           0        3.693102    0.218991   -0.412498
      7          6           0        2.977448   -0.977816   -0.072824
      8          6           0        1.522190   -0.731194   -0.039020
      9          6           0        1.436474    0.725656   -0.681240
     10          6           0        2.834786    1.294716   -0.589120
     11          6           0        0.922916    0.716261   -2.207136
     12          6           0        0.849542   -0.977836    1.346364
     13          6           0       -0.435089   -1.741035    1.304916
     14          6           0       -1.412598   -1.391836    0.114361
     15          8           0       -1.557054   -0.312149   -0.470880
     16          8           0       -2.215139   -2.473672   -0.050928
     17          7           0        5.571371    2.601636   -0.252663
     18          6           0        4.403613    3.249152   -0.527303
     19          6           0        4.704493    4.632648   -0.667471
     20          6           0        6.124814    4.817609   -0.444547
     21          6           0        6.664436    3.441995   -0.179301
     22          6           0        3.639167    5.666960   -1.092084
     23          6           0        7.005063    6.027404   -0.400901
     24          8           0        8.236497    6.078888   -0.306143
     25          6           0        6.246358    7.407934   -0.431406
     26          7           0        8.009767    0.643958   -0.003156
     27          6           0        8.642949    1.790423    0.011196
     28          6           0       10.125787    1.633095    0.341467
     29          6           0       10.280088    0.092866    0.494043
     30          6           0        8.850794   -0.386927    0.249239
     31          6           0       11.107552    2.245841   -0.781724
     32          6           0       10.788696   -0.227034    1.968561
     33          6           0        9.888742    0.042114    3.199884
     34          7           0        6.067908   -1.572437    0.050847
     35          6           0        7.234641   -2.292594    0.224981
     36          6           0        6.831498   -3.704566    0.384983
     37          6           0        5.471222   -3.782760    0.376275
     38          6           0        5.049540   -2.420411    0.162166
     39          6           0        7.784362   -4.849919    0.384032
     40          6           0        4.296760   -4.649336    0.472147
     41          8           0        4.198443   -5.855891    0.620444
     42          6           0        3.086131   -3.630235    0.301371
     43          6           0        2.368094   -4.010931   -0.931980
     44          8           0        2.827576   -4.122507   -2.081936
     45          8           0        1.070974   -4.224887   -0.511795
     46          6           0        0.107889   -4.439815   -1.599692
     47          6           0       -3.124187   -2.419236   -1.160745
     48          6           0       -4.368392   -2.013408   -0.512261
     49          6           0       -5.326149   -2.877651    0.008247
     50          6           0       -5.455682   -4.387702    0.020493
     51          6           0       -6.496450   -2.236781    0.751349
     52          6           0       -7.418073   -1.698501   -0.355352
     53          6           0       -7.352497   -0.135450   -0.468441
     54          6           0       -8.779284    0.458057   -0.604581
     55          6           0       -8.832159    1.551330   -1.704082
     56          6           0       -9.136889    1.111204    0.806331
     57          6           0      -10.555399    1.803902    0.804705
     58          6           0      -11.509807    1.109270    1.845553
     59          6           0      -12.529718    2.224342    2.391446
     60          6           0      -12.168546    2.523486    3.799427
     61          6           0      -14.055280    1.902294    2.144932
     62          6           0      -14.480846    2.164265    0.678968
     63          6           0      -15.284038    0.989009   -0.021201
     64          6           0      -14.585110    0.547667   -1.344434
     65          6           0      -14.419867    1.660597   -2.400721
     66          6           0      -15.386368   -0.638668   -1.875490
     67          1           0        2.347345    3.429429   -0.785842
     68          1           0        8.645982    3.921363   -0.095840
     69          1           0        9.370539   -2.424430    0.515822
     70          1           0        1.107910   -1.474993   -0.720815
     71          1           0        0.765256    1.322953   -0.064896
     72          1           0        0.470154   -0.227873   -2.509986
     73          1           0        1.819274    0.766488   -2.825136
     74          1           0        0.312230    1.615835   -2.272008
     75          1           0        0.638378   -0.022461    1.826834
     76          1           0        1.604609   -1.558083    1.876542
     77          1           0       -1.070124   -1.554182    2.170001
     78          1           0       -0.452481   -2.830932    1.315449
     79          1           0        2.934943    5.969001   -0.316968
     80          1           0        3.172963    5.179274   -1.948028
     81          1           0        4.065014    6.639140   -1.339391
     82          1           0        5.865699    7.579151   -1.438355
     83          1           0        6.890459    8.154820    0.032340
     84          1           0        5.409347    7.461689    0.265046
     85          1           0       10.317328    2.109178    1.302815
     86          1           0       10.993723   -0.345973   -0.203331
     87          1           0       11.511233    3.164272   -0.354040
     88          1           0       10.541576    2.494514   -1.680045
     89          1           0       11.986068    1.683840   -1.096109
     90          1           0       11.754267    0.207015    2.227620
     91          1           0       10.878483   -1.312836    1.922376
     92          1           0        9.718016   -0.961713    3.589085
     93          1           0        8.972237    0.572063    2.943556
     94          1           0       10.361889    0.653988    3.967861
     95          1           0        7.294352   -5.565097    1.044004
     96          1           0        8.777741   -4.576106    0.739941
     97          1           0        7.691448   -5.345365   -0.581523
     98          1           0        2.492733   -3.919509    1.168320
     99          1           0       -0.798541   -4.698736   -1.051709
    100          1           0        0.451338   -5.328673   -2.128921
    101          1           0        0.042582   -3.642279   -2.340096
    102          1           0       -3.176901   -3.368568   -1.694150
    103          1           0       -2.909106   -1.689846   -1.941689
    104          1           0       -4.518378   -0.939746   -0.400978
    105          1           0       -6.449717   -4.782165   -0.186213
    106          1           0       -5.231613   -4.767582    1.017046
    107          1           0       -4.770038   -4.727198   -0.756823
    108          1           0       -6.144425   -1.470084    1.440891
    109          1           0       -6.915842   -3.038490    1.358610
    110          1           0       -8.458859   -1.936234   -0.131573
    111          1           0       -7.153663   -2.242869   -1.262122
    112          1           0       -6.665119    0.050213   -1.294180
    113          1           0       -6.835796    0.308278    0.382620
    114          1           0       -9.528855   -0.312995   -0.782087
    115          1           0       -9.652432    1.335673   -2.389807
    116          1           0       -7.872876    1.491834   -2.217284
    117          1           0       -8.864076    2.563188   -1.301368
    118          1           0       -8.459270    1.903904    1.125186
    119          1           0       -9.111200    0.275783    1.506335
    120          1           0      -10.918377    1.786260   -0.223004
    121          1           0      -10.477371    2.851554    1.096281
    122          1           0      -11.016671    0.686251    2.720058
    123          1           0      -11.975293    0.244326    1.372380
    124          1           0      -12.353627    3.176954    1.892090
    125          1           0      -12.361099    1.607272    4.358122
    126          1           0      -12.824863    3.252059    4.273994
    127          1           0      -11.170272    2.918847    3.988237
    128          1           0      -14.548151    2.674602    2.735407
    129          1           0      -14.264517    0.902884    2.523722
    130          1           0      -13.578564    2.416431    0.123293
    131          1           0      -15.114266    3.050731    0.722892
    132          1           0      -16.257838    1.410307   -0.270174
    133          1           0      -15.311448    0.104312    0.614855
    134          1           0      -13.592738    0.215828   -1.039468
    135          1           0      -14.854001    2.608409   -2.081584
    136          1           0      -14.647302    1.413011   -3.437800
    137          1           0      -13.339808    1.750575   -2.292451
    138          1           0      -16.446209   -0.473788   -2.068569
    139          1           0      -15.358508   -1.510591   -1.222346
    140          1           0      -14.951030   -0.872956   -2.846423
 ---------------------------------------------------------------------

 SCF Done:  E(RCAM-B3LYP) =  -3007.17013195     A.U. after   19 cycles

 Excitation energies and oscillator strengths:

 Excited State   1:      Singlet-A      1.6971 eV  730.58 nm  f=0.3733  <S**2>=0.000
     245 -> 248       -0.18486
     246 -> 247        0.68434
     245 <- 248       -0.10844
 This state for optimization and/or second-order correction.
 Total Energy, E(TD-HF/TD-DFT) =  -3007.10776622
 Copying the excited state density for this state as the 1-particle RhoCI density.

 Excited State   2:      Singlet-A      2.2657 eV  547.21 nm  f=0.0493  <S**2>=0.000
     245 -> 247        0.61053
     246 -> 248        0.34647

 Excited State   3:      Singlet-A      3.3536 eV  369.71 nm  f=0.4154  <S**2>=0.000
     242 -> 247       -0.15299
     243 -> 247       -0.38213
     245 -> 247       -0.25220
     246 -> 248        0.50632

 Excited State   4:      Singlet-A      3.4706 eV  357.24 nm  f=0.0166  <S**2>=0.000
     241 -> 247        0.54861
     241 -> 248        0.10953
     241 -> 249       -0.30635
     241 -> 250        0.10542
     241 -> 251       -0.16874
     243 -> 247        0.15598

 Excited State   5:      Singlet-A      3.5480 eV  349.45 nm  f=0.3715  <S**2>=0.000
     241 -> 247       -0.14728
     243 -> 247        0.54520
     245 -> 247       -0.21342
     246 -> 248        0.31332

 The electronic state is 1-A.
 Alpha  occ. eigenvalues --  -46.89020 -19.26066 -19.25753 -19.20831 -19.20255
 Alpha  occ. eigenvalues --  -19.19410 -19.19351 -14.42011 -14.41990 -14.39293
 Alpha  occ. eigenvalues --  -14.39258 -10.40407 -10.39517 -10.35558 -10.35272
 Alpha  occ. eigenvalues --  -10.31924 -10.31897 -10.31617 -10.31543 -10.30698
 Alpha  occ. eigenvalues --  -10.30159 -10.29956 -10.29695 -10.29349 -10.29068
 Alpha  occ. eigenvalues --  -10.28595 -10.28134 -10.28032 -10.27830 -10.27794
 Alpha  occ. eigenvalues --  -10.27731 -10.27673 -10.27606 -10.27496 -10.27427
 Alpha  occ. eigenvalues --  -10.27363 -10.27333 -10.27208 -10.27142 -10.27057
 Alpha  occ. eigenvalues --  -10.26830 -10.26352 -10.26123 -10.26029 -10.25711
 Alpha  occ. eigenvalues --  -10.25708 -10.25703 -10.25675 -10.25579 -10.25424
 Alpha  occ. eigenvalues --  -10.25415 -10.25363 -10.25322 -10.25230 -10.25165
 Alpha  occ. eigenvalues --  -10.25149 -10.25069 -10.25054 -10.24880 -10.24754
 Alpha  occ. eigenvalues --  -10.24722 -10.24529 -10.24464 -10.24436 -10.24099
 Alpha  occ. eigenvalues --  -10.24058  -3.17425  -1.92328  -1.91868  -1.91726
 Alpha  occ. eigenvalues --   -1.17919  -1.16022  -1.10067  -1.09459  -1.08537
 Alpha  occ. eigenvalues --   -1.07488  -1.04932  -1.03558  -1.02671  -1.01419
 Alpha  occ. eigenvalues --   -0.92220  -0.90911  -0.89668  -0.89366  -0.88826
 Alpha  occ. eigenvalues --   -0.88464  -0.87869  -0.87488  -0.87060  -0.86725
 Alpha  occ. eigenvalues --   -0.86102  -0.85501  -0.84282  -0.83415  -0.82954
 Alpha  occ. eigenvalues --   -0.82370  -0.81695  -0.81274  -0.81071  -0.79954
 Alpha  occ. eigenvalues --   -0.79834  -0.77945  -0.77737  -0.77082  -0.75963
 Alpha  occ. eigenvalues --   -0.75821  -0.75588  -0.74870  -0.74343  -0.74013
 Alpha  occ. eigenvalues --   -0.73448  -0.72190  -0.71875  -0.70455  -0.69622
 Alpha  occ. eigenvalues --   -0.68729  -0.68141  -0.67456  -0.66667  -0.65873
 Alpha  occ. eigenvalues --   -0.65249  -0.64996  -0.64536  -0.64271  -0.64265
 Alpha  occ. eigenvalues --   -0.63479  -0.62689  -0.62501  -0.62292  -0.60828
 Alpha  occ. eigenvalues --   -0.60125  -0.59346  -0.59006  -0.58684  -0.57873
 Alpha  occ. eigenvalues --   -0.57345  -0.56988  -0.56408  -0.55718  -0.55615
 Alpha  occ. eigenvalues --   -0.55115  -0.55030  -0.54566  -0.54268  -0.54102
 Alpha  occ. eigenvalues --   -0.53924  -0.53421  -0.53042  -0.52964  -0.52750
 Alpha  occ. eigenvalues --   -0.52553  -0.52273  -0.52174  -0.51944  -0.51810
 Alpha  occ. eigenvalues --   -0.51639  -0.51398  -0.51341  -0.50934  -0.50871
 Alpha  occ. eigenvalues --   -0.50461  -0.50353  -0.49722  -0.49658  -0.49566
 Alpha  occ. eigenvalues --   -0.49321  -0.49221  -0.49043  -0.48784  -0.48645
 Alpha  occ. eigenvalues --   -0.48419  -0.48301  -0.48028  -0.47871  -0.47551
 Alpha  occ. eigenvalues --   -0.47418  -0.47138  -0.47001  -0.46687  -0.46558
 Alpha  occ. eigenvalues --   -0.46440  -0.46350  -0.46261  -0.45931  -0.45748
 Alpha  occ. eigenvalues --   -0.45646  -0.45540  -0.45456  -0.45037  -0.44855
 Alpha  occ. eigenvalues --   -0.44577  -0.44399  -0.44201  -0.43963  -0.43819
 Alpha  occ. eigenvalues --   -0.43501  -0.43219  -0.43088  -0.42940  -0.42787
 Alpha  occ. eigenvalues --   -0.42762  -0.42533  -0.42261  -0.42122  -0.41964
 Alpha  occ. eigenvalues --   -0.41952  -0.41886  -0.41589  -0.41493  -0.41440
 Alpha  occ. eigenvalues --   -0.40936  -0.40926  -0.40695  -0.40449  -0.40142
 Alpha  occ. eigenvalues --   -0.39927  -0.39565  -0.39414  -0.38926  -0.38634
 Alpha  occ. eigenvalues --   -0.38485  -0.38058  -0.37693  -0.37474  -0.37260
 Alpha  occ. eigenvalues --   -0.37147  -0.37029  -0.36692  -0.36542  -0.36269
 Alpha  occ. eigenvalues --   -0.36179  -0.35646  -0.35223  -0.34809  -0.34618
 Alpha  occ. eigenvalues --   -0.33944  -0.33276  -0.33186  -0.31037  -0.30930
 Alpha  occ. eigenvalues --   -0.30832  -0.30191  -0.29678  -0.29366  -0.24188
 Alpha  occ. eigenvalues --   -0.20731
 Alpha virt. eigenvalues --   -0.08277  -0.02123  -0.00063   0.02164   0.02342
 Alpha virt. eigenvalues --    0.03781   0.04798   0.04803   0.05862   0.06881
 Alpha virt. eigenvalues --    0.07083   0.08165   0.08443   0.08808   0.09430

 Mulliken charges:
               1
     1  Mg   0.797918
     2  C    0.016719
     3  C   -0.098846
     4  C   -0.027434
     5  C   -0.073052
     6  N   -0.372309
     7  C   -0.029216
     8  C   -0.045181
     9  C   -0.068242
    10  C    0.111045
    11  C    0.094625
    12  C    0.162052
    13  C    0.022544
    14  C    0.140145
    15  O   -0.244903
    16  O   -0.304947
    17  N   -0.377979
    18  C    0.155385
    19  C   -0.132811
    20  C   -0.038474
    21  C    0.104939
    22  C    0.104652
    23  C    0.019021
    24  O   -0.205928
    25  C    0.005808
    26  N   -0.192983
    27  C   -0.005641
    28  C   -0.021502
    29  C    0.004877
    30  C    0.004872
    31  C    0.043760
    32  C   -0.019799
    33  C   -0.000072
    34  N   -0.316669
    35  C    0.123631
    36  C   -0.223542
    37  C    0.035363
    38  C    0.081375
    39  C    0.127852
    40  C    0.059032
    41  O   -0.158053
    42  C   -0.041695
    43  C    0.209763
    44  O   -0.229183
    45  O   -0.344584
    46  C    0.173880
    47  C    0.294828
    48  C   -0.148350
    49  C   -0.204516
    50  C    0.105705
    51  C    0.065287
    52  C    0.022507
    53  C    0.060899
    54  C   -0.161150
    55  C    0.065772
    56  C    0.021118
    57  C    0.001781
    58  C    0.048416
    59  C   -0.151364
    60  C    0.051385
    61  C    0.063128
    62  C    0.014463
    63  C    0.049019
    64  C   -0.175468
    65  C    0.049282
    66  C    0.050918
    67  H   -0.023295
    68  H   -0.003246
    69  H   -0.022083
    70  H    0.010102
    71  H    0.005478
    72  H    0.016975
    73  H    0.013255
    74  H    0.030294
    75  H    0.013819
    76  H    0.013037
    77  H    0.029498
    78  H    0.031265
    79  H    0.031934
    80  H    0.041617
    81  H   -0.006784
    82  H    0.059058
    83  H    0.025364
    84  H    0.020816
    85  H    0.023354
    86  H    0.010750
    87  H    0.021056
    88  H    0.027415
    89  H    0.018620
    90  H    0.015745
    91  H   -0.003427
    92  H    0.022209
    93  H    0.020718
    94  H    0.015238
    95  H    0.022709
    96  H    0.018392
    97  H    0.041801
    98  H    0.038232
    99  H    0.046568
   100  H    0.036815
   101  H    0.040927
   102  H    0.010927
   103  H    0.022570
   104  H    0.013135
   105  H    0.020737
   106  H    0.036584
   107  H    0.004607
   108  H    0.010536
   109  H   -0.018357
   110  H   -0.006384
   111  H    0.012165
   112  H    0.001846
   113  H    0.000017
   114  H    0.005015
   115  H    0.016264
   116  H   -0.003089
   117  H    0.011921
   118  H    0.001765
   119  H   -0.001797
   120  H    0.009533
   121  H    0.000158
   122  H   -0.002292
   123  H   -0.009348
   124  H   -0.005720
   125  H   -0.003261
   126  H   -0.007540
   127  H    0.010119
   128  H   -0.015771
   129  H   -0.001503
   130  H    0.001382
   131  H   -0.003437
   132  H   -0.002774
   133  H    0.000190
   134  H   -0.001514
   135  H    0.015888
   136  H    0.017149
   137  H    0.005263
   138  H    0.002410
   139  H    0.001027
   140  H   -0.002520
 Sum of Mulliken charges =  -0.00000

 Dipole moment (field-independent basis, Debye):
    X=             -4.2244    Y=              1.7212    Z=              2.1778  Tot=              5.0547
 Quadrupole moment (field-independent basis, Debye-Ang):
   XX=           -392.7833   YY=           -426.5836   ZZ=           -405.6170
   XY=              4.9127   XZ=             16.8876   YZ=              0.1120

 Normal termination of Gaussian 16 at Fri Apr 29 09:14:02 2022.
