 Gaussian 16, Revision A.03,
 Gaussian 16:  ES64L-G16RevA.03 25-Dec-2016

 ---------------------------------
 #p PBE1PBE/Def2SVP td=(nstates=5)
 ---------------------------------

 -----------------------------------------------------
 step_251_chromophore_10 TDDFT with PBE1PBE functional
 -----------------------------------------------------
 Symbolic Z-matrix:
 Charge =  0 Multiplicity = 1

                         Standard orientation:
 ---------------------------------------------------------------------
 Center     Atomic      Atomic             Coordinates (Angstroms)
 Number     Number       Type             X           Y           Z
 ---------------------------------------------------------------------
      1         12           0        5.710474    0.501943    0.070614
      2          6           0        3.665959   -2.211374    0.128696
      3          6           0        3.139080    2.696160   -0.619615
      4          6           0        7.989358    3.048997   -0.135700
      5          6           0        8.536162   -1.740203    0.351956
      6          7           0        3.693102    0.218991   -0.412498
      7          6           0        2.977448   -0.977816   -0.072824
      8          6           0        1.522190   -0.731194   -0.039020
      9          6           0        1.436474    0.725656   -0.681240
     10          6           0        2.834786    1.294716   -0.589120
     11          6           0        0.922916    0.716261   -2.207136
     12          6           0        0.849542   -0.977836    1.346364
     13          6           0       -0.435089   -1.741035    1.304916
     14          6           0       -1.412598   -1.391836    0.114361
     15          8           0       -1.557054   -0.312149   -0.470880
     16          8           0       -2.215139   -2.473672   -0.050928
     17          7           0        5.571371    2.601636   -0.252663
     18          6           0        4.403613    3.249152   -0.527303
     19          6           0        4.704493    4.632648   -0.667471
     20          6           0        6.124814    4.817609   -0.444547
     21          6           0        6.664436    3.441995   -0.179301
     22          6           0        3.639167    5.666960   -1.092084
     23          6           0        7.005063    6.027404   -0.400901
     24          8           0        8.236497    6.078888   -0.306143
     25          6           0        6.246358    7.407934   -0.431406
     26          7           0        8.009767    0.643958   -0.003156
     27          6           0        8.642949    1.790423    0.011196
     28          6           0       10.125787    1.633095    0.341467
     29          6           0       10.280088    0.092866    0.494043
     30          6           0        8.850794   -0.386927    0.249239
     31          6           0       11.107552    2.245841   -0.781724
     32          6           0       10.788696   -0.227034    1.968561
     33          6           0        9.888742    0.042114    3.199884
     34          7           0        6.067908   -1.572437    0.050847
     35          6           0        7.234641   -2.292594    0.224981
     36          6           0        6.831498   -3.704566    0.384983
     37          6           0        5.471222   -3.782760    0.376275
     38          6           0        5.049540   -2.420411    0.162166
     39          6           0        7.784362   -4.849919    0.384032
     40          6           0        4.296760   -4.649336    0.472147
     41          8           0        4.198443   -5.855891    0.620444
     42          6           0        3.086131   -3.630235    0.301371
     43          6           0        2.368094   -4.010931   -0.931980
     44          8           0        2.827576   -4.122507   -2.081936
     45          8           0        1.070974   -4.224887   -0.511795
     46          6           0        0.107889   -4.439815   -1.599692
     47          6           0       -3.124187   -2.419236   -1.160745
     48          6           0       -4.368392   -2.013408   -0.512261
     49          6           0       -5.326149   -2.877651    0.008247
     50          6           0       -5.455682   -4.387702    0.020493
     51          6           0       -6.496450   -2.236781    0.751349
     52          6           0       -7.418073   -1.698501   -0.355352
     53          6           0       -7.352497   -0.135450   -0.468441
     54          6           0       -8.779284    0.458057   -0.604581
     55          6           0       -8.832159    1.551330   -1.704082
     56          6           0       -9.136889    1.111204    0.806331
     57          6           0      -10.555399    1.803902    0.804705
     58          6           0      -11.509807    1.109270    1.845553
     59          6           0      -12.529718    2.224342    2.391446
     60          6           0      -12.168546    2.523486    3.799427
     61          6           0      -14.055280    1.902294    2.144932
     62          6           0      -14.480846    2.164265    0.678968
     63          6           0      -15.284038    0.989009   -0.021201
     64          6           0      -14.585110    0.547667   -1.344434
     65          6           0      -14.419867    1.660597   -2.400721
     66          6           0      -15.386368   -0.638668   -1.875490
     67          1           0        2.347345    3.429429   -0.785842
     68          1           0        8.645982    3.921363   -0.095840
     69          1           0        9.370539   -2.424430    0.515822
     70          1           0        1.107910   -1.474993   -0.720815
     71          1           0        0.765256    1.322953   -0.064896
     72          1           0        0.470154   -0.227873   -2.509986
     73          1           0        1.819274    0.766488   -2.825136
     74          1           0        0.312230    1.615835   -2.272008
     75          1           0        0.638378   -0.022461    1.826834
     76          1           0        1.604609   -1.558083    1.876542
     77          1           0       -1.070124   -1.554182    2.170001
     78          1           0       -0.452481   -2.830932    1.315449
     79          1           0        2.934943    5.969001   -0.316968
     80          1           0        3.172963    5.179274   -1.948028
     81          1           0        4.065014    6.639140   -1.339391
     82          1           0        5.865699    7.579151   -1.438355
     83          1           0        6.890459    8.154820    0.032340
     84          1           0        5.409347    7.461689    0.265046
     85          1           0       10.317328    2.109178    1.302815
     86          1           0       10.993723   -0.345973   -0.203331
     87          1           0       11.511233    3.164272   -0.354040
     88          1           0       10.541576    2.494514   -1.680045
     89          1           0       11.986068    1.683840   -1.096109
     90          1           0       11.754267    0.207015    2.227620
     91          1           0       10.878483   -1.312836    1.922376
     92          1           0        9.718016   -0.961713    3.589085
     93          1           0        8.972237    0.572063    2.943556
     94          1           0       10.361889    0.653988    3.967861
     95          1           0        7.294352   -5.565097    1.044004
     96          1           0        8.777741   -4.576106    0.739941
     97          1           0        7.691448   -5.345365   -0.581523
     98          1           0        2.492733   -3.919509    1.168320
     99          1           0       -0.798541   -4.698736   -1.051709
    100          1           0        0.451338   -5.328673   -2.128921
    101          1           0        0.042582   -3.642279   -2.340096
    102          1           0       -3.176901   -3.368568   -1.694150
    103          1           0       -2.909106   -1.689846   -1.941689
    104          1           0       -4.518378   -0.939746   -0.400978
    105          1           0       -6.449717   -4.782165   -0.186213
    106          1           0       -5.231613   -4.767582    1.017046
    107          1           0       -4.770038   -4.727198   -0.756823
    108          1           0       -6.144425   -1.470084    1.440891
    109          1           0       -6.915842   -3.038490    1.358610
    110          1           0       -8.458859   -1.936234   -0.131573
    111          1           0       -7.153663   -2.242869   -1.262122
    112          1           0       -6.665119    0.050213   -1.294180
    113          1           0       -6.835796    0.308278    0.382620
    114          1           0       -9.528855   -0.312995   -0.782087
    115          1           0       -9.652432    1.335673   -2.389807
    116          1           0       -7.872876    1.491834   -2.217284
    117          1           0       -8.864076    2.563188   -1.301368
    118          1           0       -8.459270    1.903904    1.125186
    119          1           0       -9.111200    0.275783    1.506335
    120          1           0      -10.918377    1.786260   -0.223004
    121          1           0      -10.477371    2.851554    1.096281
    122          1           0      -11.016671    0.686251    2.720058
    123          1           0      -11.975293    0.244326    1.372380
    124          1           0      -12.353627    3.176954    1.892090
    125          1           0      -12.361099    1.607272    4.358122
    126          1           0      -12.824863    3.252059    4.273994
    127          1           0      -11.170272    2.918847    3.988237
    128          1           0      -14.548151    2.674602    2.735407
    129          1           0      -14.264517    0.902884    2.523722
    130          1           0      -13.578564    2.416431    0.123293
    131          1           0      -15.114266    3.050731    0.722892
    132          1           0      -16.257838    1.410307   -0.270174
    133          1           0      -15.311448    0.104312    0.614855
    134          1           0      -13.592738    0.215828   -1.039468
    135          1           0      -14.854001    2.608409   -2.081584
    136          1           0      -14.647302    1.413011   -3.437800
    137          1           0      -13.339808    1.750575   -2.292451
    138          1           0      -16.446209   -0.473788   -2.068569
    139          1           0      -15.358508   -1.510591   -1.222346
    140          1           0      -14.951030   -0.872956   -2.846423
 ---------------------------------------------------------------------

 SCF Done:  E(RPBE1PBE) =  -3005.35888915     A.U. after   15 cycles

 Excitation energies and oscillator strengths:

 Excited State   1:      Singlet-A      1.8329 eV  676.45 nm  f=0.3661  <S**2>=0.000
     245 -> 248        0.17786
     246 -> 247        0.69222
     246 <- 247       -0.10377
 This state for optimization and/or second-order correction.
 Total Energy, E(TD-HF/TD-DFT) =  -3005.29153289
 Copying the excited state density for this state as the 1-particle RhoCI density.

 Excited State   2:      Singlet-A      2.2531 eV  550.29 nm  f=0.0561  <S**2>=0.000
     245 -> 247        0.62980
     246 -> 248       -0.31313

 Excited State   3:      Singlet-A      3.0090 eV  412.04 nm  f=0.0003  <S**2>=0.000
     242 -> 247        0.62935
     242 -> 249       -0.17256
     242 -> 250        0.10232
     243 -> 247        0.23038

 Excited State   4:      Singlet-A      3.1231 eV  396.99 nm  f=0.0452  <S**2>=0.000
     242 -> 247       -0.20723
     243 -> 247        0.60241
     246 -> 248        0.27091

 Excited State   5:      Singlet-A      3.2225 eV  384.75 nm  f=0.0873  <S**2>=0.000
     240 -> 247        0.21217
     240 -> 249        0.10061
     241 -> 247        0.55535
     241 -> 249        0.11155
     243 -> 247       -0.11083
     245 -> 247        0.11257
     246 -> 248        0.26871

 The electronic state is 1-A.
 Alpha  occ. eigenvalues --  -46.92404 -19.26784 -19.26439 -19.21122 -19.20538
 Alpha  occ. eigenvalues --  -19.19798 -19.19379 -14.41686 -14.41368 -14.39017
 Alpha  occ. eigenvalues --  -14.38848 -10.37473 -10.36588 -10.32576 -10.32496
 Alpha  occ. eigenvalues --  -10.29409 -10.29306 -10.29208 -10.29126 -10.28318
 Alpha  occ. eigenvalues --  -10.27895 -10.27721 -10.27382 -10.27111 -10.26533
 Alpha  occ. eigenvalues --  -10.26437 -10.26103 -10.25777 -10.25589 -10.25548
 Alpha  occ. eigenvalues --  -10.25413 -10.25315 -10.25302 -10.25227 -10.25214
 Alpha  occ. eigenvalues --  -10.25183 -10.25063 -10.24760 -10.24754 -10.24505
 Alpha  occ. eigenvalues --  -10.24233 -10.24078 -10.23875 -10.23516 -10.23332
 Alpha  occ. eigenvalues --  -10.23309 -10.23195 -10.23065 -10.23042 -10.23031
 Alpha  occ. eigenvalues --  -10.22973 -10.22847 -10.22810 -10.22809 -10.22758
 Alpha  occ. eigenvalues --  -10.22726 -10.22691 -10.22663 -10.22469 -10.22441
 Alpha  occ. eigenvalues --  -10.22296 -10.22287 -10.21860 -10.21858 -10.21480
 Alpha  occ. eigenvalues --  -10.21436  -3.14395  -1.87238  -1.86757  -1.86617
 Alpha  occ. eigenvalues --   -1.12755  -1.10816  -1.04962  -1.03987  -1.03384
 Alpha  occ. eigenvalues --   -1.02328  -0.99567  -0.98383  -0.97198  -0.96018
 Alpha  occ. eigenvalues --   -0.86665  -0.85066  -0.83894  -0.83457  -0.83123
 Alpha  occ. eigenvalues --   -0.82584  -0.82153  -0.81612  -0.81508  -0.81063
 Alpha  occ. eigenvalues --   -0.80223  -0.79771  -0.78586  -0.77668  -0.77181
 Alpha  occ. eigenvalues --   -0.76605  -0.75991  -0.75474  -0.75333  -0.74092
 Alpha  occ. eigenvalues --   -0.73970  -0.72274  -0.71985  -0.71321  -0.70285
 Alpha  occ. eigenvalues --   -0.69905  -0.69829  -0.69191  -0.68494  -0.68225
 Alpha  occ. eigenvalues --   -0.67739  -0.66662  -0.66318  -0.64755  -0.63954
 Alpha  occ. eigenvalues --   -0.63204  -0.62372  -0.61882  -0.60895  -0.60140
 Alpha  occ. eigenvalues --   -0.59698  -0.59567  -0.59036  -0.58828  -0.58736
 Alpha  occ. eigenvalues --   -0.57629  -0.57080  -0.56892  -0.56472  -0.55171
 Alpha  occ. eigenvalues --   -0.54639  -0.53870  -0.53562  -0.53296  -0.52396
 Alpha  occ. eigenvalues --   -0.51964  -0.51409  -0.50949  -0.50275  -0.50228
 Alpha  occ. eigenvalues --   -0.49667  -0.49500  -0.49113  -0.48849  -0.48466
 Alpha  occ. eigenvalues --   -0.48393  -0.47972  -0.47678  -0.47484  -0.47305
 Alpha  occ. eigenvalues --   -0.47007  -0.46842  -0.46768  -0.46351  -0.46167
 Alpha  occ. eigenvalues --   -0.46137  -0.46050  -0.45914  -0.45461  -0.45420
 Alpha  occ. eigenvalues --   -0.44989  -0.44839  -0.44367  -0.44298  -0.44107
 Alpha  occ. eigenvalues --   -0.43948  -0.43822  -0.43663  -0.43325  -0.43224
 Alpha  occ. eigenvalues --   -0.43068  -0.42932  -0.42675  -0.42518  -0.42178
 Alpha  occ. eigenvalues --   -0.41998  -0.41868  -0.41743  -0.41429  -0.41171
 Alpha  occ. eigenvalues --   -0.41112  -0.41073  -0.40865  -0.40651  -0.40471
 Alpha  occ. eigenvalues --   -0.40254  -0.40211  -0.40140  -0.39788  -0.39581
 Alpha  occ. eigenvalues --   -0.39298  -0.39138  -0.38936  -0.38655  -0.38476
 Alpha  occ. eigenvalues --   -0.38382  -0.37965  -0.37851  -0.37659  -0.37574
 Alpha  occ. eigenvalues --   -0.37525  -0.37390  -0.37031  -0.36927  -0.36817
 Alpha  occ. eigenvalues --   -0.36703  -0.36684  -0.36468  -0.36338  -0.36252
 Alpha  occ. eigenvalues --   -0.35847  -0.35671  -0.35452  -0.35301  -0.35025
 Alpha  occ. eigenvalues --   -0.34771  -0.34479  -0.34189  -0.33797  -0.33618
 Alpha  occ. eigenvalues --   -0.33280  -0.32860  -0.32669  -0.32290  -0.32242
 Alpha  occ. eigenvalues --   -0.32040  -0.31955  -0.31597  -0.31537  -0.31253
 Alpha  occ. eigenvalues --   -0.31124  -0.30618  -0.30177  -0.29696  -0.29507
 Alpha  occ. eigenvalues --   -0.29117  -0.28846  -0.28217  -0.26639  -0.26177
 Alpha  occ. eigenvalues --   -0.25788  -0.25483  -0.25226  -0.24733  -0.21068
 Alpha  occ. eigenvalues --   -0.18431
 Alpha virt. eigenvalues --   -0.10852  -0.05564  -0.04270  -0.02087  -0.00769
 Alpha virt. eigenvalues --   -0.00562   0.00097   0.00259   0.01395   0.03472
 Alpha virt. eigenvalues --    0.03681   0.04528   0.04944   0.04999   0.05598

 Mulliken charges:
               1
     1  Mg   0.940257
     2  C   -0.004462
     3  C   -0.078116
     4  C   -0.028732
     5  C   -0.067111
     6  N   -0.468619
     7  C    0.038552
     8  C   -0.118809
     9  C   -0.144708
    10  C    0.140592
    11  C    0.038385
    12  C    0.106905
    13  C   -0.051713
    14  C    0.205543
    15  O   -0.276780
    16  O   -0.334000
    17  N   -0.494373
    18  C    0.170844
    19  C   -0.159413
    20  C   -0.085377
    21  C    0.149187
    22  C    0.043512
    23  C    0.064076
    24  O   -0.245685
    25  C   -0.068400
    26  N   -0.301467
    27  C    0.035773
    28  C   -0.098096
    29  C   -0.073087
    30  C    0.048884
    31  C   -0.011927
    32  C   -0.079453
    33  C   -0.072809
    34  N   -0.445850
    35  C    0.157884
    36  C   -0.250622
    37  C   -0.005066
    38  C    0.137518
    39  C    0.071787
    40  C    0.157354
    41  O   -0.204740
    42  C   -0.145000
    43  C    0.299125
    44  O   -0.263328
    45  O   -0.375012
    46  C    0.118092
    47  C    0.243889
    48  C   -0.155834
    49  C   -0.246636
    50  C    0.039592
    51  C    0.003593
    52  C   -0.041390
    53  C    0.013464
    54  C   -0.252052
    55  C    0.004902
    56  C   -0.030161
    57  C   -0.065773
    58  C    0.002063
    59  C   -0.241884
    60  C   -0.009618
    61  C    0.009972
    62  C   -0.048368
    63  C   -0.005488
    64  C   -0.273388
    65  C   -0.011949
    66  C   -0.010429
    67  H    0.008657
    68  H    0.028833
    69  H    0.008554
    70  H    0.058762
    71  H    0.040980
    72  H    0.043484
    73  H    0.041876
    74  H    0.056937
    75  H    0.045683
    76  H    0.048510
    77  H    0.063051
    78  H    0.063368
    79  H    0.058509
    80  H    0.067767
    81  H    0.021883
    82  H    0.084169
    83  H    0.052247
    84  H    0.047856
    85  H    0.060652
    86  H    0.046985
    87  H    0.048292
    88  H    0.055030
    89  H    0.044809
    90  H    0.049004
    91  H    0.030956
    92  H    0.049415
    93  H    0.050805
    94  H    0.043254
    95  H    0.052253
    96  H    0.045215
    97  H    0.070900
    98  H    0.074003
    99  H    0.067944
   100  H    0.059497
   101  H    0.061911
   102  H    0.037124
   103  H    0.050279
   104  H    0.042580
   105  H    0.047787
   106  H    0.064513
   107  H    0.033206
   108  H    0.042501
   109  H    0.014853
   110  H    0.026813
   111  H    0.046365
   112  H    0.032926
   113  H    0.030349
   114  H    0.041628
   115  H    0.043447
   116  H    0.025785
   117  H    0.039774
   118  H    0.033740
   119  H    0.032306
   120  H    0.044248
   121  H    0.032775
   122  H    0.028475
   123  H    0.023635
   124  H    0.032137
   125  H    0.025708
   126  H    0.020960
   127  H    0.038198
   128  H    0.018155
   129  H    0.029360
   130  H    0.036294
   131  H    0.028974
   132  H    0.030070
   133  H    0.031986
   134  H    0.038826
   135  H    0.043540
   136  H    0.043992
   137  H    0.033031
   138  H    0.030307
   139  H    0.028965
   140  H    0.026315
 Sum of Mulliken charges =  -0.00000

 Dipole moment (field-independent basis, Debye):
    X=             -4.2349    Y=              1.2551    Z=              2.2755  Tot=              4.9687
 Quadrupole moment (field-independent basis, Debye-Ang):
   XX=           -386.8054   YY=           -424.8089   ZZ=           -403.1537
   XY=              1.5305   XZ=             17.5303   YZ=              0.1762

 Normal termination of Gaussian 16 at Fri Apr 29 09:34:06 2022.
