 Gaussian 16, Revision A.03,
 Gaussian 16:  ES64L-G16RevA.03 25-Dec-2016

 --------------------------------
 #p wB97XD/Def2SVP td=(nstates=5)
 --------------------------------

 ----------------------------------------------------
 step_251_chromophore_10 TDDFT with wB97XD functional
 ----------------------------------------------------
 Symbolic Z-matrix:
 Charge =  0 Multiplicity = 1

                         Standard orientation:
 ---------------------------------------------------------------------
 Center     Atomic      Atomic             Coordinates (Angstroms)
 Number     Number       Type             X           Y           Z
 ---------------------------------------------------------------------
      1         12           0        5.710474    0.501943    0.070614
      2          6           0        3.665959   -2.211374    0.128696
      3          6           0        3.139080    2.696160   -0.619615
      4          6           0        7.989358    3.048997   -0.135700
      5          6           0        8.536162   -1.740203    0.351956
      6          7           0        3.693102    0.218991   -0.412498
      7          6           0        2.977448   -0.977816   -0.072824
      8          6           0        1.522190   -0.731194   -0.039020
      9          6           0        1.436474    0.725656   -0.681240
     10          6           0        2.834786    1.294716   -0.589120
     11          6           0        0.922916    0.716261   -2.207136
     12          6           0        0.849542   -0.977836    1.346364
     13          6           0       -0.435089   -1.741035    1.304916
     14          6           0       -1.412598   -1.391836    0.114361
     15          8           0       -1.557054   -0.312149   -0.470880
     16          8           0       -2.215139   -2.473672   -0.050928
     17          7           0        5.571371    2.601636   -0.252663
     18          6           0        4.403613    3.249152   -0.527303
     19          6           0        4.704493    4.632648   -0.667471
     20          6           0        6.124814    4.817609   -0.444547
     21          6           0        6.664436    3.441995   -0.179301
     22          6           0        3.639167    5.666960   -1.092084
     23          6           0        7.005063    6.027404   -0.400901
     24          8           0        8.236497    6.078888   -0.306143
     25          6           0        6.246358    7.407934   -0.431406
     26          7           0        8.009767    0.643958   -0.003156
     27          6           0        8.642949    1.790423    0.011196
     28          6           0       10.125787    1.633095    0.341467
     29          6           0       10.280088    0.092866    0.494043
     30          6           0        8.850794   -0.386927    0.249239
     31          6           0       11.107552    2.245841   -0.781724
     32          6           0       10.788696   -0.227034    1.968561
     33          6           0        9.888742    0.042114    3.199884
     34          7           0        6.067908   -1.572437    0.050847
     35          6           0        7.234641   -2.292594    0.224981
     36          6           0        6.831498   -3.704566    0.384983
     37          6           0        5.471222   -3.782760    0.376275
     38          6           0        5.049540   -2.420411    0.162166
     39          6           0        7.784362   -4.849919    0.384032
     40          6           0        4.296760   -4.649336    0.472147
     41          8           0        4.198443   -5.855891    0.620444
     42          6           0        3.086131   -3.630235    0.301371
     43          6           0        2.368094   -4.010931   -0.931980
     44          8           0        2.827576   -4.122507   -2.081936
     45          8           0        1.070974   -4.224887   -0.511795
     46          6           0        0.107889   -4.439815   -1.599692
     47          6           0       -3.124187   -2.419236   -1.160745
     48          6           0       -4.368392   -2.013408   -0.512261
     49          6           0       -5.326149   -2.877651    0.008247
     50          6           0       -5.455682   -4.387702    0.020493
     51          6           0       -6.496450   -2.236781    0.751349
     52          6           0       -7.418073   -1.698501   -0.355352
     53          6           0       -7.352497   -0.135450   -0.468441
     54          6           0       -8.779284    0.458057   -0.604581
     55          6           0       -8.832159    1.551330   -1.704082
     56          6           0       -9.136889    1.111204    0.806331
     57          6           0      -10.555399    1.803902    0.804705
     58          6           0      -11.509807    1.109270    1.845553
     59          6           0      -12.529718    2.224342    2.391446
     60          6           0      -12.168546    2.523486    3.799427
     61          6           0      -14.055280    1.902294    2.144932
     62          6           0      -14.480846    2.164265    0.678968
     63          6           0      -15.284038    0.989009   -0.021201
     64          6           0      -14.585110    0.547667   -1.344434
     65          6           0      -14.419867    1.660597   -2.400721
     66          6           0      -15.386368   -0.638668   -1.875490
     67          1           0        2.347345    3.429429   -0.785842
     68          1           0        8.645982    3.921363   -0.095840
     69          1           0        9.370539   -2.424430    0.515822
     70          1           0        1.107910   -1.474993   -0.720815
     71          1           0        0.765256    1.322953   -0.064896
     72          1           0        0.470154   -0.227873   -2.509986
     73          1           0        1.819274    0.766488   -2.825136
     74          1           0        0.312230    1.615835   -2.272008
     75          1           0        0.638378   -0.022461    1.826834
     76          1           0        1.604609   -1.558083    1.876542
     77          1           0       -1.070124   -1.554182    2.170001
     78          1           0       -0.452481   -2.830932    1.315449
     79          1           0        2.934943    5.969001   -0.316968
     80          1           0        3.172963    5.179274   -1.948028
     81          1           0        4.065014    6.639140   -1.339391
     82          1           0        5.865699    7.579151   -1.438355
     83          1           0        6.890459    8.154820    0.032340
     84          1           0        5.409347    7.461689    0.265046
     85          1           0       10.317328    2.109178    1.302815
     86          1           0       10.993723   -0.345973   -0.203331
     87          1           0       11.511233    3.164272   -0.354040
     88          1           0       10.541576    2.494514   -1.680045
     89          1           0       11.986068    1.683840   -1.096109
     90          1           0       11.754267    0.207015    2.227620
     91          1           0       10.878483   -1.312836    1.922376
     92          1           0        9.718016   -0.961713    3.589085
     93          1           0        8.972237    0.572063    2.943556
     94          1           0       10.361889    0.653988    3.967861
     95          1           0        7.294352   -5.565097    1.044004
     96          1           0        8.777741   -4.576106    0.739941
     97          1           0        7.691448   -5.345365   -0.581523
     98          1           0        2.492733   -3.919509    1.168320
     99          1           0       -0.798541   -4.698736   -1.051709
    100          1           0        0.451338   -5.328673   -2.128921
    101          1           0        0.042582   -3.642279   -2.340096
    102          1           0       -3.176901   -3.368568   -1.694150
    103          1           0       -2.909106   -1.689846   -1.941689
    104          1           0       -4.518378   -0.939746   -0.400978
    105          1           0       -6.449717   -4.782165   -0.186213
    106          1           0       -5.231613   -4.767582    1.017046
    107          1           0       -4.770038   -4.727198   -0.756823
    108          1           0       -6.144425   -1.470084    1.440891
    109          1           0       -6.915842   -3.038490    1.358610
    110          1           0       -8.458859   -1.936234   -0.131573
    111          1           0       -7.153663   -2.242869   -1.262122
    112          1           0       -6.665119    0.050213   -1.294180
    113          1           0       -6.835796    0.308278    0.382620
    114          1           0       -9.528855   -0.312995   -0.782087
    115          1           0       -9.652432    1.335673   -2.389807
    116          1           0       -7.872876    1.491834   -2.217284
    117          1           0       -8.864076    2.563188   -1.301368
    118          1           0       -8.459270    1.903904    1.125186
    119          1           0       -9.111200    0.275783    1.506335
    120          1           0      -10.918377    1.786260   -0.223004
    121          1           0      -10.477371    2.851554    1.096281
    122          1           0      -11.016671    0.686251    2.720058
    123          1           0      -11.975293    0.244326    1.372380
    124          1           0      -12.353627    3.176954    1.892090
    125          1           0      -12.361099    1.607272    4.358122
    126          1           0      -12.824863    3.252059    4.273994
    127          1           0      -11.170272    2.918847    3.988237
    128          1           0      -14.548151    2.674602    2.735407
    129          1           0      -14.264517    0.902884    2.523722
    130          1           0      -13.578564    2.416431    0.123293
    131          1           0      -15.114266    3.050731    0.722892
    132          1           0      -16.257838    1.410307   -0.270174
    133          1           0      -15.311448    0.104312    0.614855
    134          1           0      -13.592738    0.215828   -1.039468
    135          1           0      -14.854001    2.608409   -2.081584
    136          1           0      -14.647302    1.413011   -3.437800
    137          1           0      -13.339808    1.750575   -2.292451
    138          1           0      -16.446209   -0.473788   -2.068569
    139          1           0      -15.358508   -1.510591   -1.222346
    140          1           0      -14.951030   -0.872956   -2.846423
 ---------------------------------------------------------------------

 SCF Done:  E(RwB97XD) =  -3007.87320336     A.U. after   19 cycles

 Excitation energies and oscillator strengths:

 Excited State   1:      Singlet-A      1.6454 eV  753.53 nm  f=0.3706  <S**2>=0.000
     245 -> 248       -0.19031
     246 -> 247        0.68190
     245 <- 248       -0.11747
 This state for optimization and/or second-order correction.
 Total Energy, E(TD-HF/TD-DFT) =  -3007.81273650
 Copying the excited state density for this state as the 1-particle RhoCI density.

 Excited State   2:      Singlet-A      2.2132 eV  560.21 nm  f=0.0484  <S**2>=0.000
     245 -> 247        0.60930
     246 -> 248        0.34665

 Excited State   3:      Singlet-A      3.3552 eV  369.52 nm  f=0.4133  <S**2>=0.000
     242 -> 247       -0.18587
     243 -> 247       -0.37221
     245 -> 247       -0.24542
     246 -> 248        0.50381

 Excited State   4:      Singlet-A      3.4707 eV  357.23 nm  f=0.0097  <S**2>=0.000
     241 -> 247        0.54368
     241 -> 248        0.11203
     241 -> 249       -0.32707
     241 -> 250        0.20150
     243 -> 247        0.13375

 Excited State   5:      Singlet-A      3.5737 eV  346.93 nm  f=0.4131  <S**2>=0.000
     241 -> 247       -0.12564
     243 -> 247        0.54636
     245 -> 247       -0.22527
     246 -> 248        0.32423

 The electronic state is 1-A.
 Alpha  occ. eigenvalues --  -46.95363 -19.31273 -19.30957 -19.25759 -19.25188
 Alpha  occ. eigenvalues --  -19.24433 -19.24429 -14.46611 -14.46578 -14.43885
 Alpha  occ. eigenvalues --  -14.43846 -10.44225 -10.43356 -10.39585 -10.39276
 Alpha  occ. eigenvalues --  -10.35792 -10.35701 -10.35646 -10.35574 -10.34720
 Alpha  occ. eigenvalues --  -10.34253 -10.33912 -10.33767 -10.33310 -10.33283
 Alpha  occ. eigenvalues --  -10.32546 -10.32243 -10.32065 -10.31843 -10.31842
 Alpha  occ. eigenvalues --  -10.31787 -10.31697 -10.31651 -10.31556 -10.31419
 Alpha  occ. eigenvalues --  -10.31378 -10.31367 -10.31196 -10.31182 -10.31102
 Alpha  occ. eigenvalues --  -10.30667 -10.30291 -10.30140 -10.30125 -10.29641
 Alpha  occ. eigenvalues --  -10.29612 -10.29605 -10.29584 -10.29456 -10.29357
 Alpha  occ. eigenvalues --  -10.29307 -10.29254 -10.29171 -10.29150 -10.29111
 Alpha  occ. eigenvalues --  -10.29088 -10.29025 -10.29004 -10.28805 -10.28676
 Alpha  occ. eigenvalues --  -10.28655 -10.28525 -10.28276 -10.28274 -10.27913
 Alpha  occ. eigenvalues --  -10.27880  -3.21222  -1.94811  -1.94332  -1.94191
 Alpha  occ. eigenvalues --   -1.20089  -1.18173  -1.12279  -1.11717  -1.10701
 Alpha  occ. eigenvalues --   -1.09655  -1.06929  -1.05550  -1.04732  -1.03428
 Alpha  occ. eigenvalues --   -0.94163  -0.92716  -0.91501  -0.91128  -0.90743
 Alpha  occ. eigenvalues --   -0.90241  -0.89761  -0.89266  -0.88974  -0.88653
 Alpha  occ. eigenvalues --   -0.88075  -0.87383  -0.86204  -0.85284  -0.84811
 Alpha  occ. eigenvalues --   -0.84228  -0.83584  -0.83124  -0.83028  -0.81839
 Alpha  occ. eigenvalues --   -0.81726  -0.79888  -0.79653  -0.79015  -0.77868
 Alpha  occ. eigenvalues --   -0.77599  -0.77455  -0.76792  -0.76169  -0.75871
 Alpha  occ. eigenvalues --   -0.75348  -0.74154  -0.73853  -0.72365  -0.71522
 Alpha  occ. eigenvalues --   -0.70722  -0.70006  -0.69470  -0.68528  -0.67734
 Alpha  occ. eigenvalues --   -0.67192  -0.67013  -0.66483  -0.66248  -0.66204
 Alpha  occ. eigenvalues --   -0.65299  -0.64531  -0.64459  -0.64115  -0.62703
 Alpha  occ. eigenvalues --   -0.62142  -0.61282  -0.60982  -0.60671  -0.59828
 Alpha  occ. eigenvalues --   -0.59331  -0.58891  -0.58340  -0.57684  -0.57570
 Alpha  occ. eigenvalues --   -0.57048  -0.56908  -0.56528  -0.56205  -0.55934
 Alpha  occ. eigenvalues --   -0.55810  -0.55341  -0.54966  -0.54877  -0.54667
 Alpha  occ. eigenvalues --   -0.54441  -0.54199  -0.54058  -0.53899  -0.53757
 Alpha  occ. eigenvalues --   -0.53512  -0.53316  -0.53266  -0.52817  -0.52770
 Alpha  occ. eigenvalues --   -0.52394  -0.52202  -0.51654  -0.51579  -0.51459
 Alpha  occ. eigenvalues --   -0.51209  -0.51109  -0.50927  -0.50750  -0.50517
 Alpha  occ. eigenvalues --   -0.50308  -0.50235  -0.49944  -0.49817  -0.49466
 Alpha  occ. eigenvalues --   -0.49265  -0.49074  -0.48913  -0.48630  -0.48507
 Alpha  occ. eigenvalues --   -0.48326  -0.48258  -0.48126  -0.47879  -0.47640
 Alpha  occ. eigenvalues --   -0.47482  -0.47437  -0.47333  -0.46954  -0.46735
 Alpha  occ. eigenvalues --   -0.46499  -0.46329  -0.46096  -0.45833  -0.45669
 Alpha  occ. eigenvalues --   -0.45427  -0.45173  -0.45021  -0.44820  -0.44735
 Alpha  occ. eigenvalues --   -0.44716  -0.44484  -0.44153  -0.44101  -0.43861
 Alpha  occ. eigenvalues --   -0.43819  -0.43772  -0.43500  -0.43373  -0.43356
 Alpha  occ. eigenvalues --   -0.42831  -0.42781  -0.42539  -0.42344  -0.42068
 Alpha  occ. eigenvalues --   -0.41815  -0.41431  -0.41250  -0.40831  -0.40533
 Alpha  occ. eigenvalues --   -0.40332  -0.39886  -0.39652  -0.39327  -0.39248
 Alpha  occ. eigenvalues --   -0.39002  -0.38984  -0.38573  -0.38516  -0.38154
 Alpha  occ. eigenvalues --   -0.38114  -0.37511  -0.37063  -0.36714  -0.36553
 Alpha  occ. eigenvalues --   -0.35928  -0.35515  -0.35034  -0.33187  -0.32976
 Alpha  occ. eigenvalues --   -0.32813  -0.32331  -0.31879  -0.31394  -0.26123
 Alpha  occ. eigenvalues --   -0.22532
 Alpha virt. eigenvalues --   -0.06617  -0.00225   0.01988   0.04401   0.05277
 Alpha virt. eigenvalues --    0.06024   0.06967   0.07050   0.08175   0.09946
 Alpha virt. eigenvalues --    0.10362   0.11005   0.11664   0.11853   0.12433

 Mulliken charges:
               1
     1  Mg   0.932237
     2  C   -0.007169
     3  C   -0.106382
     4  C   -0.038148
     5  C   -0.078110
     6  N   -0.443358
     7  C    0.014393
     8  C   -0.081332
     9  C   -0.120437
    10  C    0.132312
    11  C    0.048619
    12  C    0.117458
    13  C   -0.031516
    14  C    0.188564
    15  O   -0.272568
    16  O   -0.331686
    17  N   -0.461256
    18  C    0.170024
    19  C   -0.150227
    20  C   -0.078394
    21  C    0.134827
    22  C    0.056860
    23  C    0.061795
    24  O   -0.237827
    25  C   -0.054583
    26  N   -0.260853
    27  C    0.018329
    28  C   -0.075301
    29  C   -0.047238
    30  C    0.026871
    31  C   -0.001583
    32  C   -0.063038
    33  C   -0.056121
    34  N   -0.406060
    35  C    0.140492
    36  C   -0.241759
    37  C   -0.006388
    38  C    0.118470
    39  C    0.082841
    40  C    0.138257
    41  O   -0.196040
    42  C   -0.107212
    43  C    0.275770
    44  O   -0.257977
    45  O   -0.372385
    46  C    0.130516
    47  C    0.259043
    48  C   -0.165503
    49  C   -0.230243
    50  C    0.054223
    51  C    0.018529
    52  C   -0.021183
    53  C    0.025431
    54  C   -0.218426
    55  C    0.015698
    56  C   -0.014567
    57  C   -0.043898
    58  C    0.010308
    59  C   -0.205378
    60  C    0.002992
    61  C    0.022288
    62  C   -0.027421
    63  C    0.007493
    64  C   -0.236740
    65  C   -0.003369
    66  C    0.001673
    67  H    0.003679
    68  H    0.023697
    69  H    0.002237
    70  H    0.028488
    71  H    0.032048
    72  H    0.038233
    73  H    0.035450
    74  H    0.052557
    75  H    0.039514
    76  H    0.038205
    77  H    0.057814
    78  H    0.055369
    79  H    0.055791
    80  H    0.063230
    81  H    0.016225
    82  H    0.079268
    83  H    0.051300
    84  H    0.041998
    85  H    0.049792
    86  H    0.038544
    87  H    0.042359
    88  H    0.048607
    89  H    0.040334
    90  H    0.041075
    91  H    0.020311
    92  H    0.044310
    93  H    0.040006
    94  H    0.038202
    95  H    0.046344
    96  H    0.039811
    97  H    0.065441
    98  H    0.067417
    99  H    0.064639
   100  H    0.056218
   101  H    0.058632
   102  H    0.032470
   103  H    0.045870
   104  H    0.038194
   105  H    0.042618
   106  H    0.059318
   107  H    0.025582
   108  H    0.034131
   109  H    0.007996
   110  H    0.017205
   111  H    0.035319
   112  H    0.023396
   113  H    0.019442
   114  H    0.028946
   115  H    0.038489
   116  H    0.019241
   117  H    0.033151
   118  H    0.025786
   119  H    0.020063
   120  H    0.031016
   121  H    0.022913
   122  H    0.019326
   123  H    0.014978
   124  H    0.017358
   125  H    0.017433
   126  H    0.014894
   127  H    0.032736
   128  H    0.009440
   129  H    0.021060
   130  H    0.018415
   131  H    0.022632
   132  H    0.021552
   133  H    0.022536
   134  H    0.024554
   135  H    0.037628
   136  H    0.039930
   137  H    0.025869
   138  H    0.023884
   139  H    0.023307
   140  H    0.019537
 Sum of Mulliken charges =  -0.00000

 Dipole moment (field-independent basis, Debye):
    X=             -4.2915    Y=              1.8689    Z=              2.2283  Tot=              5.1841
 Quadrupole moment (field-independent basis, Debye-Ang):
   XX=           -387.9684   YY=           -422.0640   ZZ=           -402.7115
   XY=              5.6368   XZ=             17.2735   YZ=             -0.0196

 Normal termination of Gaussian 16 at Fri Apr 29 10:01:44 2022.
