 Gaussian 16, Revision A.03,
 Gaussian 16:  ES64L-G16RevA.03 25-Dec-2016

 --------------------
 #p ZINDO=(nstates=5)
 --------------------

 -----------------------------
 step_251_chromophore_10 ZINDO
 -----------------------------
 Symbolic Z-matrix:
 Charge =  0 Multiplicity = 1

                         Standard orientation:
 ---------------------------------------------------------------------
 Center     Atomic      Atomic             Coordinates (Angstroms)
 Number     Number       Type             X           Y           Z
 ---------------------------------------------------------------------
      1         12           0        5.710474    0.501943    0.070614
      2          6           0        3.665959   -2.211374    0.128696
      3          6           0        3.139080    2.696160   -0.619615
      4          6           0        7.989358    3.048997   -0.135700
      5          6           0        8.536162   -1.740203    0.351956
      6          7           0        3.693102    0.218991   -0.412498
      7          6           0        2.977448   -0.977816   -0.072824
      8          6           0        1.522190   -0.731194   -0.039020
      9          6           0        1.436474    0.725656   -0.681240
     10          6           0        2.834786    1.294716   -0.589120
     11          6           0        0.922916    0.716261   -2.207136
     12          6           0        0.849542   -0.977836    1.346364
     13          6           0       -0.435089   -1.741035    1.304916
     14          6           0       -1.412598   -1.391836    0.114361
     15          8           0       -1.557054   -0.312149   -0.470880
     16          8           0       -2.215139   -2.473672   -0.050928
     17          7           0        5.571371    2.601636   -0.252663
     18          6           0        4.403613    3.249152   -0.527303
     19          6           0        4.704493    4.632648   -0.667471
     20          6           0        6.124814    4.817609   -0.444547
     21          6           0        6.664436    3.441995   -0.179301
     22          6           0        3.639167    5.666960   -1.092084
     23          6           0        7.005063    6.027404   -0.400901
     24          8           0        8.236497    6.078888   -0.306143
     25          6           0        6.246358    7.407934   -0.431406
     26          7           0        8.009767    0.643958   -0.003156
     27          6           0        8.642949    1.790423    0.011196
     28          6           0       10.125787    1.633095    0.341467
     29          6           0       10.280088    0.092866    0.494043
     30          6           0        8.850794   -0.386927    0.249239
     31          6           0       11.107552    2.245841   -0.781724
     32          6           0       10.788696   -0.227034    1.968561
     33          6           0        9.888742    0.042114    3.199884
     34          7           0        6.067908   -1.572437    0.050847
     35          6           0        7.234641   -2.292594    0.224981
     36          6           0        6.831498   -3.704566    0.384983
     37          6           0        5.471222   -3.782760    0.376275
     38          6           0        5.049540   -2.420411    0.162166
     39          6           0        7.784362   -4.849919    0.384032
     40          6           0        4.296760   -4.649336    0.472147
     41          8           0        4.198443   -5.855891    0.620444
     42          6           0        3.086131   -3.630235    0.301371
     43          6           0        2.368094   -4.010931   -0.931980
     44          8           0        2.827576   -4.122507   -2.081936
     45          8           0        1.070974   -4.224887   -0.511795
     46          6           0        0.107889   -4.439815   -1.599692
     47          6           0       -3.124187   -2.419236   -1.160745
     48          6           0       -4.368392   -2.013408   -0.512261
     49          6           0       -5.326149   -2.877651    0.008247
     50          6           0       -5.455682   -4.387702    0.020493
     51          6           0       -6.496450   -2.236781    0.751349
     52          6           0       -7.418073   -1.698501   -0.355352
     53          6           0       -7.352497   -0.135450   -0.468441
     54          6           0       -8.779284    0.458057   -0.604581
     55          6           0       -8.832159    1.551330   -1.704082
     56          6           0       -9.136889    1.111204    0.806331
     57          6           0      -10.555399    1.803902    0.804705
     58          6           0      -11.509807    1.109270    1.845553
     59          6           0      -12.529718    2.224342    2.391446
     60          6           0      -12.168546    2.523486    3.799427
     61          6           0      -14.055280    1.902294    2.144932
     62          6           0      -14.480846    2.164265    0.678968
     63          6           0      -15.284038    0.989009   -0.021201
     64          6           0      -14.585110    0.547667   -1.344434
     65          6           0      -14.419867    1.660597   -2.400721
     66          6           0      -15.386368   -0.638668   -1.875490
     67          1           0        2.347345    3.429429   -0.785842
     68          1           0        8.645982    3.921363   -0.095840
     69          1           0        9.370539   -2.424430    0.515822
     70          1           0        1.107910   -1.474993   -0.720815
     71          1           0        0.765256    1.322953   -0.064896
     72          1           0        0.470154   -0.227873   -2.509986
     73          1           0        1.819274    0.766488   -2.825136
     74          1           0        0.312230    1.615835   -2.272008
     75          1           0        0.638378   -0.022461    1.826834
     76          1           0        1.604609   -1.558083    1.876542
     77          1           0       -1.070124   -1.554182    2.170001
     78          1           0       -0.452481   -2.830932    1.315449
     79          1           0        2.934943    5.969001   -0.316968
     80          1           0        3.172963    5.179274   -1.948028
     81          1           0        4.065014    6.639140   -1.339391
     82          1           0        5.865699    7.579151   -1.438355
     83          1           0        6.890459    8.154820    0.032340
     84          1           0        5.409347    7.461689    0.265046
     85          1           0       10.317328    2.109178    1.302815
     86          1           0       10.993723   -0.345973   -0.203331
     87          1           0       11.511233    3.164272   -0.354040
     88          1           0       10.541576    2.494514   -1.680045
     89          1           0       11.986068    1.683840   -1.096109
     90          1           0       11.754267    0.207015    2.227620
     91          1           0       10.878483   -1.312836    1.922376
     92          1           0        9.718016   -0.961713    3.589085
     93          1           0        8.972237    0.572063    2.943556
     94          1           0       10.361889    0.653988    3.967861
     95          1           0        7.294352   -5.565097    1.044004
     96          1           0        8.777741   -4.576106    0.739941
     97          1           0        7.691448   -5.345365   -0.581523
     98          1           0        2.492733   -3.919509    1.168320
     99          1           0       -0.798541   -4.698736   -1.051709
    100          1           0        0.451338   -5.328673   -2.128921
    101          1           0        0.042582   -3.642279   -2.340096
    102          1           0       -3.176901   -3.368568   -1.694150
    103          1           0       -2.909106   -1.689846   -1.941689
    104          1           0       -4.518378   -0.939746   -0.400978
    105          1           0       -6.449717   -4.782165   -0.186213
    106          1           0       -5.231613   -4.767582    1.017046
    107          1           0       -4.770038   -4.727198   -0.756823
    108          1           0       -6.144425   -1.470084    1.440891
    109          1           0       -6.915842   -3.038490    1.358610
    110          1           0       -8.458859   -1.936234   -0.131573
    111          1           0       -7.153663   -2.242869   -1.262122
    112          1           0       -6.665119    0.050213   -1.294180
    113          1           0       -6.835796    0.308278    0.382620
    114          1           0       -9.528855   -0.312995   -0.782087
    115          1           0       -9.652432    1.335673   -2.389807
    116          1           0       -7.872876    1.491834   -2.217284
    117          1           0       -8.864076    2.563188   -1.301368
    118          1           0       -8.459270    1.903904    1.125186
    119          1           0       -9.111200    0.275783    1.506335
    120          1           0      -10.918377    1.786260   -0.223004
    121          1           0      -10.477371    2.851554    1.096281
    122          1           0      -11.016671    0.686251    2.720058
    123          1           0      -11.975293    0.244326    1.372380
    124          1           0      -12.353627    3.176954    1.892090
    125          1           0      -12.361099    1.607272    4.358122
    126          1           0      -12.824863    3.252059    4.273994
    127          1           0      -11.170272    2.918847    3.988237
    128          1           0      -14.548151    2.674602    2.735407
    129          1           0      -14.264517    0.902884    2.523722
    130          1           0      -13.578564    2.416431    0.123293
    131          1           0      -15.114266    3.050731    0.722892
    132          1           0      -16.257838    1.410307   -0.270174
    133          1           0      -15.311448    0.104312    0.614855
    134          1           0      -13.592738    0.215828   -1.039468
    135          1           0      -14.854001    2.608409   -2.081584
    136          1           0      -14.647302    1.413011   -3.437800
    137          1           0      -13.339808    1.750575   -2.292451
    138          1           0      -16.446209   -0.473788   -2.068569
    139          1           0      -15.358508   -1.510591   -1.222346
    140          1           0      -14.951030   -0.872956   -2.846423
 ---------------------------------------------------------------------

 SCF Done:  E(RZINDO/S) =  -474.112834290     A.U. after   20 cycles

 Excitation energies and oscillator strengths:

 Excited State   1:      Singlet-A      1.2501 eV  991.79 nm  f=0.5794  <S**2>=0.000
     175 ->178        -0.18915
     176 ->177         0.66370
 This state for optimization and/or second-order correction.
 Total Energy, E(CIS/TDA) =  -474.066893762
 Copying the excited state density for this state as the 1-particle RhoCI density.

 Excited State   2:      Singlet-A      1.9357 eV  640.53 nm  f=0.0053  <S**2>=0.000
     175 ->177         0.49192
     176 ->178         0.48614

 Excited State   3:      Singlet-A      2.8885 eV  429.23 nm  f=0.1285  <S**2>=0.000
     175 ->177        -0.16636
     176 ->178         0.20074
     176 ->179         0.58486
     176 ->181        -0.12145
     176 ->183        -0.12459

 Excited State   4:      Singlet-A      2.9215 eV  424.38 nm  f=0.0240  <S**2>=0.000
     167 ->177         0.10715
     167 ->179        -0.13540
     168 ->177         0.33839
     168 ->179        -0.35159
     168 ->180        -0.11768
     168 ->181        -0.24000
     168 ->186        -0.19881
     168 ->187         0.11955
     176 ->179        -0.10152

 Excited State   5:      Singlet-A      2.9793 eV  416.15 nm  f=1.0442  <S**2>=0.000
     171 ->177        -0.12040
     175 ->177        -0.41173
     176 ->178         0.42209
     176 ->179        -0.30297

 The electronic state is 1-A.
 Alpha  occ. eigenvalues --   -1.83762  -1.80783  -1.79733  -1.76290  -1.71995
 Alpha  occ. eigenvalues --   -1.70749  -1.64405  -1.61180  -1.57709  -1.57068
 Alpha  occ. eigenvalues --   -1.55590  -1.52313  -1.49679  -1.47609  -1.45791
 Alpha  occ. eigenvalues --   -1.43680  -1.41980  -1.39534  -1.37410  -1.36703
 Alpha  occ. eigenvalues --   -1.35265  -1.33248  -1.32763  -1.31331  -1.28341
 Alpha  occ. eigenvalues --   -1.26867  -1.24958  -1.23854  -1.21017  -1.18790
 Alpha  occ. eigenvalues --   -1.16883  -1.16804  -1.15280  -1.13192  -1.12840
 Alpha  occ. eigenvalues --   -1.11675  -1.10712  -1.10046  -1.04662  -1.03350
 Alpha  occ. eigenvalues --   -1.02634  -1.00494  -0.98748  -0.98009  -0.96897
 Alpha  occ. eigenvalues --   -0.96245  -0.93998  -0.93220  -0.93191  -0.92317
 Alpha  occ. eigenvalues --   -0.90725  -0.89842  -0.87485  -0.86572  -0.85839
 Alpha  occ. eigenvalues --   -0.85494  -0.84885  -0.83562  -0.81865  -0.81211
 Alpha  occ. eigenvalues --   -0.80024  -0.79580  -0.77163  -0.76988  -0.76921
 Alpha  occ. eigenvalues --   -0.76301  -0.75679  -0.74872  -0.74089  -0.73339
 Alpha  occ. eigenvalues --   -0.73029  -0.72727  -0.72116  -0.71406  -0.71194
 Alpha  occ. eigenvalues --   -0.70497  -0.69566  -0.68505  -0.68436  -0.68115
 Alpha  occ. eigenvalues --   -0.67631  -0.66750  -0.66460  -0.66035  -0.65831
 Alpha  occ. eigenvalues --   -0.65707  -0.65100  -0.64902  -0.64449  -0.63927
 Alpha  occ. eigenvalues --   -0.62976  -0.62844  -0.62595  -0.61637  -0.61339
 Alpha  occ. eigenvalues --   -0.61261  -0.60929  -0.60503  -0.60180  -0.59518
 Alpha  occ. eigenvalues --   -0.59275  -0.58977  -0.58717  -0.58677  -0.58110
 Alpha  occ. eigenvalues --   -0.57406  -0.57204  -0.56994  -0.56659  -0.56090
 Alpha  occ. eigenvalues --   -0.55821  -0.55478  -0.55166  -0.54773  -0.54673
 Alpha  occ. eigenvalues --   -0.54300  -0.53958  -0.53544  -0.53273  -0.53088
 Alpha  occ. eigenvalues --   -0.52909  -0.52755  -0.52364  -0.52116  -0.51733
 Alpha  occ. eigenvalues --   -0.51544  -0.51160  -0.51114  -0.50744  -0.50528
 Alpha  occ. eigenvalues --   -0.50247  -0.50043  -0.49877  -0.49354  -0.48876
 Alpha  occ. eigenvalues --   -0.48609  -0.48250  -0.48133  -0.48020  -0.47811
 Alpha  occ. eigenvalues --   -0.47695  -0.47048  -0.46939  -0.46655  -0.46583
 Alpha  occ. eigenvalues --   -0.45940  -0.45889  -0.45695  -0.45454  -0.45166
 Alpha  occ. eigenvalues --   -0.45002  -0.44581  -0.44306  -0.44065  -0.43822
 Alpha  occ. eigenvalues --   -0.43465  -0.43394  -0.42999  -0.42404  -0.41768
 Alpha  occ. eigenvalues --   -0.41664  -0.41549  -0.41053  -0.39628  -0.39042
 Alpha  occ. eigenvalues --   -0.38355  -0.36841  -0.35292  -0.35036  -0.34744
 Alpha  occ. eigenvalues --   -0.33241  -0.32587  -0.32149  -0.30188  -0.26808
 Alpha  occ. eigenvalues --   -0.21341
 Alpha virt. eigenvalues --   -0.08046  -0.02386  -0.00730   0.01088   0.01228
 Alpha virt. eigenvalues --    0.02006   0.02641   0.03046   0.04653   0.04913
 Alpha virt. eigenvalues --    0.06462   0.06963   0.07016   0.07858   0.08346

 Mulliken charges:
               1
     1  Mg   0.425659
     2  C   -0.052175
     3  C   -0.098718
     4  C   -0.054679
     5  C   -0.049860
     6  N   -0.307835
     7  C    0.115363
     8  C    0.006324
     9  C    0.006506
    10  C    0.163575
    11  C   -0.048098
    12  C   -0.009743
    13  C    0.006720
    14  C    0.460234
    15  O   -0.529278
    16  O   -0.247402
    17  N   -0.335545
    18  C    0.142328
    19  C    0.012483
    20  C   -0.041844
    21  C    0.122437
    22  C   -0.051205
    23  C    0.327327
    24  O   -0.515828
    25  C   -0.042439
    26  N   -0.244620
    27  C    0.156005
    28  C    0.003574
    29  C   -0.000898
    30  C    0.092298
    31  C   -0.058609
    32  C   -0.037389
    33  C   -0.056973
    34  N   -0.306421
    35  C    0.055669
    36  C    0.041800
    37  C   -0.065298
    38  C    0.118736
    39  C   -0.048213
    40  C    0.333997
    41  O   -0.518080
    42  C    0.050301
    43  C    0.491297
    44  O   -0.525631
    45  O   -0.278302
    46  C    0.067977
    47  C    0.110041
    48  C   -0.093199
    49  C   -0.019741
    50  C   -0.035858
    51  C   -0.031741
    52  C   -0.031750
    53  C   -0.034688
    54  C   -0.014675
    55  C   -0.060587
    56  C   -0.045558
    57  C   -0.045926
    58  C   -0.039859
    59  C   -0.017162
    60  C   -0.051626
    61  C   -0.038224
    62  C   -0.045603
    63  C   -0.038923
    64  C   -0.008100
    65  C   -0.062633
    66  C   -0.057595
    67  H    0.032902
    68  H    0.043465
    69  H    0.033821
    70  H    0.035303
    71  H    0.028287
    72  H    0.036630
    73  H    0.021908
    74  H    0.032979
    75  H    0.033407
    76  H    0.025268
    77  H    0.038216
    78  H    0.044681
    79  H    0.034264
    80  H    0.035303
    81  H    0.024218
    82  H    0.047122
    83  H    0.036941
    84  H    0.023080
    85  H    0.039221
    86  H    0.034832
    87  H    0.017928
    88  H    0.026485
    89  H    0.026486
    90  H    0.021641
    91  H    0.008984
    92  H    0.022264
    93  H    0.024580
    94  H    0.018659
    95  H    0.028004
    96  H    0.030815
    97  H    0.044760
    98  H    0.054637
    99  H    0.033430
   100  H    0.043275
   101  H    0.052331
   102  H    0.033359
   103  H    0.043983
   104  H    0.041824
   105  H    0.028986
   106  H    0.034106
   107  H    0.017578
   108  H    0.023751
   109  H    0.013737
   110  H    0.010694
   111  H    0.027514
   112  H    0.018619
   113  H    0.023553
   114  H    0.030023
   115  H    0.021564
   116  H    0.015035
   117  H    0.023850
   118  H    0.023847
   119  H    0.016465
   120  H    0.025953
   121  H    0.019726
   122  H    0.023781
   123  H    0.018497
   124  H    0.015400
   125  H    0.011563
   126  H    0.004444
   127  H    0.020597
   128  H    0.014722
   129  H    0.027797
   130  H    0.024591
   131  H    0.016197
   132  H    0.023965
   133  H    0.025900
   134  H    0.020793
   135  H    0.024687
   136  H    0.029060
   137  H    0.013292
   138  H    0.019305
   139  H    0.014800
   140  H    0.008196
 Sum of Mulliken charges =  -0.00000

 Dipole moment (field-independent basis, Debye):
    X=             -5.1042    Y=              4.0863    Z=              3.7540  Tot=              7.5394
 N-N= 4.313591791350D+03 E-N= 0.000000000000D+00  KE=-9.301470189022D+03
 Leave Link  601 at Fri Apr 29 10:13:59 2022, MaxMem=  6710886400 cpu:               0.8 elap:               0.1
 (Enter /sw/apps/gaussian-16.0/g16/l9999.exe)
 1\1\GINC-BP1-COMPUTE139\SP\RZINDO CIS\STO-3G\C55H74Mg1N4O6\OF15641\29-
 Apr-2022\0\\#p ZINDO=(nstates=5)\\step_251_chromophore_10 ZINDO\\0,1\M
 g,0,40.542,8.712,29.57\C,0,42.469,10.353,31.837\C,0,38.24,7.702,31.933
 \C,0,38.875,6.963,27.144\C,0,43.102,9.33,27.089\N,0,40.507,8.83,31.66\
 C,0,41.281,9.791,32.393\C,0,40.707,10.019,33.734\C,0,39.628,8.848,33.8
 16\C,0,39.411,8.393,32.39\C,0,40.097,7.618,34.743\C,0,40.243,11.483,34
 .006\C,0,40.641,12.042,35.334\C,0,40.553,11.05,36.56\O,0,39.776,10.103

 Normal termination of Gaussian 16 at Fri Apr 29 10:13:59 2022.
