 Gaussian 16, Revision A.03,
 Gaussian 16:  ES64L-G16RevA.03 25-Dec-2016

 ------------------------------
 #p blyp/Def2SVP td=(nstates=5)
 ------------------------------

 -------------------------------------------------
 step_51_chromophore_20 TDDFT with blyp functional
 -------------------------------------------------
 Symbolic Z-matrix:
 Charge =  0 Multiplicity = 1

                         Standard orientation:
 ---------------------------------------------------------------------
 Center     Atomic      Atomic             Coordinates (Angstroms)
 Number     Number       Type             X           Y           Z
 ---------------------------------------------------------------------
      1         12           0       -4.444229    1.358374    0.625857
      2          6           0       -4.888358   -2.112821    0.059843
      3          6           0       -1.931203    0.576507    2.831019
      4          6           0       -3.704097    4.542564    0.721014
      5          6           0       -6.572027    1.834546   -2.215203
      6          7           0       -3.554716   -0.494258    1.298245
      7          6           0       -3.923924   -1.747814    1.002205
      8          6           0       -3.035468   -2.837444    1.786480
      9          6           0       -2.593710   -1.851979    3.003474
     10          6           0       -2.694528   -0.502687    2.322485
     11          6           0       -3.452479   -1.985909    4.265671
     12          6           0       -1.884912   -3.362221    0.960983
     13          6           0       -1.272637   -4.761747    1.329812
     14          6           0        0.087015   -4.687714    2.049048
     15          8           0        0.253005   -4.148733    3.203847
     16          8           0        1.159046   -5.163502    1.336577
     17          7           0       -2.983197    2.417781    1.557603
     18          6           0       -2.026282    1.924072    2.434301
     19          6           0       -1.270409    3.053629    3.016876
     20          6           0       -1.803635    4.210757    2.408218
     21          6           0       -2.891394    3.754622    1.576868
     22          6           0       -0.029810    2.925949    3.742616
     23          6           0       -1.380480    5.625707    2.760251
     24          8           0       -0.568567    5.790077    3.628032
     25          6           0       -1.952874    6.811653    2.107317
     26          7           0       -4.900394    2.964420   -0.741858
     27          6           0       -4.640986    4.187543   -0.267560
     28          6           0       -5.208006    5.225198   -1.238475
     29          6           0       -6.159853    4.387819   -2.084760
     30          6           0       -5.852675    2.989712   -1.712027
     31          6           0       -5.950087    6.454201   -0.522209
     32          6           0       -6.017809    4.574692   -3.673674
     33          6           0       -7.407588    4.731171   -4.429115
     34          7           0       -5.693636    0.217052   -0.647935
     35          6           0       -6.521612    0.501043   -1.751617
     36          6           0       -7.226003   -0.686086   -2.162285
     37          6           0       -6.594852   -1.655176   -1.424811
     38          6           0       -5.671803   -1.104919   -0.569119
     39          6           0       -8.296146   -0.855428   -3.193044
     40          6           0       -6.598727   -3.039257   -1.236659
     41          8           0       -7.315087   -3.913153   -1.765997
     42          6           0       -5.348852   -3.403728   -0.276217
     43          6           0       -4.442860   -4.174554   -1.089625
     44          8           0       -4.033870   -3.699949   -2.152381
     45          8           0       -4.480125   -5.491402   -0.799581
     46          6           0       -3.803372   -6.274284   -1.798929
     47          6           0        2.467091   -5.220543    2.094366
     48          6           0        3.695043   -4.760782    1.236966
     49          6           0        3.781344   -4.737005   -0.109806
     50          6           0        2.777660   -5.329003   -1.124717
     51          6           0        5.164377   -4.286519   -0.683407
     52          6           0        5.296368   -2.697184   -0.638951
     53          6           0        6.283272   -2.098997   -1.643551
     54          6           0        6.075877   -0.551661   -1.640072
     55          6           0        5.343745   -0.069395   -2.877618
     56          6           0        7.455277   -0.002577   -1.443718
     57          6           0        7.829638    0.288656    0.127283
     58          6           0        8.476205    1.620401    0.391720
     59          6           0        9.871853    1.458733    1.032145
     60          6           0        9.841452    1.872508    2.538305
     61          6           0       10.882952    2.257382    0.129684
     62          6           0       12.266939    1.596833    0.092268
     63          6           0       12.568183    1.085160   -1.339869
     64          6           0       13.778880    1.841139   -1.995799
     65          6           0       13.272241    3.269904   -2.379328
     66          6           0       14.312200    1.066437   -3.254366
     67          1           0       -1.202778    0.435555    3.631928
     68          1           0       -3.743185    5.577793    1.065322
     69          1           0       -7.348194    2.090715   -2.939132
     70          1           0       -3.716037   -3.574739    2.211169
     71          1           0       -1.520541   -2.035842    3.054896
     72          1           0       -4.068372   -2.884971    4.265932
     73          1           0       -4.187518   -1.182005    4.240626
     74          1           0       -2.778307   -2.191564    5.096648
     75          1           0       -1.086259   -2.620287    0.960010
     76          1           0       -2.058356   -3.440409   -0.111960
     77          1           0       -1.236226   -5.372010    0.427161
     78          1           0       -1.931850   -5.264318    2.037585
     79          1           0        0.315987    1.916085    3.519001
     80          1           0       -0.134317    3.043127    4.820151
     81          1           0        0.804039    3.557443    3.435831
     82          1           0       -2.974896    7.001447    2.436812
     83          1           0       -1.897181    6.642170    1.031624
     84          1           0       -1.273874    7.591148    2.452512
     85          1           0       -4.382496    5.548776   -1.873858
     86          1           0       -7.161024    4.479658   -1.663401
     87          1           0       -7.028342    6.369907   -0.657325
     88          1           0       -5.527203    7.325375   -1.022421
     89          1           0       -5.764509    6.486537    0.551283
     90          1           0       -5.546013    3.679425   -4.079883
     91          1           0       -5.410687    5.439899   -3.937645
     92          1           0       -7.428117    3.778449   -4.959894
     93          1           0       -7.305267    5.479852   -5.214747
     94          1           0       -8.249081    4.876245   -3.752156
     95          1           0       -9.166003   -1.423603   -2.863897
     96          1           0       -7.770975   -1.238789   -4.067793
     97          1           0       -8.595227    0.164480   -3.434087
     98          1           0       -5.800966   -3.975430    0.533849
     99          1           0       -2.827896   -5.896075   -2.104437
    100          1           0       -4.403816   -6.297311   -2.708708
    101          1           0       -3.721979   -7.281893   -1.389583
    102          1           0        2.719522   -6.222613    2.442809
    103          1           0        2.408884   -4.532791    2.937929
    104          1           0        4.522696   -4.273414    1.754013
    105          1           0        1.933638   -4.658240   -1.290749
    106          1           0        2.444894   -6.296936   -0.750401
    107          1           0        3.377932   -5.523118   -2.013893
    108          1           0        5.179111   -4.683809   -1.698204
    109          1           0        5.894576   -4.748965   -0.018767
    110          1           0        5.702156   -2.543377    0.361196
    111          1           0        4.241138   -2.447698   -0.746237
    112          1           0        6.046832   -2.444957   -2.650190
    113          1           0        7.278991   -2.470958   -1.402776
    114          1           0        5.391564   -0.329946   -0.821361
    115          1           0        5.544295    1.000401   -2.938897
    116          1           0        4.255808   -0.109008   -2.828531
    117          1           0        5.587993   -0.646639   -3.769223
    118          1           0        7.614530    0.924140   -1.995346
    119          1           0        8.280262   -0.621907   -1.797630
    120          1           0        8.506064   -0.504570    0.445024
    121          1           0        6.972433    0.156500    0.787710
    122          1           0        7.773588    2.032228    1.116174
    123          1           0        8.354149    2.247868   -0.490958
    124          1           0       10.196689    0.422911    0.930694
    125          1           0       10.898947    2.111874    2.650453
    126          1           0        9.466270    1.079086    3.184675
    127          1           0        9.218785    2.713730    2.840119
    128          1           0       11.084880    3.247218    0.537837
    129          1           0       10.404741    2.399671   -0.838465
    130          1           0       12.415014    0.719140    0.721533
    131          1           0       12.995419    2.327028    0.444900
    132          1           0       11.795827    1.364139   -2.057226
    133          1           0       12.654555   -0.001979   -1.329269
    134          1           0       14.612639    1.713507   -1.304787
    135          1           0       13.850764    3.711868   -3.190705
    136          1           0       13.183589    3.901011   -1.495586
    137          1           0       12.284432    3.241336   -2.839081
    138          1           0       13.998926    1.531717   -4.188730
    139          1           0       13.904868    0.055283   -3.222197
    140          1           0       15.400272    1.106616   -3.312036
 ---------------------------------------------------------------------

 SCF Done:  E(RB-LYP) =  -3007.32609561     A.U. after   20 cycles

 Excitation energies and oscillator strengths:

 Excited State   1:      Singlet-A      1.8096 eV  685.14 nm  f=0.2816  <S**2>=0.000
     245 -> 248        0.19898
     246 -> 247        0.68595
     246 <- 247       -0.14772
 This state for optimization and/or second-order correction.
 Total Energy, E(TD-HF/TD-DFT) =  -3007.25959324
 Copying the excited state density for this state as the 1-particle RhoCI density.

 Excited State   2:      Singlet-A      1.9093 eV  649.36 nm  f=0.0062  <S**2>=0.000
     244 -> 247        0.66242
     245 -> 247        0.23127

 Excited State   3:      Singlet-A      1.9943 eV  621.70 nm  f=0.0051  <S**2>=0.000
     243 -> 247        0.67097
     245 -> 247       -0.18387

 Excited State   4:      Singlet-A      2.0479 eV  605.42 nm  f=0.0570  <S**2>=0.000
     243 -> 247        0.21780
     244 -> 247       -0.21400
     245 -> 247        0.56914
     246 -> 248       -0.26569

 Excited State   5:      Singlet-A      2.2720 eV  545.70 nm  f=0.0000  <S**2>=0.000
     242 -> 247        0.70708

 The electronic state is 1-A.
 Alpha  occ. eigenvalues --  -46.27138 -18.83128 -18.82885 -18.76630 -18.75936
 Alpha  occ. eigenvalues --  -18.75300 -18.75292 -14.03492 -14.02785 -14.01042
 Alpha  occ. eigenvalues --  -14.00540 -10.05003 -10.03191  -9.99281  -9.98876
 Alpha  occ. eigenvalues --   -9.98366  -9.97394  -9.96557  -9.96311  -9.96255
 Alpha  occ. eigenvalues --   -9.96215  -9.95643  -9.95604  -9.95432  -9.94632
 Alpha  occ. eigenvalues --   -9.94014  -9.93954  -9.93738  -9.93651  -9.93581
 Alpha  occ. eigenvalues --   -9.93419  -9.93197  -9.93166  -9.93116  -9.93009
 Alpha  occ. eigenvalues --   -9.92990  -9.92832  -9.92779  -9.92746  -9.92474
 Alpha  occ. eigenvalues --   -9.92460  -9.92417  -9.92375  -9.92322  -9.92118
 Alpha  occ. eigenvalues --   -9.91834  -9.91819  -9.91818  -9.91738  -9.91675
 Alpha  occ. eigenvalues --   -9.91471  -9.91401  -9.91309  -9.91269  -9.91148
 Alpha  occ. eigenvalues --   -9.90899  -9.90844  -9.90793  -9.90757  -9.90630
 Alpha  occ. eigenvalues --   -9.90622  -9.90588  -9.90551  -9.90518  -9.89893
 Alpha  occ. eigenvalues --   -9.89768  -2.91836  -1.72235  -1.71734  -1.71544
 Alpha  occ. eigenvalues --   -0.99047  -0.96766  -0.92914  -0.90125  -0.89241
 Alpha  occ. eigenvalues --   -0.87386  -0.87267  -0.86927  -0.86193  -0.85506
 Alpha  occ. eigenvalues --   -0.76565  -0.73183  -0.72590  -0.72407  -0.72336
 Alpha  occ. eigenvalues --   -0.71637  -0.71548  -0.70899  -0.70536  -0.70416
 Alpha  occ. eigenvalues --   -0.70094  -0.69035  -0.67754  -0.67431  -0.67038
 Alpha  occ. eigenvalues --   -0.66362  -0.66217  -0.65350  -0.65134  -0.64432
 Alpha  occ. eigenvalues --   -0.63715  -0.62589  -0.62391  -0.61984  -0.60963
 Alpha  occ. eigenvalues --   -0.60220  -0.60061  -0.59904  -0.59329  -0.58734
 Alpha  occ. eigenvalues --   -0.58062  -0.57419  -0.56865  -0.55555  -0.54435
 Alpha  occ. eigenvalues --   -0.53749  -0.53645  -0.52594  -0.51919  -0.51790
 Alpha  occ. eigenvalues --   -0.51584  -0.50687  -0.50383  -0.50220  -0.50173
 Alpha  occ. eigenvalues --   -0.49626  -0.49431  -0.48973  -0.48906  -0.46451
 Alpha  occ. eigenvalues --   -0.46235  -0.46017  -0.45509  -0.44910  -0.44313
 Alpha  occ. eigenvalues --   -0.44073  -0.43858  -0.43084  -0.42656  -0.42258
 Alpha  occ. eigenvalues --   -0.42052  -0.41760  -0.41461  -0.41295  -0.40842
 Alpha  occ. eigenvalues --   -0.40617  -0.40546  -0.40212  -0.40170  -0.39895
 Alpha  occ. eigenvalues --   -0.39845  -0.39710  -0.39349  -0.39177  -0.38954
 Alpha  occ. eigenvalues --   -0.38895  -0.38755  -0.38487  -0.38417  -0.38150
 Alpha  occ. eigenvalues --   -0.37942  -0.37871  -0.37728  -0.37223  -0.37139
 Alpha  occ. eigenvalues --   -0.37044  -0.36991  -0.36848  -0.36546  -0.36293
 Alpha  occ. eigenvalues --   -0.36214  -0.36096  -0.35741  -0.35677  -0.35360
 Alpha  occ. eigenvalues --   -0.35322  -0.35154  -0.35012  -0.34925  -0.34588
 Alpha  occ. eigenvalues --   -0.34583  -0.34401  -0.34247  -0.34029  -0.33774
 Alpha  occ. eigenvalues --   -0.33744  -0.33631  -0.33287  -0.33052  -0.32915
 Alpha  occ. eigenvalues --   -0.32775  -0.32473  -0.32437  -0.32385  -0.32303
 Alpha  occ. eigenvalues --   -0.31953  -0.31822  -0.31758  -0.31379  -0.31348
 Alpha  occ. eigenvalues --   -0.31264  -0.31141  -0.30988  -0.30889  -0.30699
 Alpha  occ. eigenvalues --   -0.30654  -0.30506  -0.30395  -0.30144  -0.30060
 Alpha  occ. eigenvalues --   -0.29409  -0.29235  -0.29044  -0.28738  -0.28656
 Alpha  occ. eigenvalues --   -0.28555  -0.28268  -0.27836  -0.27743  -0.27596
 Alpha  occ. eigenvalues --   -0.27369  -0.27000  -0.26901  -0.26733  -0.26434
 Alpha  occ. eigenvalues --   -0.26235  -0.25891  -0.25472  -0.25333  -0.25022
 Alpha  occ. eigenvalues --   -0.24795  -0.24515  -0.23877  -0.23281  -0.23231
 Alpha  occ. eigenvalues --   -0.22794  -0.22041  -0.21455  -0.21365  -0.20719
 Alpha  occ. eigenvalues --   -0.20394  -0.19746  -0.18666  -0.18329  -0.17303
 Alpha  occ. eigenvalues --   -0.15690
 Alpha virt. eigenvalues --   -0.11397  -0.07036  -0.05759  -0.04490  -0.04303
 Alpha virt. eigenvalues --   -0.03302  -0.03262  -0.01834  -0.01423  -0.00035
 Alpha virt. eigenvalues --    0.01508   0.02079   0.02504   0.02846   0.03166

 Mulliken charges:
               1
     1  Mg   0.691793
     2  C   -0.013346
     3  C   -0.061840
     4  C   -0.059348
     5  C   -0.077028
     6  N   -0.172071
     7  C   -0.125313
     8  C   -0.001697
     9  C    0.001205
    10  C    0.014310
    11  C    0.184772
    12  C    0.115419
    13  C    0.173071
    14  C    0.092080
    15  O   -0.257597
    16  O   -0.265508
    17  N   -0.296159
    18  C    0.096128
    19  C   -0.129786
    20  C    0.048179
    21  C    0.095970
    22  C    0.186730
    23  C   -0.124777
    24  O   -0.146075
    25  C    0.161646
    26  N   -0.195010
    27  C    0.003225
    28  C    0.000973
    29  C    0.081310
    30  C   -0.051569
    31  C    0.122417
    32  C    0.071258
    33  C    0.060300
    34  N   -0.246520
    35  C    0.110513
    36  C   -0.193675
    37  C    0.156222
    38  C    0.113812
    39  C    0.201570
    40  C   -0.126133
    41  O   -0.163442
    42  C    0.149590
    43  C    0.099573
    44  O   -0.225258
    45  O   -0.228026
    46  C    0.223637
    47  C    0.308163
    48  C   -0.109073
    49  C   -0.213707
    50  C    0.175352
    51  C    0.114828
    52  C    0.026251
    53  C    0.129974
    54  C   -0.036180
    55  C    0.108636
    56  C    0.106156
    57  C    0.023239
    58  C    0.129948
    59  C   -0.063731
    60  C    0.111682
    61  C    0.088578
    62  C    0.079157
    63  C    0.054200
    64  C   -0.089753
    65  C    0.109671
    66  C    0.094953
    67  H   -0.053169
    68  H   -0.070441
    69  H   -0.069475
    70  H   -0.038278
    71  H   -0.026234
    72  H   -0.024911
    73  H   -0.005256
    74  H    0.012567
    75  H   -0.014505
    76  H   -0.002225
    77  H   -0.013384
    78  H    0.003595
    79  H   -0.020965
    80  H    0.000682
    81  H    0.001741
    82  H    0.028324
    83  H    0.005859
    84  H   -0.009962
    85  H   -0.014092
    86  H   -0.027558
    87  H   -0.011885
    88  H   -0.000660
    89  H   -0.000572
    90  H   -0.005920
    91  H   -0.015581
    92  H   -0.002532
    93  H   -0.009463
    94  H    0.007564
    95  H    0.021049
    96  H    0.016947
    97  H   -0.031314
    98  H   -0.021076
    99  H    0.012107
   100  H    0.015503
   101  H    0.007079
   102  H    0.015572
   103  H    0.016045
   104  H   -0.028778
   105  H    0.012703
   106  H   -0.003271
   107  H   -0.023428
   108  H   -0.038172
   109  H   -0.019506
   110  H   -0.017111
   111  H   -0.013714
   112  H   -0.045274
   113  H   -0.027888
   114  H   -0.026462
   115  H   -0.018432
   116  H   -0.025418
   117  H   -0.014354
   118  H   -0.054058
   119  H   -0.032195
   120  H   -0.042323
   121  H   -0.032667
   122  H   -0.050271
   123  H   -0.030743
   124  H   -0.028676
   125  H   -0.014602
   126  H   -0.016488
   127  H   -0.011357
   128  H   -0.041287
   129  H   -0.022628
   130  H   -0.025692
   131  H   -0.029300
   132  H   -0.029469
   133  H   -0.033069
   134  H   -0.030563
   135  H   -0.015843
   136  H   -0.006619
   137  H   -0.021508
   138  H   -0.028677
   139  H   -0.018831
   140  H   -0.013075
 Sum of Mulliken charges =  -0.00000

 Dipole moment (field-independent basis, Debye):
    X=             -0.1194    Y=              1.4516    Z=             -0.7112  Tot=              1.6209
 Quadrupole moment (field-independent basis, Debye-Ang):
   XX=           -396.7443   YY=           -392.7327   ZZ=           -414.1222
   XY=            -42.7510   XZ=             -8.8713   YZ=            -22.3820

 Normal termination of Gaussian 16 at Sat Apr 30 01:45:24 2022.
