 Gaussian 16, Revision A.03,
 Gaussian 16:  ES64L-G16RevA.03 25-Dec-2016

 -----------------------------------
 #p cam-b3lyp/Def2SVP td=(nstates=5)
 -----------------------------------

 ------------------------------------------------------
 step_51_chromophore_20 TDDFT with cam-b3lyp functional
 ------------------------------------------------------
 Symbolic Z-matrix:
 Charge =  0 Multiplicity = 1

                         Standard orientation:
 ---------------------------------------------------------------------
 Center     Atomic      Atomic             Coordinates (Angstroms)
 Number     Number       Type             X           Y           Z
 ---------------------------------------------------------------------
      1         12           0       -4.444229    1.358374    0.625857
      2          6           0       -4.888358   -2.112821    0.059843
      3          6           0       -1.931203    0.576507    2.831019
      4          6           0       -3.704097    4.542564    0.721014
      5          6           0       -6.572027    1.834546   -2.215203
      6          7           0       -3.554716   -0.494258    1.298245
      7          6           0       -3.923924   -1.747814    1.002205
      8          6           0       -3.035468   -2.837444    1.786480
      9          6           0       -2.593710   -1.851979    3.003474
     10          6           0       -2.694528   -0.502687    2.322485
     11          6           0       -3.452479   -1.985909    4.265671
     12          6           0       -1.884912   -3.362221    0.960983
     13          6           0       -1.272637   -4.761747    1.329812
     14          6           0        0.087015   -4.687714    2.049048
     15          8           0        0.253005   -4.148733    3.203847
     16          8           0        1.159046   -5.163502    1.336577
     17          7           0       -2.983197    2.417781    1.557603
     18          6           0       -2.026282    1.924072    2.434301
     19          6           0       -1.270409    3.053629    3.016876
     20          6           0       -1.803635    4.210757    2.408218
     21          6           0       -2.891394    3.754622    1.576868
     22          6           0       -0.029810    2.925949    3.742616
     23          6           0       -1.380480    5.625707    2.760251
     24          8           0       -0.568567    5.790077    3.628032
     25          6           0       -1.952874    6.811653    2.107317
     26          7           0       -4.900394    2.964420   -0.741858
     27          6           0       -4.640986    4.187543   -0.267560
     28          6           0       -5.208006    5.225198   -1.238475
     29          6           0       -6.159853    4.387819   -2.084760
     30          6           0       -5.852675    2.989712   -1.712027
     31          6           0       -5.950087    6.454201   -0.522209
     32          6           0       -6.017809    4.574692   -3.673674
     33          6           0       -7.407588    4.731171   -4.429115
     34          7           0       -5.693636    0.217052   -0.647935
     35          6           0       -6.521612    0.501043   -1.751617
     36          6           0       -7.226003   -0.686086   -2.162285
     37          6           0       -6.594852   -1.655176   -1.424811
     38          6           0       -5.671803   -1.104919   -0.569119
     39          6           0       -8.296146   -0.855428   -3.193044
     40          6           0       -6.598727   -3.039257   -1.236659
     41          8           0       -7.315087   -3.913153   -1.765997
     42          6           0       -5.348852   -3.403728   -0.276217
     43          6           0       -4.442860   -4.174554   -1.089625
     44          8           0       -4.033870   -3.699949   -2.152381
     45          8           0       -4.480125   -5.491402   -0.799581
     46          6           0       -3.803372   -6.274284   -1.798929
     47          6           0        2.467091   -5.220543    2.094366
     48          6           0        3.695043   -4.760782    1.236966
     49          6           0        3.781344   -4.737005   -0.109806
     50          6           0        2.777660   -5.329003   -1.124717
     51          6           0        5.164377   -4.286519   -0.683407
     52          6           0        5.296368   -2.697184   -0.638951
     53          6           0        6.283272   -2.098997   -1.643551
     54          6           0        6.075877   -0.551661   -1.640072
     55          6           0        5.343745   -0.069395   -2.877618
     56          6           0        7.455277   -0.002577   -1.443718
     57          6           0        7.829638    0.288656    0.127283
     58          6           0        8.476205    1.620401    0.391720
     59          6           0        9.871853    1.458733    1.032145
     60          6           0        9.841452    1.872508    2.538305
     61          6           0       10.882952    2.257382    0.129684
     62          6           0       12.266939    1.596833    0.092268
     63          6           0       12.568183    1.085160   -1.339869
     64          6           0       13.778880    1.841139   -1.995799
     65          6           0       13.272241    3.269904   -2.379328
     66          6           0       14.312200    1.066437   -3.254366
     67          1           0       -1.202778    0.435555    3.631928
     68          1           0       -3.743185    5.577793    1.065322
     69          1           0       -7.348194    2.090715   -2.939132
     70          1           0       -3.716037   -3.574739    2.211169
     71          1           0       -1.520541   -2.035842    3.054896
     72          1           0       -4.068372   -2.884971    4.265932
     73          1           0       -4.187518   -1.182005    4.240626
     74          1           0       -2.778307   -2.191564    5.096648
     75          1           0       -1.086259   -2.620287    0.960010
     76          1           0       -2.058356   -3.440409   -0.111960
     77          1           0       -1.236226   -5.372010    0.427161
     78          1           0       -1.931850   -5.264318    2.037585
     79          1           0        0.315987    1.916085    3.519001
     80          1           0       -0.134317    3.043127    4.820151
     81          1           0        0.804039    3.557443    3.435831
     82          1           0       -2.974896    7.001447    2.436812
     83          1           0       -1.897181    6.642170    1.031624
     84          1           0       -1.273874    7.591148    2.452512
     85          1           0       -4.382496    5.548776   -1.873858
     86          1           0       -7.161024    4.479658   -1.663401
     87          1           0       -7.028342    6.369907   -0.657325
     88          1           0       -5.527203    7.325375   -1.022421
     89          1           0       -5.764509    6.486537    0.551283
     90          1           0       -5.546013    3.679425   -4.079883
     91          1           0       -5.410687    5.439899   -3.937645
     92          1           0       -7.428117    3.778449   -4.959894
     93          1           0       -7.305267    5.479852   -5.214747
     94          1           0       -8.249081    4.876245   -3.752156
     95          1           0       -9.166003   -1.423603   -2.863897
     96          1           0       -7.770975   -1.238789   -4.067793
     97          1           0       -8.595227    0.164480   -3.434087
     98          1           0       -5.800966   -3.975430    0.533849
     99          1           0       -2.827896   -5.896075   -2.104437
    100          1           0       -4.403816   -6.297311   -2.708708
    101          1           0       -3.721979   -7.281893   -1.389583
    102          1           0        2.719522   -6.222613    2.442809
    103          1           0        2.408884   -4.532791    2.937929
    104          1           0        4.522696   -4.273414    1.754013
    105          1           0        1.933638   -4.658240   -1.290749
    106          1           0        2.444894   -6.296936   -0.750401
    107          1           0        3.377932   -5.523118   -2.013893
    108          1           0        5.179111   -4.683809   -1.698204
    109          1           0        5.894576   -4.748965   -0.018767
    110          1           0        5.702156   -2.543377    0.361196
    111          1           0        4.241138   -2.447698   -0.746237
    112          1           0        6.046832   -2.444957   -2.650190
    113          1           0        7.278991   -2.470958   -1.402776
    114          1           0        5.391564   -0.329946   -0.821361
    115          1           0        5.544295    1.000401   -2.938897
    116          1           0        4.255808   -0.109008   -2.828531
    117          1           0        5.587993   -0.646639   -3.769223
    118          1           0        7.614530    0.924140   -1.995346
    119          1           0        8.280262   -0.621907   -1.797630
    120          1           0        8.506064   -0.504570    0.445024
    121          1           0        6.972433    0.156500    0.787710
    122          1           0        7.773588    2.032228    1.116174
    123          1           0        8.354149    2.247868   -0.490958
    124          1           0       10.196689    0.422911    0.930694
    125          1           0       10.898947    2.111874    2.650453
    126          1           0        9.466270    1.079086    3.184675
    127          1           0        9.218785    2.713730    2.840119
    128          1           0       11.084880    3.247218    0.537837
    129          1           0       10.404741    2.399671   -0.838465
    130          1           0       12.415014    0.719140    0.721533
    131          1           0       12.995419    2.327028    0.444900
    132          1           0       11.795827    1.364139   -2.057226
    133          1           0       12.654555   -0.001979   -1.329269
    134          1           0       14.612639    1.713507   -1.304787
    135          1           0       13.850764    3.711868   -3.190705
    136          1           0       13.183589    3.901011   -1.495586
    137          1           0       12.284432    3.241336   -2.839081
    138          1           0       13.998926    1.531717   -4.188730
    139          1           0       13.904868    0.055283   -3.222197
    140          1           0       15.400272    1.106616   -3.312036
 ---------------------------------------------------------------------

 SCF Done:  E(RCAM-B3LYP) =  -3007.12258924     A.U. after   18 cycles

 Excitation energies and oscillator strengths:

 Excited State   1:      Singlet-A      1.6997 eV  729.45 nm  f=0.3584  <S**2>=0.000
     245 -> 248        0.18503
     246 -> 247        0.68414
     245 <- 248        0.10948
 This state for optimization and/or second-order correction.
 Total Energy, E(TD-HF/TD-DFT) =  -3007.06012624
 Copying the excited state density for this state as the 1-particle RhoCI density.

 Excited State   2:      Singlet-A      2.2486 eV  551.37 nm  f=0.0762  <S**2>=0.000
     245 -> 247        0.61944
     246 -> 248       -0.33006

 Excited State   3:      Singlet-A      3.3704 eV  367.86 nm  f=0.0772  <S**2>=0.000
     241 -> 247       -0.12056
     242 -> 247       -0.34637
     242 -> 249        0.18844
     242 -> 251        0.13255
     243 -> 247        0.43763
     243 -> 249       -0.11453
     245 -> 247       -0.10232
     246 -> 248       -0.24258

 Excited State   4:      Singlet-A      3.4502 eV  359.35 nm  f=0.4050  <S**2>=0.000
     241 -> 247       -0.22159
     242 -> 247       -0.30762
     242 -> 249        0.14919
     243 -> 247       -0.11900
     245 -> 247        0.24034
     246 -> 248        0.48243

 Excited State   5:      Singlet-A      3.4902 eV  355.24 nm  f=0.1008  <S**2>=0.000
     241 -> 247       -0.27568
     242 -> 247        0.40353
     243 -> 247        0.42575
     245 -> 247        0.10921
     246 -> 248        0.20805

 The electronic state is 1-A.
 Alpha  occ. eigenvalues --  -46.88704 -19.26071 -19.25970 -19.19577 -19.19134
 Alpha  occ. eigenvalues --  -19.18636 -19.18167 -14.42373 -14.41593 -14.39624
 Alpha  occ. eigenvalues --  -14.38825 -10.40494 -10.38710 -10.34470 -10.34125
 Alpha  occ. eigenvalues --  -10.32563 -10.31401 -10.30847 -10.30843 -10.30824
 Alpha  occ. eigenvalues --  -10.30654 -10.30215 -10.30013 -10.29667 -10.28714
 Alpha  occ. eigenvalues --  -10.28201 -10.27932 -10.27915 -10.27865 -10.27646
 Alpha  occ. eigenvalues --  -10.27390 -10.27309 -10.27258 -10.27171 -10.27082
 Alpha  occ. eigenvalues --  -10.27056 -10.27048 -10.26908 -10.26779 -10.26677
 Alpha  occ. eigenvalues --  -10.26601 -10.26344 -10.26126 -10.25933 -10.25930
 Alpha  occ. eigenvalues --  -10.25896 -10.25860 -10.25754 -10.25478 -10.25421
 Alpha  occ. eigenvalues --  -10.25268 -10.25154 -10.25115 -10.24912 -10.24771
 Alpha  occ. eigenvalues --  -10.24493 -10.24492 -10.24457 -10.24444 -10.24307
 Alpha  occ. eigenvalues --  -10.24278 -10.24232 -10.24190 -10.24128 -10.23505
 Alpha  occ. eigenvalues --  -10.23498  -3.17304  -1.92179  -1.91772  -1.91604
 Alpha  occ. eigenvalues --   -1.17707  -1.15130  -1.11514  -1.08271  -1.07296
 Alpha  occ. eigenvalues --   -1.05171  -1.05042  -1.04646  -1.03751  -1.03155
 Alpha  occ. eigenvalues --   -0.93722  -0.90030  -0.89418  -0.89196  -0.89079
 Alpha  occ. eigenvalues --   -0.88308  -0.88260  -0.87470  -0.87117  -0.87084
 Alpha  occ. eigenvalues --   -0.86651  -0.85499  -0.83992  -0.83696  -0.83275
 Alpha  occ. eigenvalues --   -0.82487  -0.82251  -0.81301  -0.81000  -0.80243
 Alpha  occ. eigenvalues --   -0.79509  -0.78265  -0.78075  -0.77573  -0.76411
 Alpha  occ. eigenvalues --   -0.75563  -0.75343  -0.75238  -0.74604  -0.73972
 Alpha  occ. eigenvalues --   -0.73105  -0.72404  -0.71829  -0.70405  -0.68963
 Alpha  occ. eigenvalues --   -0.68342  -0.68251  -0.67172  -0.66082  -0.65913
 Alpha  occ. eigenvalues --   -0.65850  -0.64775  -0.64562  -0.64337  -0.64026
 Alpha  occ. eigenvalues --   -0.63642  -0.63422  -0.62868  -0.62760  -0.60168
 Alpha  occ. eigenvalues --   -0.59877  -0.59714  -0.59246  -0.58299  -0.57744
 Alpha  occ. eigenvalues --   -0.57447  -0.57234  -0.56482  -0.55834  -0.55560
 Alpha  occ. eigenvalues --   -0.55192  -0.54793  -0.54589  -0.54377  -0.53769
 Alpha  occ. eigenvalues --   -0.53366  -0.53255  -0.53014  -0.52742  -0.52659
 Alpha  occ. eigenvalues --   -0.52537  -0.52380  -0.52043  -0.51587  -0.51482
 Alpha  occ. eigenvalues --   -0.51347  -0.51257  -0.50999  -0.50899  -0.50536
 Alpha  occ. eigenvalues --   -0.50396  -0.50243  -0.50072  -0.49727  -0.49451
 Alpha  occ. eigenvalues --   -0.49329  -0.49128  -0.49069  -0.48988  -0.48586
 Alpha  occ. eigenvalues --   -0.48433  -0.48355  -0.48125  -0.47844  -0.47597
 Alpha  occ. eigenvalues --   -0.47492  -0.47261  -0.47116  -0.46973  -0.46662
 Alpha  occ. eigenvalues --   -0.46419  -0.46400  -0.46113  -0.46014  -0.45566
 Alpha  occ. eigenvalues --   -0.45398  -0.45369  -0.44999  -0.44793  -0.44539
 Alpha  occ. eigenvalues --   -0.44434  -0.44197  -0.44054  -0.43948  -0.43936
 Alpha  occ. eigenvalues --   -0.43689  -0.43526  -0.43382  -0.43199  -0.42988
 Alpha  occ. eigenvalues --   -0.42831  -0.42680  -0.42627  -0.42430  -0.42282
 Alpha  occ. eigenvalues --   -0.42272  -0.41796  -0.41721  -0.41398  -0.41372
 Alpha  occ. eigenvalues --   -0.40955  -0.40739  -0.40316  -0.39916  -0.39789
 Alpha  occ. eigenvalues --   -0.39584  -0.39254  -0.38776  -0.38588  -0.38453
 Alpha  occ. eigenvalues --   -0.38239  -0.37932  -0.37850  -0.37806  -0.37754
 Alpha  occ. eigenvalues --   -0.37030  -0.36674  -0.36561  -0.36385  -0.35959
 Alpha  occ. eigenvalues --   -0.35665  -0.35165  -0.34254  -0.34145  -0.33689
 Alpha  occ. eigenvalues --   -0.33616  -0.33198  -0.33132  -0.31228  -0.30895
 Alpha  occ. eigenvalues --   -0.30215  -0.30067  -0.29589  -0.29435  -0.24115
 Alpha  occ. eigenvalues --   -0.20887
 Alpha virt. eigenvalues --   -0.08444  -0.01985   0.00742   0.01599   0.02745
 Alpha virt. eigenvalues --    0.03301   0.04259   0.05599   0.05743   0.06804
 Alpha virt. eigenvalues --    0.08133   0.08643   0.08872   0.09041   0.09444

 Mulliken charges:
               1
     1  Mg   0.825319
     2  C   -0.039464
     3  C   -0.069532
     4  C   -0.077367
     5  C   -0.078086
     6  N   -0.243553
     7  C   -0.073743
     8  C   -0.044474
     9  C   -0.058296
    10  C    0.028180
    11  C    0.122942
    12  C    0.053139
    13  C    0.106525
    14  C    0.175583
    15  O   -0.304027
    16  O   -0.331521
    17  N   -0.386313
    18  C    0.100829
    19  C   -0.119680
    20  C   -0.024064
    21  C    0.129850
    22  C    0.115959
    23  C   -0.039915
    24  O   -0.185082
    25  C    0.069194
    26  N   -0.266162
    27  C    0.030917
    28  C   -0.056770
    29  C    0.011158
    30  C   -0.022407
    31  C    0.067149
    32  C    0.018053
    33  C   -0.002209
    34  N   -0.334645
    35  C    0.106256
    36  C   -0.186605
    37  C    0.074809
    38  C    0.146084
    39  C    0.154232
    40  C   -0.025910
    41  O   -0.205112
    42  C    0.060139
    43  C    0.187364
    44  O   -0.258226
    45  O   -0.288311
    46  C    0.178205
    47  C    0.280699
    48  C   -0.134658
    49  C   -0.233341
    50  C    0.116632
    51  C    0.058586
    52  C   -0.022341
    53  C    0.077409
    54  C   -0.100293
    55  C    0.053968
    56  C    0.049500
    57  C   -0.018947
    58  C    0.067926
    59  C   -0.118460
    60  C    0.057847
    61  C    0.037850
    62  C    0.018434
    63  C    0.005572
    64  C   -0.148967
    65  C    0.047834
    66  C    0.037835
    67  H   -0.015142
    68  H   -0.040166
    69  H   -0.036028
    70  H   -0.003624
    71  H    0.011994
    72  H    0.001187
    73  H    0.020359
    74  H    0.038126
    75  H    0.017961
    76  H    0.028434
    77  H    0.020528
    78  H    0.035451
    79  H    0.005317
    80  H    0.030335
    81  H    0.032494
    82  H    0.054761
    83  H    0.035044
    84  H    0.027917
    85  H    0.020410
    86  H    0.007087
    87  H    0.013510
    88  H    0.023276
    89  H    0.021878
    90  H    0.024183
    91  H    0.011453
    92  H    0.018821
    93  H    0.015770
    94  H    0.029080
    95  H    0.046707
    96  H    0.042914
    97  H   -0.008029
    98  H    0.025840
    99  H    0.034923
   100  H    0.041600
   101  H    0.031868
   102  H    0.040756
   103  H    0.049393
   104  H    0.003379
   105  H    0.036247
   106  H    0.021863
   107  H    0.000792
   108  H   -0.009619
   109  H    0.010108
   110  H    0.006093
   111  H    0.013900
   112  H   -0.016768
   113  H    0.000287
   114  H    0.006462
   115  H    0.005677
   116  H    0.000460
   117  H    0.008476
   118  H   -0.025646
   119  H   -0.003254
   120  H   -0.015574
   121  H   -0.006106
   122  H   -0.018766
   123  H   -0.001983
   124  H    0.001280
   125  H    0.006766
   126  H    0.007716
   127  H    0.012125
   128  H   -0.011818
   129  H    0.004026
   130  H    0.002966
   131  H   -0.000211
   132  H   -0.004392
   133  H   -0.004117
   134  H    0.000031
   135  H    0.009415
   136  H    0.016378
   137  H    0.002039
   138  H   -0.004659
   139  H    0.005245
   140  H    0.011292
 Sum of Mulliken charges =  -0.00000

 Dipole moment (field-independent basis, Debye):
    X=              0.1896    Y=              1.7081    Z=             -0.4123  Tot=              1.7673
 Quadrupole moment (field-independent basis, Debye-Ang):
   XX=           -399.6114   YY=           -387.6081   ZZ=           -413.4812
   XY=            -44.8957   XZ=            -10.3339   YZ=            -22.4556

 Normal termination of Gaussian 16 at Sat Apr 30 00:34:44 2022.
