 Gaussian 16, Revision A.03,
 Gaussian 16:  ES64L-G16RevA.03 25-Dec-2016

 ---------------------------------
 #p PBE1PBE/Def2SVP td=(nstates=5)
 ---------------------------------

 ----------------------------------------------------
 step_51_chromophore_20 TDDFT with PBE1PBE functional
 ----------------------------------------------------
 Symbolic Z-matrix:
 Charge =  0 Multiplicity = 1

                         Standard orientation:
 ---------------------------------------------------------------------
 Center     Atomic      Atomic             Coordinates (Angstroms)
 Number     Number       Type             X           Y           Z
 ---------------------------------------------------------------------
      1         12           0       -4.444229    1.358374    0.625857
      2          6           0       -4.888358   -2.112821    0.059843
      3          6           0       -1.931203    0.576507    2.831019
      4          6           0       -3.704097    4.542564    0.721014
      5          6           0       -6.572027    1.834546   -2.215203
      6          7           0       -3.554716   -0.494258    1.298245
      7          6           0       -3.923924   -1.747814    1.002205
      8          6           0       -3.035468   -2.837444    1.786480
      9          6           0       -2.593710   -1.851979    3.003474
     10          6           0       -2.694528   -0.502687    2.322485
     11          6           0       -3.452479   -1.985909    4.265671
     12          6           0       -1.884912   -3.362221    0.960983
     13          6           0       -1.272637   -4.761747    1.329812
     14          6           0        0.087015   -4.687714    2.049048
     15          8           0        0.253005   -4.148733    3.203847
     16          8           0        1.159046   -5.163502    1.336577
     17          7           0       -2.983197    2.417781    1.557603
     18          6           0       -2.026282    1.924072    2.434301
     19          6           0       -1.270409    3.053629    3.016876
     20          6           0       -1.803635    4.210757    2.408218
     21          6           0       -2.891394    3.754622    1.576868
     22          6           0       -0.029810    2.925949    3.742616
     23          6           0       -1.380480    5.625707    2.760251
     24          8           0       -0.568567    5.790077    3.628032
     25          6           0       -1.952874    6.811653    2.107317
     26          7           0       -4.900394    2.964420   -0.741858
     27          6           0       -4.640986    4.187543   -0.267560
     28          6           0       -5.208006    5.225198   -1.238475
     29          6           0       -6.159853    4.387819   -2.084760
     30          6           0       -5.852675    2.989712   -1.712027
     31          6           0       -5.950087    6.454201   -0.522209
     32          6           0       -6.017809    4.574692   -3.673674
     33          6           0       -7.407588    4.731171   -4.429115
     34          7           0       -5.693636    0.217052   -0.647935
     35          6           0       -6.521612    0.501043   -1.751617
     36          6           0       -7.226003   -0.686086   -2.162285
     37          6           0       -6.594852   -1.655176   -1.424811
     38          6           0       -5.671803   -1.104919   -0.569119
     39          6           0       -8.296146   -0.855428   -3.193044
     40          6           0       -6.598727   -3.039257   -1.236659
     41          8           0       -7.315087   -3.913153   -1.765997
     42          6           0       -5.348852   -3.403728   -0.276217
     43          6           0       -4.442860   -4.174554   -1.089625
     44          8           0       -4.033870   -3.699949   -2.152381
     45          8           0       -4.480125   -5.491402   -0.799581
     46          6           0       -3.803372   -6.274284   -1.798929
     47          6           0        2.467091   -5.220543    2.094366
     48          6           0        3.695043   -4.760782    1.236966
     49          6           0        3.781344   -4.737005   -0.109806
     50          6           0        2.777660   -5.329003   -1.124717
     51          6           0        5.164377   -4.286519   -0.683407
     52          6           0        5.296368   -2.697184   -0.638951
     53          6           0        6.283272   -2.098997   -1.643551
     54          6           0        6.075877   -0.551661   -1.640072
     55          6           0        5.343745   -0.069395   -2.877618
     56          6           0        7.455277   -0.002577   -1.443718
     57          6           0        7.829638    0.288656    0.127283
     58          6           0        8.476205    1.620401    0.391720
     59          6           0        9.871853    1.458733    1.032145
     60          6           0        9.841452    1.872508    2.538305
     61          6           0       10.882952    2.257382    0.129684
     62          6           0       12.266939    1.596833    0.092268
     63          6           0       12.568183    1.085160   -1.339869
     64          6           0       13.778880    1.841139   -1.995799
     65          6           0       13.272241    3.269904   -2.379328
     66          6           0       14.312200    1.066437   -3.254366
     67          1           0       -1.202778    0.435555    3.631928
     68          1           0       -3.743185    5.577793    1.065322
     69          1           0       -7.348194    2.090715   -2.939132
     70          1           0       -3.716037   -3.574739    2.211169
     71          1           0       -1.520541   -2.035842    3.054896
     72          1           0       -4.068372   -2.884971    4.265932
     73          1           0       -4.187518   -1.182005    4.240626
     74          1           0       -2.778307   -2.191564    5.096648
     75          1           0       -1.086259   -2.620287    0.960010
     76          1           0       -2.058356   -3.440409   -0.111960
     77          1           0       -1.236226   -5.372010    0.427161
     78          1           0       -1.931850   -5.264318    2.037585
     79          1           0        0.315987    1.916085    3.519001
     80          1           0       -0.134317    3.043127    4.820151
     81          1           0        0.804039    3.557443    3.435831
     82          1           0       -2.974896    7.001447    2.436812
     83          1           0       -1.897181    6.642170    1.031624
     84          1           0       -1.273874    7.591148    2.452512
     85          1           0       -4.382496    5.548776   -1.873858
     86          1           0       -7.161024    4.479658   -1.663401
     87          1           0       -7.028342    6.369907   -0.657325
     88          1           0       -5.527203    7.325375   -1.022421
     89          1           0       -5.764509    6.486537    0.551283
     90          1           0       -5.546013    3.679425   -4.079883
     91          1           0       -5.410687    5.439899   -3.937645
     92          1           0       -7.428117    3.778449   -4.959894
     93          1           0       -7.305267    5.479852   -5.214747
     94          1           0       -8.249081    4.876245   -3.752156
     95          1           0       -9.166003   -1.423603   -2.863897
     96          1           0       -7.770975   -1.238789   -4.067793
     97          1           0       -8.595227    0.164480   -3.434087
     98          1           0       -5.800966   -3.975430    0.533849
     99          1           0       -2.827896   -5.896075   -2.104437
    100          1           0       -4.403816   -6.297311   -2.708708
    101          1           0       -3.721979   -7.281893   -1.389583
    102          1           0        2.719522   -6.222613    2.442809
    103          1           0        2.408884   -4.532791    2.937929
    104          1           0        4.522696   -4.273414    1.754013
    105          1           0        1.933638   -4.658240   -1.290749
    106          1           0        2.444894   -6.296936   -0.750401
    107          1           0        3.377932   -5.523118   -2.013893
    108          1           0        5.179111   -4.683809   -1.698204
    109          1           0        5.894576   -4.748965   -0.018767
    110          1           0        5.702156   -2.543377    0.361196
    111          1           0        4.241138   -2.447698   -0.746237
    112          1           0        6.046832   -2.444957   -2.650190
    113          1           0        7.278991   -2.470958   -1.402776
    114          1           0        5.391564   -0.329946   -0.821361
    115          1           0        5.544295    1.000401   -2.938897
    116          1           0        4.255808   -0.109008   -2.828531
    117          1           0        5.587993   -0.646639   -3.769223
    118          1           0        7.614530    0.924140   -1.995346
    119          1           0        8.280262   -0.621907   -1.797630
    120          1           0        8.506064   -0.504570    0.445024
    121          1           0        6.972433    0.156500    0.787710
    122          1           0        7.773588    2.032228    1.116174
    123          1           0        8.354149    2.247868   -0.490958
    124          1           0       10.196689    0.422911    0.930694
    125          1           0       10.898947    2.111874    2.650453
    126          1           0        9.466270    1.079086    3.184675
    127          1           0        9.218785    2.713730    2.840119
    128          1           0       11.084880    3.247218    0.537837
    129          1           0       10.404741    2.399671   -0.838465
    130          1           0       12.415014    0.719140    0.721533
    131          1           0       12.995419    2.327028    0.444900
    132          1           0       11.795827    1.364139   -2.057226
    133          1           0       12.654555   -0.001979   -1.329269
    134          1           0       14.612639    1.713507   -1.304787
    135          1           0       13.850764    3.711868   -3.190705
    136          1           0       13.183589    3.901011   -1.495586
    137          1           0       12.284432    3.241336   -2.839081
    138          1           0       13.998926    1.531717   -4.188730
    139          1           0       13.904868    0.055283   -3.222197
    140          1           0       15.400272    1.106616   -3.312036
 ---------------------------------------------------------------------

 SCF Done:  E(RPBE1PBE) =  -3005.31259525     A.U. after   15 cycles

 Excitation energies and oscillator strengths:

 Excited State   1:      Singlet-A      1.8570 eV  667.65 nm  f=0.3469  <S**2>=0.000
     245 -> 248        0.17948
     246 -> 247        0.69094
     246 <- 247       -0.10581
 This state for optimization and/or second-order correction.
 Total Energy, E(TD-HF/TD-DFT) =  -3005.24435039
 Copying the excited state density for this state as the 1-particle RhoCI density.

 Excited State   2:      Singlet-A      2.2551 eV  549.78 nm  f=0.0813  <S**2>=0.000
     245 -> 247        0.63518
     246 -> 248       -0.29900

 Excited State   3:      Singlet-A      2.8866 eV  429.52 nm  f=0.0004  <S**2>=0.000
     242 -> 247        0.12915
     243 -> 247        0.66041
     243 -> 249        0.14739

 Excited State   4:      Singlet-A      3.1219 eV  397.15 nm  f=0.0036  <S**2>=0.000
     241 -> 247        0.14041
     242 -> 247        0.66378
     243 -> 247       -0.11679

 Excited State   5:      Singlet-A      3.1735 eV  390.68 nm  f=0.0072  <S**2>=0.000
     240 -> 247        0.19562
     241 -> 247        0.61635
     242 -> 247       -0.12081
     246 -> 248        0.17832

 The electronic state is 1-A.
 Alpha  occ. eigenvalues --  -46.92085 -19.26721 -19.26561 -19.19897 -19.19361
 Alpha  occ. eigenvalues --  -19.18742 -19.18567 -14.41845 -14.41113 -14.39194
 Alpha  occ. eigenvalues --  -14.38562 -10.37533 -10.35689 -10.31506 -10.31378
 Alpha  occ. eigenvalues --  -10.29982 -10.28690 -10.28606 -10.28496 -10.28469
 Alpha  occ. eigenvalues --  -10.28460 -10.27726 -10.27564 -10.27560 -10.26185
 Alpha  occ. eigenvalues --  -10.26024 -10.25734 -10.25621 -10.25434 -10.25284
 Alpha  occ. eigenvalues --  -10.25234 -10.25109 -10.24969 -10.24900 -10.24849
 Alpha  occ. eigenvalues --  -10.24710 -10.24638 -10.24631 -10.24370 -10.24284
 Alpha  occ. eigenvalues --  -10.24261 -10.23913 -10.23549 -10.23546 -10.23439
 Alpha  occ. eigenvalues --  -10.23434 -10.23323 -10.23156 -10.23129 -10.22864
 Alpha  occ. eigenvalues --  -10.22849 -10.22659 -10.22584 -10.22486 -10.22160
 Alpha  occ. eigenvalues --  -10.22049 -10.22030 -10.21998 -10.21888 -10.21867
 Alpha  occ. eigenvalues --  -10.21826 -10.21802 -10.21560 -10.21517 -10.21326
 Alpha  occ. eigenvalues --  -10.21052  -3.14265  -1.87081  -1.86652  -1.86488
 Alpha  occ. eigenvalues --   -1.12465  -1.09903  -1.06174  -1.03051  -1.02119
 Alpha  occ. eigenvalues --   -0.99863  -0.99782  -0.99279  -0.98492  -0.97787
 Alpha  occ. eigenvalues --   -0.88160  -0.84116  -0.83577  -0.83386  -0.83287
 Alpha  occ. eigenvalues --   -0.82597  -0.82406  -0.81853  -0.81347  -0.81214
 Alpha  occ. eigenvalues --   -0.81008  -0.79710  -0.78269  -0.77902  -0.77403
 Alpha  occ. eigenvalues --   -0.76689  -0.76428  -0.75607  -0.75348  -0.74440
 Alpha  occ. eigenvalues --   -0.73631  -0.72561  -0.72314  -0.71883  -0.70748
 Alpha  occ. eigenvalues --   -0.69774  -0.69643  -0.69308  -0.68754  -0.68129
 Alpha  occ. eigenvalues --   -0.67544  -0.66778  -0.66215  -0.64703  -0.63326
 Alpha  occ. eigenvalues --   -0.62826  -0.62454  -0.61557  -0.60570  -0.60321
 Alpha  occ. eigenvalues --   -0.60119  -0.59309  -0.58867  -0.58756  -0.58507
 Alpha  occ. eigenvalues --   -0.57780  -0.57581  -0.57333  -0.57011  -0.54712
 Alpha  occ. eigenvalues --   -0.54420  -0.54203  -0.53702  -0.52874  -0.52212
 Alpha  occ. eigenvalues --   -0.52007  -0.51632  -0.50957  -0.50350  -0.50160
 Alpha  occ. eigenvalues --   -0.49657  -0.49195  -0.49100  -0.48979  -0.48294
 Alpha  occ. eigenvalues --   -0.47883  -0.47681  -0.47425  -0.47275  -0.47130
 Alpha  occ. eigenvalues --   -0.47096  -0.46841  -0.46648  -0.46189  -0.46011
 Alpha  occ. eigenvalues --   -0.45829  -0.45769  -0.45634  -0.45496  -0.45143
 Alpha  occ. eigenvalues --   -0.44911  -0.44754  -0.44628  -0.44330  -0.44047
 Alpha  occ. eigenvalues --   -0.43891  -0.43731  -0.43653  -0.43560  -0.43240
 Alpha  occ. eigenvalues --   -0.43076  -0.42964  -0.42709  -0.42461  -0.42167
 Alpha  occ. eigenvalues --   -0.42120  -0.41922  -0.41794  -0.41625  -0.41360
 Alpha  occ. eigenvalues --   -0.41139  -0.40973  -0.40783  -0.40608  -0.40311
 Alpha  occ. eigenvalues --   -0.40228  -0.39963  -0.39810  -0.39578  -0.39282
 Alpha  occ. eigenvalues --   -0.39124  -0.38942  -0.38765  -0.38713  -0.38598
 Alpha  occ. eigenvalues --   -0.38415  -0.38335  -0.38129  -0.37998  -0.37772
 Alpha  occ. eigenvalues --   -0.37637  -0.37497  -0.37368  -0.37171  -0.37082
 Alpha  occ. eigenvalues --   -0.37039  -0.36621  -0.36501  -0.36356  -0.36100
 Alpha  occ. eigenvalues --   -0.35760  -0.35537  -0.35082  -0.34836  -0.34549
 Alpha  occ. eigenvalues --   -0.34541  -0.33999  -0.33634  -0.33553  -0.33209
 Alpha  occ. eigenvalues --   -0.33014  -0.32893  -0.32712  -0.32631  -0.32557
 Alpha  occ. eigenvalues --   -0.32009  -0.31673  -0.31383  -0.31343  -0.30837
 Alpha  occ. eigenvalues --   -0.30710  -0.30100  -0.29385  -0.28980  -0.28759
 Alpha  occ. eigenvalues --   -0.28616  -0.28420  -0.28109  -0.26633  -0.25957
 Alpha  occ. eigenvalues --   -0.25589  -0.25410  -0.24946  -0.24687  -0.21028
 Alpha  occ. eigenvalues --   -0.18576
 Alpha virt. eigenvalues --   -0.10950  -0.05436  -0.03438  -0.01787  -0.01293
 Alpha virt. eigenvalues --   -0.01065  -0.00333   0.01158   0.01436   0.02878
 Alpha virt. eigenvalues --    0.04578   0.04815   0.05393   0.05640   0.06138

 Mulliken charges:
               1
     1  Mg   0.970834
     2  C   -0.040745
     3  C   -0.051847
     4  C   -0.071820
     5  C   -0.069308
     6  N   -0.350550
     7  C    0.017862
     8  C   -0.111021
     9  C   -0.140913
    10  C    0.057225
    11  C    0.067999
    12  C    0.003718
    13  C    0.032696
    14  C    0.236509
    15  O   -0.333636
    16  O   -0.360630
    17  N   -0.504127
    18  C    0.119930
    19  C   -0.138068
    20  C   -0.075121
    21  C    0.161719
    22  C    0.051765
    23  C    0.018677
    24  O   -0.221184
    25  C   -0.013573
    26  N   -0.370047
    27  C    0.069845
    28  C   -0.135989
    29  C   -0.075006
    30  C    0.026255
    31  C    0.010578
    32  C   -0.039962
    33  C   -0.075334
    34  N   -0.462159
    35  C    0.120336
    36  C   -0.192721
    37  C    0.021824
    38  C    0.195248
    39  C    0.098341
    40  C    0.068523
    41  O   -0.248132
    42  C   -0.070102
    43  C    0.283381
    44  O   -0.288766
    45  O   -0.323803
    46  C    0.121226
    47  C    0.241495
    48  C   -0.151556
    49  C   -0.268139
    50  C    0.051738
    51  C   -0.003124
    52  C   -0.092357
    53  C    0.028950
    54  C   -0.191119
    55  C   -0.003007
    56  C   -0.008460
    57  C   -0.071192
    58  C    0.012839
    59  C   -0.204732
    60  C   -0.003390
    61  C   -0.014457
    62  C   -0.042727
    63  C   -0.048552
    64  C   -0.244386
    65  C   -0.012021
    66  C   -0.019894
    67  H    0.014805
    68  H   -0.004523
    69  H   -0.000420
    70  H    0.032694
    71  H    0.050355
    72  H    0.028467
    73  H    0.048127
    74  H    0.064600
    75  H    0.050126
    76  H    0.062851
    77  H    0.052838
    78  H    0.067114
    79  H    0.032220
    80  H    0.058169
    81  H    0.059719
    82  H    0.080415
    83  H    0.062835
    84  H    0.055895
    85  H    0.057217
    86  H    0.045145
    87  H    0.040173
    88  H    0.050800
    89  H    0.048377
    90  H    0.056700
    91  H    0.043674
    92  H    0.045412
    93  H    0.044539
    94  H    0.055646
    95  H    0.073209
    96  H    0.071376
    97  H    0.021885
    98  H    0.061732
    99  H    0.056396
   100  H    0.064265
   101  H    0.053989
   102  H    0.067531
   103  H    0.074665
   104  H    0.032560
   105  H    0.063269
   106  H    0.049797
   107  H    0.027801
   108  H    0.022459
   109  H    0.043279
   110  H    0.040413
   111  H    0.048424
   112  H    0.016404
   113  H    0.031567
   114  H    0.043981
   115  H    0.033537
   116  H    0.028706
   117  H    0.034732
   118  H    0.005988
   119  H    0.029531
   120  H    0.016364
   121  H    0.024520
   122  H    0.015986
   123  H    0.027913
   124  H    0.039222
   125  H    0.035666
   126  H    0.035689
   127  H    0.038588
   128  H    0.021188
   129  H    0.035069
   130  H    0.034252
   131  H    0.031235
   132  H    0.028562
   133  H    0.027034
   134  H    0.037457
   135  H    0.037414
   136  H    0.044159
   137  H    0.028299
   138  H    0.022978
   139  H    0.032424
   140  H    0.038684
 Sum of Mulliken charges =  -0.00000

 Dipole moment (field-independent basis, Debye):
    X=             -0.0142    Y=              1.7018    Z=             -0.6415  Tot=              1.8187
 Quadrupole moment (field-independent basis, Debye-Ang):
   XX=           -394.3479   YY=           -384.7106   ZZ=           -410.0020
   XY=            -45.3546   XZ=             -8.6968   YZ=            -23.3090

 Normal termination of Gaussian 16 at Sat Apr 30 00:59:27 2022.
