 Gaussian 16, Revision A.03,
 Gaussian 16:  ES64L-G16RevA.03 25-Dec-2016

 --------------------------------
 #p wB97XD/Def2SVP td=(nstates=5)
 --------------------------------

 ---------------------------------------------------
 step_51_chromophore_20 TDDFT with wB97XD functional
 ---------------------------------------------------
 Symbolic Z-matrix:
 Charge =  0 Multiplicity = 1

                         Standard orientation:
 ---------------------------------------------------------------------
 Center     Atomic      Atomic             Coordinates (Angstroms)
 Number     Number       Type             X           Y           Z
 ---------------------------------------------------------------------
      1         12           0       -4.444229    1.358374    0.625857
      2          6           0       -4.888358   -2.112821    0.059843
      3          6           0       -1.931203    0.576507    2.831019
      4          6           0       -3.704097    4.542564    0.721014
      5          6           0       -6.572027    1.834546   -2.215203
      6          7           0       -3.554716   -0.494258    1.298245
      7          6           0       -3.923924   -1.747814    1.002205
      8          6           0       -3.035468   -2.837444    1.786480
      9          6           0       -2.593710   -1.851979    3.003474
     10          6           0       -2.694528   -0.502687    2.322485
     11          6           0       -3.452479   -1.985909    4.265671
     12          6           0       -1.884912   -3.362221    0.960983
     13          6           0       -1.272637   -4.761747    1.329812
     14          6           0        0.087015   -4.687714    2.049048
     15          8           0        0.253005   -4.148733    3.203847
     16          8           0        1.159046   -5.163502    1.336577
     17          7           0       -2.983197    2.417781    1.557603
     18          6           0       -2.026282    1.924072    2.434301
     19          6           0       -1.270409    3.053629    3.016876
     20          6           0       -1.803635    4.210757    2.408218
     21          6           0       -2.891394    3.754622    1.576868
     22          6           0       -0.029810    2.925949    3.742616
     23          6           0       -1.380480    5.625707    2.760251
     24          8           0       -0.568567    5.790077    3.628032
     25          6           0       -1.952874    6.811653    2.107317
     26          7           0       -4.900394    2.964420   -0.741858
     27          6           0       -4.640986    4.187543   -0.267560
     28          6           0       -5.208006    5.225198   -1.238475
     29          6           0       -6.159853    4.387819   -2.084760
     30          6           0       -5.852675    2.989712   -1.712027
     31          6           0       -5.950087    6.454201   -0.522209
     32          6           0       -6.017809    4.574692   -3.673674
     33          6           0       -7.407588    4.731171   -4.429115
     34          7           0       -5.693636    0.217052   -0.647935
     35          6           0       -6.521612    0.501043   -1.751617
     36          6           0       -7.226003   -0.686086   -2.162285
     37          6           0       -6.594852   -1.655176   -1.424811
     38          6           0       -5.671803   -1.104919   -0.569119
     39          6           0       -8.296146   -0.855428   -3.193044
     40          6           0       -6.598727   -3.039257   -1.236659
     41          8           0       -7.315087   -3.913153   -1.765997
     42          6           0       -5.348852   -3.403728   -0.276217
     43          6           0       -4.442860   -4.174554   -1.089625
     44          8           0       -4.033870   -3.699949   -2.152381
     45          8           0       -4.480125   -5.491402   -0.799581
     46          6           0       -3.803372   -6.274284   -1.798929
     47          6           0        2.467091   -5.220543    2.094366
     48          6           0        3.695043   -4.760782    1.236966
     49          6           0        3.781344   -4.737005   -0.109806
     50          6           0        2.777660   -5.329003   -1.124717
     51          6           0        5.164377   -4.286519   -0.683407
     52          6           0        5.296368   -2.697184   -0.638951
     53          6           0        6.283272   -2.098997   -1.643551
     54          6           0        6.075877   -0.551661   -1.640072
     55          6           0        5.343745   -0.069395   -2.877618
     56          6           0        7.455277   -0.002577   -1.443718
     57          6           0        7.829638    0.288656    0.127283
     58          6           0        8.476205    1.620401    0.391720
     59          6           0        9.871853    1.458733    1.032145
     60          6           0        9.841452    1.872508    2.538305
     61          6           0       10.882952    2.257382    0.129684
     62          6           0       12.266939    1.596833    0.092268
     63          6           0       12.568183    1.085160   -1.339869
     64          6           0       13.778880    1.841139   -1.995799
     65          6           0       13.272241    3.269904   -2.379328
     66          6           0       14.312200    1.066437   -3.254366
     67          1           0       -1.202778    0.435555    3.631928
     68          1           0       -3.743185    5.577793    1.065322
     69          1           0       -7.348194    2.090715   -2.939132
     70          1           0       -3.716037   -3.574739    2.211169
     71          1           0       -1.520541   -2.035842    3.054896
     72          1           0       -4.068372   -2.884971    4.265932
     73          1           0       -4.187518   -1.182005    4.240626
     74          1           0       -2.778307   -2.191564    5.096648
     75          1           0       -1.086259   -2.620287    0.960010
     76          1           0       -2.058356   -3.440409   -0.111960
     77          1           0       -1.236226   -5.372010    0.427161
     78          1           0       -1.931850   -5.264318    2.037585
     79          1           0        0.315987    1.916085    3.519001
     80          1           0       -0.134317    3.043127    4.820151
     81          1           0        0.804039    3.557443    3.435831
     82          1           0       -2.974896    7.001447    2.436812
     83          1           0       -1.897181    6.642170    1.031624
     84          1           0       -1.273874    7.591148    2.452512
     85          1           0       -4.382496    5.548776   -1.873858
     86          1           0       -7.161024    4.479658   -1.663401
     87          1           0       -7.028342    6.369907   -0.657325
     88          1           0       -5.527203    7.325375   -1.022421
     89          1           0       -5.764509    6.486537    0.551283
     90          1           0       -5.546013    3.679425   -4.079883
     91          1           0       -5.410687    5.439899   -3.937645
     92          1           0       -7.428117    3.778449   -4.959894
     93          1           0       -7.305267    5.479852   -5.214747
     94          1           0       -8.249081    4.876245   -3.752156
     95          1           0       -9.166003   -1.423603   -2.863897
     96          1           0       -7.770975   -1.238789   -4.067793
     97          1           0       -8.595227    0.164480   -3.434087
     98          1           0       -5.800966   -3.975430    0.533849
     99          1           0       -2.827896   -5.896075   -2.104437
    100          1           0       -4.403816   -6.297311   -2.708708
    101          1           0       -3.721979   -7.281893   -1.389583
    102          1           0        2.719522   -6.222613    2.442809
    103          1           0        2.408884   -4.532791    2.937929
    104          1           0        4.522696   -4.273414    1.754013
    105          1           0        1.933638   -4.658240   -1.290749
    106          1           0        2.444894   -6.296936   -0.750401
    107          1           0        3.377932   -5.523118   -2.013893
    108          1           0        5.179111   -4.683809   -1.698204
    109          1           0        5.894576   -4.748965   -0.018767
    110          1           0        5.702156   -2.543377    0.361196
    111          1           0        4.241138   -2.447698   -0.746237
    112          1           0        6.046832   -2.444957   -2.650190
    113          1           0        7.278991   -2.470958   -1.402776
    114          1           0        5.391564   -0.329946   -0.821361
    115          1           0        5.544295    1.000401   -2.938897
    116          1           0        4.255808   -0.109008   -2.828531
    117          1           0        5.587993   -0.646639   -3.769223
    118          1           0        7.614530    0.924140   -1.995346
    119          1           0        8.280262   -0.621907   -1.797630
    120          1           0        8.506064   -0.504570    0.445024
    121          1           0        6.972433    0.156500    0.787710
    122          1           0        7.773588    2.032228    1.116174
    123          1           0        8.354149    2.247868   -0.490958
    124          1           0       10.196689    0.422911    0.930694
    125          1           0       10.898947    2.111874    2.650453
    126          1           0        9.466270    1.079086    3.184675
    127          1           0        9.218785    2.713730    2.840119
    128          1           0       11.084880    3.247218    0.537837
    129          1           0       10.404741    2.399671   -0.838465
    130          1           0       12.415014    0.719140    0.721533
    131          1           0       12.995419    2.327028    0.444900
    132          1           0       11.795827    1.364139   -2.057226
    133          1           0       12.654555   -0.001979   -1.329269
    134          1           0       14.612639    1.713507   -1.304787
    135          1           0       13.850764    3.711868   -3.190705
    136          1           0       13.183589    3.901011   -1.495586
    137          1           0       12.284432    3.241336   -2.839081
    138          1           0       13.998926    1.531717   -4.188730
    139          1           0       13.904868    0.055283   -3.222197
    140          1           0       15.400272    1.106616   -3.312036
 ---------------------------------------------------------------------

 SCF Done:  E(RwB97XD) =  -3007.81960523     A.U. after   20 cycles

 Excitation energies and oscillator strengths:

 Excited State   1:      Singlet-A      1.6435 eV  754.41 nm  f=0.3573  <S**2>=0.000
     245 -> 248        0.19048
     246 -> 247        0.68214
     245 <- 248        0.11898
 This state for optimization and/or second-order correction.
 Total Energy, E(TD-HF/TD-DFT) =  -3007.75920919
 Copying the excited state density for this state as the 1-particle RhoCI density.

 Excited State   2:      Singlet-A      2.1922 eV  565.57 nm  f=0.0747  <S**2>=0.000
     245 -> 247        0.61819
     246 -> 248       -0.33129

 Excited State   3:      Singlet-A      3.3965 eV  365.04 nm  f=0.1360  <S**2>=0.000
     242 -> 247       -0.19977
     242 -> 249       -0.16708
     243 -> 247        0.50172
     243 -> 249        0.16161
     245 -> 247       -0.13512
     246 -> 248       -0.31119

 Excited State   4:      Singlet-A      3.4757 eV  356.72 nm  f=0.3875  <S**2>=0.000
     241 -> 247        0.18311
     242 -> 247       -0.36027
     242 -> 249       -0.19879
     245 -> 247        0.23032
     246 -> 248        0.45691

 Excited State   5:      Singlet-A      3.5125 eV  352.98 nm  f=0.0720  <S**2>=0.000
     241 -> 247        0.36627
     241 -> 249       -0.10047
     242 -> 247        0.42380
     243 -> 247        0.33585
     246 -> 248        0.16771

 The electronic state is 1-A.
 Alpha  occ. eigenvalues --  -46.95053 -19.31277 -19.31163 -19.24543 -19.24068
 Alpha  occ. eigenvalues --  -19.23658 -19.23224 -14.46961 -14.46160 -14.44237
 Alpha  occ. eigenvalues --  -14.43413 -10.44312 -10.42538 -10.38425 -10.38139
 Alpha  occ. eigenvalues --  -10.36461 -10.35121 -10.34894 -10.34887 -10.34796
 Alpha  occ. eigenvalues --  -10.34670 -10.34282 -10.34104 -10.33655 -10.32612
 Alpha  occ. eigenvalues --  -10.32283 -10.32095 -10.31958 -10.31807 -10.31620
 Alpha  occ. eigenvalues --  -10.31414 -10.31372 -10.31279 -10.31138 -10.31123
 Alpha  occ. eigenvalues --  -10.31117 -10.31058 -10.30998 -10.30681 -10.30678
 Alpha  occ. eigenvalues --  -10.30667 -10.30462 -10.29986 -10.29811 -10.29784
 Alpha  occ. eigenvalues --  -10.29769 -10.29756 -10.29693 -10.29413 -10.29314
 Alpha  occ. eigenvalues --  -10.29210 -10.29080 -10.29050 -10.28873 -10.28599
 Alpha  occ. eigenvalues --  -10.28420 -10.28388 -10.28364 -10.28319 -10.28226
 Alpha  occ. eigenvalues --  -10.28184 -10.28167 -10.28001 -10.27935 -10.27475
 Alpha  occ. eigenvalues --  -10.27409  -3.21082  -1.94648  -1.94220  -1.94055
 Alpha  occ. eigenvalues --   -1.19871  -1.17295  -1.13741  -1.10446  -1.09496
 Alpha  occ. eigenvalues --   -1.07234  -1.07157  -1.06644  -1.05794  -1.05217
 Alpha  occ. eigenvalues --   -0.95707  -0.91789  -0.91242  -0.91007  -0.90952
 Alpha  occ. eigenvalues --   -0.90189  -0.90075  -0.89403  -0.89053  -0.88882
 Alpha  occ. eigenvalues --   -0.88586  -0.87387  -0.85907  -0.85590  -0.85096
 Alpha  occ. eigenvalues --   -0.84373  -0.84089  -0.83222  -0.82954  -0.82101
 Alpha  occ. eigenvalues --   -0.81314  -0.80201  -0.79991  -0.79499  -0.78352
 Alpha  occ. eigenvalues --   -0.77407  -0.77264  -0.77017  -0.76432  -0.75799
 Alpha  occ. eigenvalues --   -0.75069  -0.74353  -0.73786  -0.72329  -0.70857
 Alpha  occ. eigenvalues --   -0.70334  -0.70108  -0.69178  -0.68043  -0.67779
 Alpha  occ. eigenvalues --   -0.67765  -0.66764  -0.66401  -0.66339  -0.65989
 Alpha  occ. eigenvalues --   -0.65452  -0.65242  -0.64722  -0.64677  -0.62197
 Alpha  occ. eigenvalues --   -0.61847  -0.61667  -0.61192  -0.60269  -0.59657
 Alpha  occ. eigenvalues --   -0.59416  -0.59139  -0.58438  -0.57756  -0.57527
 Alpha  occ. eigenvalues --   -0.57095  -0.56650  -0.56513  -0.56321  -0.55700
 Alpha  occ. eigenvalues --   -0.55276  -0.55112  -0.54969  -0.54630  -0.54607
 Alpha  occ. eigenvalues --   -0.54474  -0.54243  -0.53987  -0.53472  -0.53392
 Alpha  occ. eigenvalues --   -0.53221  -0.53131  -0.52907  -0.52804  -0.52459
 Alpha  occ. eigenvalues --   -0.52270  -0.52191  -0.51983  -0.51696  -0.51358
 Alpha  occ. eigenvalues --   -0.51206  -0.51008  -0.50961  -0.50863  -0.50539
 Alpha  occ. eigenvalues --   -0.50347  -0.50261  -0.49999  -0.49747  -0.49471
 Alpha  occ. eigenvalues --   -0.49424  -0.49193  -0.49023  -0.48901  -0.48617
 Alpha  occ. eigenvalues --   -0.48342  -0.48257  -0.48032  -0.47868  -0.47508
 Alpha  occ. eigenvalues --   -0.47288  -0.47200  -0.46951  -0.46690  -0.46420
 Alpha  occ. eigenvalues --   -0.46304  -0.46114  -0.45908  -0.45872  -0.45812
 Alpha  occ. eigenvalues --   -0.45590  -0.45476  -0.45296  -0.45133  -0.44895
 Alpha  occ. eigenvalues --   -0.44762  -0.44592  -0.44502  -0.44409  -0.44180
 Alpha  occ. eigenvalues --   -0.44169  -0.43744  -0.43594  -0.43345  -0.43230
 Alpha  occ. eigenvalues --   -0.42836  -0.42625  -0.42188  -0.41811  -0.41630
 Alpha  occ. eigenvalues --   -0.41466  -0.41094  -0.40622  -0.40472  -0.40282
 Alpha  occ. eigenvalues --   -0.40080  -0.39837  -0.39718  -0.39681  -0.39636
 Alpha  occ. eigenvalues --   -0.39118  -0.38755  -0.38386  -0.38365  -0.37829
 Alpha  occ. eigenvalues --   -0.37604  -0.37028  -0.36198  -0.36083  -0.35574
 Alpha  occ. eigenvalues --   -0.35531  -0.35384  -0.34971  -0.33279  -0.33041
 Alpha  occ. eigenvalues --   -0.32398  -0.32087  -0.31689  -0.31442  -0.26036
 Alpha  occ. eigenvalues --   -0.22689
 Alpha virt. eigenvalues --   -0.06792  -0.00069   0.02854   0.04628   0.04927
 Alpha virt. eigenvalues --    0.05535   0.06421   0.07878   0.08213   0.09417
 Alpha virt. eigenvalues --    0.11266   0.11442   0.12145   0.12314   0.12928

 Mulliken charges:
               1
     1  Mg   0.962002
     2  C   -0.045289
     3  C   -0.074553
     4  C   -0.082882
     5  C   -0.085197
     6  N   -0.314374
     7  C   -0.026745
     8  C   -0.084159
     9  C   -0.106386
    10  C    0.044885
    11  C    0.073270
    12  C    0.012970
    13  C    0.047252
    14  C    0.227241
    15  O   -0.332168
    16  O   -0.360508
    17  N   -0.471808
    18  C    0.117196
    19  C   -0.128944
    20  C   -0.068931
    21  C    0.156108
    22  C    0.061084
    23  C    0.012406
    24  O   -0.216080
    25  C    0.001764
    26  N   -0.337178
    27  C    0.059378
    28  C   -0.112030
    29  C   -0.045945
    30  C    0.012318
    31  C    0.021668
    32  C   -0.025425
    33  C   -0.059585
    34  N   -0.423026
    35  C    0.113413
    36  C   -0.194035
    37  C    0.027024
    38  C    0.175430
    39  C    0.111930
    40  C    0.049677
    41  O   -0.239700
    42  C   -0.019349
    43  C    0.252473
    44  O   -0.283275
    45  O   -0.320736
    46  C    0.136771
    47  C    0.254854
    48  C   -0.160901
    49  C   -0.256745
    50  C    0.064640
    51  C    0.014908
    52  C   -0.067618
    53  C    0.038125
    54  C   -0.159738
    55  C    0.008214
    56  C    0.010572
    57  C   -0.056465
    58  C    0.027072
    59  C   -0.173748
    60  C    0.009837
    61  C    0.003293
    62  C   -0.031127
    63  C   -0.028747
    64  C   -0.213951
    65  C   -0.000757
    66  C   -0.009432
    67  H    0.011031
    68  H   -0.022874
    69  H   -0.011270
    70  H    0.019877
    71  H    0.036673
    72  H    0.023126
    73  H    0.042399
    74  H    0.060931
    75  H    0.042145
    76  H    0.053326
    77  H    0.049143
    78  H    0.061486
    79  H    0.026160
    80  H    0.055811
    81  H    0.056952
    82  H    0.076768
    83  H    0.056749
    84  H    0.054887
    85  H    0.047398
    86  H    0.030972
    87  H    0.035265
    88  H    0.045517
    89  H    0.042120
    90  H    0.047784
    91  H    0.035759
    92  H    0.038793
    93  H    0.039520
    94  H    0.049939
    95  H    0.069665
    96  H    0.066100
    97  H    0.013940
    98  H    0.057586
    99  H    0.051037
   100  H    0.060562
   101  H    0.051036
   102  H    0.063017
   103  H    0.070628
   104  H    0.029300
   105  H    0.059162
   106  H    0.044520
   107  H    0.022242
   108  H    0.013059
   109  H    0.035271
   110  H    0.028930
   111  H    0.036735
   112  H    0.006622
   113  H    0.023535
   114  H    0.030488
   115  H    0.027062
   116  H    0.023425
   117  H    0.028563
   118  H   -0.004732
   119  H    0.020386
   120  H    0.006025
   121  H    0.015914
   122  H    0.006985
   123  H    0.018947
   124  H    0.023294
   125  H    0.027502
   126  H    0.030369
   127  H    0.033077
   128  H    0.012983
   129  H    0.022301
   130  H    0.026846
   131  H    0.022950
   132  H    0.013577
   133  H    0.020119
   134  H    0.027025
   135  H    0.032003
   136  H    0.037738
   137  H    0.021224
   138  H    0.016488
   139  H    0.026276
   140  H    0.033594
 Sum of Mulliken charges =  -0.00000

 Dipole moment (field-independent basis, Debye):
    X=              0.2203    Y=              1.8123    Z=             -0.3754  Tot=              1.8638
 Quadrupole moment (field-independent basis, Debye-Ang):
   XX=           -396.1419   YY=           -383.0282   ZZ=           -409.6701
   XY=            -45.2457   XZ=            -10.0125   YZ=            -22.3637

 Normal termination of Gaussian 16 at Sat Apr 30 01:30:27 2022.
