 Gaussian 16, Revision A.03,
 Gaussian 16:  ES64L-G16RevA.03 25-Dec-2016

 --------------------
 #p ZINDO=(nstates=5)
 --------------------

 ----------------------------
 step_51_chromophore_20 ZINDO
 ----------------------------
 Symbolic Z-matrix:
 Charge =  0 Multiplicity = 1

                         Standard orientation:
 ---------------------------------------------------------------------
 Center     Atomic      Atomic             Coordinates (Angstroms)
 Number     Number       Type             X           Y           Z
 ---------------------------------------------------------------------
      1         12           0       -4.444229    1.358374    0.625857
      2          6           0       -4.888358   -2.112821    0.059843
      3          6           0       -1.931203    0.576507    2.831019
      4          6           0       -3.704097    4.542564    0.721014
      5          6           0       -6.572027    1.834546   -2.215203
      6          7           0       -3.554716   -0.494258    1.298245
      7          6           0       -3.923924   -1.747814    1.002205
      8          6           0       -3.035468   -2.837444    1.786480
      9          6           0       -2.593710   -1.851979    3.003474
     10          6           0       -2.694528   -0.502687    2.322485
     11          6           0       -3.452479   -1.985909    4.265671
     12          6           0       -1.884912   -3.362221    0.960983
     13          6           0       -1.272637   -4.761747    1.329812
     14          6           0        0.087015   -4.687714    2.049048
     15          8           0        0.253005   -4.148733    3.203847
     16          8           0        1.159046   -5.163502    1.336577
     17          7           0       -2.983197    2.417781    1.557603
     18          6           0       -2.026282    1.924072    2.434301
     19          6           0       -1.270409    3.053629    3.016876
     20          6           0       -1.803635    4.210757    2.408218
     21          6           0       -2.891394    3.754622    1.576868
     22          6           0       -0.029810    2.925949    3.742616
     23          6           0       -1.380480    5.625707    2.760251
     24          8           0       -0.568567    5.790077    3.628032
     25          6           0       -1.952874    6.811653    2.107317
     26          7           0       -4.900394    2.964420   -0.741858
     27          6           0       -4.640986    4.187543   -0.267560
     28          6           0       -5.208006    5.225198   -1.238475
     29          6           0       -6.159853    4.387819   -2.084760
     30          6           0       -5.852675    2.989712   -1.712027
     31          6           0       -5.950087    6.454201   -0.522209
     32          6           0       -6.017809    4.574692   -3.673674
     33          6           0       -7.407588    4.731171   -4.429115
     34          7           0       -5.693636    0.217052   -0.647935
     35          6           0       -6.521612    0.501043   -1.751617
     36          6           0       -7.226003   -0.686086   -2.162285
     37          6           0       -6.594852   -1.655176   -1.424811
     38          6           0       -5.671803   -1.104919   -0.569119
     39          6           0       -8.296146   -0.855428   -3.193044
     40          6           0       -6.598727   -3.039257   -1.236659
     41          8           0       -7.315087   -3.913153   -1.765997
     42          6           0       -5.348852   -3.403728   -0.276217
     43          6           0       -4.442860   -4.174554   -1.089625
     44          8           0       -4.033870   -3.699949   -2.152381
     45          8           0       -4.480125   -5.491402   -0.799581
     46          6           0       -3.803372   -6.274284   -1.798929
     47          6           0        2.467091   -5.220543    2.094366
     48          6           0        3.695043   -4.760782    1.236966
     49          6           0        3.781344   -4.737005   -0.109806
     50          6           0        2.777660   -5.329003   -1.124717
     51          6           0        5.164377   -4.286519   -0.683407
     52          6           0        5.296368   -2.697184   -0.638951
     53          6           0        6.283272   -2.098997   -1.643551
     54          6           0        6.075877   -0.551661   -1.640072
     55          6           0        5.343745   -0.069395   -2.877618
     56          6           0        7.455277   -0.002577   -1.443718
     57          6           0        7.829638    0.288656    0.127283
     58          6           0        8.476205    1.620401    0.391720
     59          6           0        9.871853    1.458733    1.032145
     60          6           0        9.841452    1.872508    2.538305
     61          6           0       10.882952    2.257382    0.129684
     62          6           0       12.266939    1.596833    0.092268
     63          6           0       12.568183    1.085160   -1.339869
     64          6           0       13.778880    1.841139   -1.995799
     65          6           0       13.272241    3.269904   -2.379328
     66          6           0       14.312200    1.066437   -3.254366
     67          1           0       -1.202778    0.435555    3.631928
     68          1           0       -3.743185    5.577793    1.065322
     69          1           0       -7.348194    2.090715   -2.939132
     70          1           0       -3.716037   -3.574739    2.211169
     71          1           0       -1.520541   -2.035842    3.054896
     72          1           0       -4.068372   -2.884971    4.265932
     73          1           0       -4.187518   -1.182005    4.240626
     74          1           0       -2.778307   -2.191564    5.096648
     75          1           0       -1.086259   -2.620287    0.960010
     76          1           0       -2.058356   -3.440409   -0.111960
     77          1           0       -1.236226   -5.372010    0.427161
     78          1           0       -1.931850   -5.264318    2.037585
     79          1           0        0.315987    1.916085    3.519001
     80          1           0       -0.134317    3.043127    4.820151
     81          1           0        0.804039    3.557443    3.435831
     82          1           0       -2.974896    7.001447    2.436812
     83          1           0       -1.897181    6.642170    1.031624
     84          1           0       -1.273874    7.591148    2.452512
     85          1           0       -4.382496    5.548776   -1.873858
     86          1           0       -7.161024    4.479658   -1.663401
     87          1           0       -7.028342    6.369907   -0.657325
     88          1           0       -5.527203    7.325375   -1.022421
     89          1           0       -5.764509    6.486537    0.551283
     90          1           0       -5.546013    3.679425   -4.079883
     91          1           0       -5.410687    5.439899   -3.937645
     92          1           0       -7.428117    3.778449   -4.959894
     93          1           0       -7.305267    5.479852   -5.214747
     94          1           0       -8.249081    4.876245   -3.752156
     95          1           0       -9.166003   -1.423603   -2.863897
     96          1           0       -7.770975   -1.238789   -4.067793
     97          1           0       -8.595227    0.164480   -3.434087
     98          1           0       -5.800966   -3.975430    0.533849
     99          1           0       -2.827896   -5.896075   -2.104437
    100          1           0       -4.403816   -6.297311   -2.708708
    101          1           0       -3.721979   -7.281893   -1.389583
    102          1           0        2.719522   -6.222613    2.442809
    103          1           0        2.408884   -4.532791    2.937929
    104          1           0        4.522696   -4.273414    1.754013
    105          1           0        1.933638   -4.658240   -1.290749
    106          1           0        2.444894   -6.296936   -0.750401
    107          1           0        3.377932   -5.523118   -2.013893
    108          1           0        5.179111   -4.683809   -1.698204
    109          1           0        5.894576   -4.748965   -0.018767
    110          1           0        5.702156   -2.543377    0.361196
    111          1           0        4.241138   -2.447698   -0.746237
    112          1           0        6.046832   -2.444957   -2.650190
    113          1           0        7.278991   -2.470958   -1.402776
    114          1           0        5.391564   -0.329946   -0.821361
    115          1           0        5.544295    1.000401   -2.938897
    116          1           0        4.255808   -0.109008   -2.828531
    117          1           0        5.587993   -0.646639   -3.769223
    118          1           0        7.614530    0.924140   -1.995346
    119          1           0        8.280262   -0.621907   -1.797630
    120          1           0        8.506064   -0.504570    0.445024
    121          1           0        6.972433    0.156500    0.787710
    122          1           0        7.773588    2.032228    1.116174
    123          1           0        8.354149    2.247868   -0.490958
    124          1           0       10.196689    0.422911    0.930694
    125          1           0       10.898947    2.111874    2.650453
    126          1           0        9.466270    1.079086    3.184675
    127          1           0        9.218785    2.713730    2.840119
    128          1           0       11.084880    3.247218    0.537837
    129          1           0       10.404741    2.399671   -0.838465
    130          1           0       12.415014    0.719140    0.721533
    131          1           0       12.995419    2.327028    0.444900
    132          1           0       11.795827    1.364139   -2.057226
    133          1           0       12.654555   -0.001979   -1.329269
    134          1           0       14.612639    1.713507   -1.304787
    135          1           0       13.850764    3.711868   -3.190705
    136          1           0       13.183589    3.901011   -1.495586
    137          1           0       12.284432    3.241336   -2.839081
    138          1           0       13.998926    1.531717   -4.188730
    139          1           0       13.904868    0.055283   -3.222197
    140          1           0       15.400272    1.106616   -3.312036
 ---------------------------------------------------------------------

 SCF Done:  E(RZINDO/S) =  -474.437331273     A.U. after   20 cycles

 Excitation energies and oscillator strengths:

 Excited State   1:      Singlet-A      1.2403 eV  999.61 nm  f=0.5735  <S**2>=0.000
     175 ->178         0.19923
     176 ->177         0.66106
 This state for optimization and/or second-order correction.
 Total Energy, E(CIS/TDA) =  -474.391750234
 Copying the excited state density for this state as the 1-particle RhoCI density.

 Excited State   2:      Singlet-A      1.8889 eV  656.37 nm  f=0.0086  <S**2>=0.000
     175 ->177         0.50805
     176 ->178        -0.47077

 Excited State   3:      Singlet-A      2.9076 eV  426.42 nm  f=0.0087  <S**2>=0.000
     170 ->177         0.30884
     170 ->179         0.36718
     170 ->183        -0.21381
     170 ->185         0.15061
     170 ->187         0.12361
     176 ->179        -0.29097

 Excited State   4:      Singlet-A      2.9386 eV  421.91 nm  f=0.8276  <S**2>=0.000
     175 ->177         0.38534
     176 ->178         0.43255
     176 ->179         0.19533
     176 ->181         0.10072
     176 ->182        -0.25038

 Excited State   5:      Singlet-A      2.9692 eV  417.57 nm  f=0.0750  <S**2>=0.000
     170 ->177         0.12958
     170 ->179         0.14809
     176 ->179         0.50478
     176 ->181        -0.13941
     176 ->182         0.30941

 The electronic state is 1-A.
 Alpha  occ. eigenvalues --   -1.87296  -1.83377  -1.82247  -1.76436  -1.73424
 Alpha  occ. eigenvalues --   -1.69351  -1.65276  -1.62732  -1.61304  -1.60494
 Alpha  occ. eigenvalues --   -1.54479  -1.50838  -1.48285  -1.47390  -1.45708
 Alpha  occ. eigenvalues --   -1.43095  -1.40613  -1.40036  -1.38385  -1.37409
 Alpha  occ. eigenvalues --   -1.35754  -1.33653  -1.32350  -1.30375  -1.28515
 Alpha  occ. eigenvalues --   -1.27163  -1.26646  -1.23928  -1.21200  -1.18657
 Alpha  occ. eigenvalues --   -1.18047  -1.15818  -1.14929  -1.14580  -1.12088
 Alpha  occ. eigenvalues --   -1.11773  -1.11167  -1.10845  -1.05315  -1.04079
 Alpha  occ. eigenvalues --   -1.01402  -1.01010  -0.98901  -0.97894  -0.96617
 Alpha  occ. eigenvalues --   -0.95934  -0.94397  -0.93817  -0.92461  -0.92373
 Alpha  occ. eigenvalues --   -0.91017  -0.89605  -0.89199  -0.88425  -0.87843
 Alpha  occ. eigenvalues --   -0.85960  -0.85319  -0.83503  -0.81184  -0.80256
 Alpha  occ. eigenvalues --   -0.79163  -0.78333  -0.77190  -0.76816  -0.76263
 Alpha  occ. eigenvalues --   -0.75917  -0.75092  -0.73954  -0.73805  -0.73456
 Alpha  occ. eigenvalues --   -0.72860  -0.71868  -0.71328  -0.71198  -0.70922
 Alpha  occ. eigenvalues --   -0.70247  -0.68899  -0.68474  -0.68161  -0.67756
 Alpha  occ. eigenvalues --   -0.66846  -0.66631  -0.66324  -0.65982  -0.65594
 Alpha  occ. eigenvalues --   -0.65314  -0.65129  -0.64619  -0.64540  -0.63763
 Alpha  occ. eigenvalues --   -0.63492  -0.63144  -0.62852  -0.62544  -0.62434
 Alpha  occ. eigenvalues --   -0.61952  -0.61592  -0.60976  -0.59749  -0.59591
 Alpha  occ. eigenvalues --   -0.59512  -0.59235  -0.58740  -0.58458  -0.58147
 Alpha  occ. eigenvalues --   -0.57376  -0.56847  -0.56785  -0.56711  -0.56266
 Alpha  occ. eigenvalues --   -0.56032  -0.55684  -0.55600  -0.55098  -0.54735
 Alpha  occ. eigenvalues --   -0.54124  -0.53832  -0.53483  -0.52925  -0.52554
 Alpha  occ. eigenvalues --   -0.52465  -0.52398  -0.52023  -0.51909  -0.51707
 Alpha  occ. eigenvalues --   -0.51515  -0.51271  -0.50806  -0.50747  -0.50243
 Alpha  occ. eigenvalues --   -0.49832  -0.49562  -0.49418  -0.49043  -0.48560
 Alpha  occ. eigenvalues --   -0.48480  -0.48371  -0.47803  -0.47640  -0.47483
 Alpha  occ. eigenvalues --   -0.47251  -0.47245  -0.47097  -0.46544  -0.46314
 Alpha  occ. eigenvalues --   -0.46009  -0.45671  -0.45551  -0.45489  -0.45355
 Alpha  occ. eigenvalues --   -0.45048  -0.44709  -0.44522  -0.44104  -0.43821
 Alpha  occ. eigenvalues --   -0.43624  -0.42653  -0.42155  -0.41512  -0.41260
 Alpha  occ. eigenvalues --   -0.40985  -0.40475  -0.40414  -0.38567  -0.38537
 Alpha  occ. eigenvalues --   -0.38011  -0.36978  -0.35174  -0.34534  -0.33816
 Alpha  occ. eigenvalues --   -0.33329  -0.32306  -0.31975  -0.31927  -0.26500
 Alpha  occ. eigenvalues --   -0.21238
 Alpha virt. eigenvalues --   -0.08007  -0.02115  -0.00295   0.00666   0.01060
 Alpha virt. eigenvalues --    0.01549   0.02429   0.02973   0.05023   0.05113
 Alpha virt. eigenvalues --    0.06519   0.07652   0.08082   0.08257   0.08411

 Mulliken charges:
               1
     1  Mg   0.429262
     2  C   -0.029180
     3  C   -0.082047
     4  C   -0.105629
     5  C   -0.077560
     6  N   -0.263258
     7  C    0.089616
     8  C   -0.012408
     9  C   -0.006066
    10  C    0.157879
    11  C   -0.045911
    12  C   -0.009611
    13  C    0.010392
    14  C    0.466411
    15  O   -0.555378
    16  O   -0.257429
    17  N   -0.323753
    18  C    0.104742
    19  C    0.047919
    20  C   -0.055224
    21  C    0.140120
    22  C   -0.027884
    23  C    0.331824
    24  O   -0.517980
    25  C   -0.030436
    26  N   -0.265701
    27  C    0.136378
    28  C   -0.001788
    29  C    0.004379
    30  C    0.115040
    31  C   -0.059805
    32  C   -0.037351
    33  C   -0.068764
    34  N   -0.332561
    35  C    0.081439
    36  C    0.033130
    37  C   -0.038155
    38  C    0.117631
    39  C   -0.035599
    40  C    0.323321
    41  O   -0.550779
    42  C    0.068961
    43  C    0.492815
    44  O   -0.533586
    45  O   -0.253642
    46  C    0.078478
    47  C    0.098468
    48  C   -0.102704
    49  C   -0.014095
    50  C   -0.041447
    51  C   -0.045277
    52  C   -0.040159
    53  C   -0.034410
    54  C   -0.000566
    55  C   -0.056183
    56  C   -0.034176
    57  C   -0.048519
    58  C   -0.037903
    59  C   -0.011612
    60  C   -0.059701
    61  C   -0.037406
    62  C   -0.037054
    63  C   -0.043769
    64  C   -0.018340
    65  C   -0.051124
    66  C   -0.066128
    67  H    0.036571
    68  H    0.022041
    69  H    0.022385
    70  H    0.029220
    71  H    0.040738
    72  H    0.013332
    73  H    0.036444
    74  H    0.037544
    75  H    0.028958
    76  H    0.030323
    77  H    0.037077
    78  H    0.042279
    79  H    0.013329
    80  H    0.041705
    81  H    0.039523
    82  H    0.046331
    83  H    0.035640
    84  H    0.039566
    85  H    0.038381
    86  H    0.038809
    87  H    0.026057
    88  H    0.021736
    89  H    0.025822
    90  H    0.029169
    91  H    0.021051
    92  H    0.020269
    93  H    0.022404
    94  H    0.032726
    95  H    0.046160
    96  H    0.043277
    97  H    0.012277
    98  H    0.046625
    99  H    0.043762
   100  H    0.047970
   101  H    0.024501
   102  H    0.050796
   103  H    0.059405
   104  H    0.034392
   105  H    0.039099
   106  H    0.027302
   107  H    0.022454
   108  H    0.022592
   109  H    0.025223
   110  H    0.024042
   111  H    0.034178
   112  H    0.015436
   113  H    0.026521
   114  H    0.025863
   115  H    0.015303
   116  H    0.013104
   117  H    0.023195
   118  H    0.009320
   119  H    0.019145
   120  H    0.012012
   121  H    0.016952
   122  H    0.008679
   123  H    0.026971
   124  H    0.027810
   125  H    0.019209
   126  H    0.020434
   127  H    0.025389
   128  H    0.013063
   129  H    0.027345
   130  H    0.019283
   131  H    0.017373
   132  H    0.018798
   133  H    0.017995
   134  H    0.026021
   135  H    0.017464
   136  H    0.021654
   137  H    0.018600
   138  H    0.014021
   139  H    0.021327
   140  H    0.018086
 Sum of Mulliken charges =  -0.00000

 Dipole moment (field-independent basis, Debye):
    X=             -0.3152    Y=              2.1168    Z=              0.4881  Tot=              2.1951
 N-N= 4.403706189824D+03 E-N= 0.000000000000D+00  KE=-9.482265882369D+03
 Leave Link  601 at Sat Apr 30 01:45:32 2022, MaxMem=  6710886400 cpu:               0.8 elap:               0.1
 (Enter /sw/apps/gaussian-16.0/g16/l9999.exe)
 1\1\GINC-BP1-COMPUTE150\SP\RZINDO CIS\STO-3G\C55H74Mg1N4O6\OF15641\30-
 Apr-2022\0\\#p ZINDO=(nstates=5)\\step_51_chromophore_20 ZINDO\\0,1\Mg
 ,0,6.856,57.357,42.148\C,0,5.308,54.19,41.773\C,0,9.73,55.995,40.854\C
 ,0,8.081,60.386,42.005\C,0,3.559,58.611,42.767\N,0,7.393,55.396,41.412
 \C,0,6.656,54.277,41.417\C,0,7.475,53.015,40.844\C,0,8.954,53.614,41.1
 62\C,0,8.667,55.101,41.131\C,0,9.565,53.118,42.477\C,0,7.209,52.757,39
 .38\C,0,7.469,51.315,38.812\C,0,8.749,51.19,37.965\O,0,9.932,51.377,38

 Normal termination of Gaussian 16 at Sat Apr 30 01:45:32 2022.
