 Gaussian 16, Revision A.03,
 Gaussian 16:  ES64L-G16RevA.03 25-Dec-2016

 ------------------------------
 #p blyp/Def2SVP td=(nstates=5)
 ------------------------------

 ---------------------------------------------------
 step_1101_chromophore_23 TDDFT with blyp functional
 ---------------------------------------------------
 Symbolic Z-matrix:
 Charge =  0 Multiplicity = 1

                         Standard orientation:
 ---------------------------------------------------------------------
 Center     Atomic      Atomic             Coordinates (Angstroms)
 Number     Number       Type             X           Y           Z
 ---------------------------------------------------------------------
      1         12           0        4.573415   -0.030520    0.364484
      2          6           0        2.748725    2.651924   -0.904284
      3          6           0        2.807012    0.323852    3.347514
      4          6           0        5.855791   -2.976560    1.364417
      5          6           0        6.091721   -0.435134   -2.767759
      6          7           0        2.817012    1.204071    1.092258
      7          6           0        2.207796    2.246162    0.347506
      8          6           0        1.183895    2.967172    1.211648
      9          6           0        1.453128    2.349366    2.639278
     10          6           0        2.314505    1.153650    2.316143
     11          6           0        2.041570    3.266851    3.661286
     12          6           0       -0.217136    2.581001    0.676359
     13          6           0       -1.198179    3.654951    0.139998
     14          6           0       -2.390307    3.949207    1.188494
     15          8           0       -2.247014    4.128286    2.406355
     16          8           0       -3.621906    3.881609    0.444989
     17          7           0        4.447438   -1.089916    2.120285
     18          6           0        3.713273   -0.770433    3.238996
     19          6           0        3.801651   -1.779897    4.245841
     20          6           0        4.743457   -2.774150    3.679322
     21          6           0        5.082715   -2.325114    2.319103
     22          6           0        2.969320   -1.856061    5.555831
     23          6           0        5.005485   -4.092429    4.449099
     24          8           0        4.701095   -4.198315    5.631280
     25          6           0        5.692592   -5.249749    3.713444
     26          7           0        5.600697   -1.621352   -0.583958
     27          6           0        6.094739   -2.698883    0.004781
     28          6           0        7.013824   -3.500662   -0.882766
     29          6           0        6.993655   -2.688910   -2.188881
     30          6           0        6.205295   -1.472123   -1.839911
     31          6           0        8.413706   -3.589979   -0.329987
     32          6           0        6.404699   -3.344527   -3.391626
     33          6           0        7.443618   -3.832524   -4.445840
     34          7           0        4.560402    0.968009   -1.477507
     35          6           0        5.294444    0.736462   -2.581895
     36          6           0        4.967523    1.745755   -3.570875
     37          6           0        3.991573    2.576756   -2.936732
     38          6           0        3.725731    2.006291   -1.676769
     39          6           0        5.609146    1.984947   -4.902544
     40          6           0        3.090907    3.717192   -3.007200
     41          8           0        2.821461    4.534436   -3.874135
     42          6           0        2.282791    3.799338   -1.706301
     43          6           0        2.546683    5.127879   -1.026568
     44          8           0        3.450068    5.394823   -0.335354
     45          8           0        1.428358    5.947822   -1.274547
     46          6           0        1.115131    7.013364   -0.396991
     47          6           0       -4.831861    3.975426    1.266778
     48          6           0       -5.774093    2.754266    0.994572
     49          6           0       -5.641147    1.448151    1.023787
     50          6           0       -4.398154    0.650010    1.419849
     51          6           0       -6.847445    0.617531    0.494306
     52          6           0       -8.181773    0.847229    1.248638
     53          6           0       -9.344763    1.376305    0.431619
     54          6           0      -10.709194    0.583676    0.678546
     55          6           0      -11.919666    1.518668    0.681672
     56          6           0      -10.852530   -0.594246   -0.414647
     57          6           0      -10.465780   -2.044225    0.152497
     58          6           0       -9.936921   -3.023933   -0.911499
     59          6           0       -8.409591   -3.126647   -0.771142
     60          6           0       -7.660515   -2.310819   -1.871385
     61          6           0       -8.023237   -4.632708   -0.896459
     62          6           0       -6.546972   -4.981355   -0.862137
     63          6           0       -5.953884   -5.546145   -2.179460
     64          6           0       -4.910730   -4.440686   -2.616743
     65          6           0       -4.956180   -4.010073   -4.086438
     66          6           0       -3.514143   -4.878157   -2.221252
     67          1           0        2.445119    0.661683    4.320954
     68          1           0        6.266662   -3.964719    1.582212
     69          1           0        6.633236   -0.541618   -3.710398
     70          1           0        1.374646    4.034621    1.100965
     71          1           0        0.538220    1.901865    3.026932
     72          1           0        1.614727    3.030314    4.635417
     73          1           0        1.730003    4.297850    3.491734
     74          1           0        3.125415    3.153328    3.652463
     75          1           0       -0.789597    2.071578    1.452761
     76          1           0       -0.076964    1.890544   -0.155453
     77          1           0       -1.607706    3.294642   -0.803828
     78          1           0       -0.666864    4.591029   -0.032118
     79          1           0        2.171109   -1.120742    5.658588
     80          1           0        3.670224   -1.739454    6.382229
     81          1           0        2.391359   -2.772579    5.435927
     82          1           0        6.770632   -5.090616    3.736584
     83          1           0        5.312038   -5.260242    2.692609
     84          1           0        5.235965   -6.149329    4.125838
     85          1           0        6.682363   -4.539118   -0.870231
     86          1           0        7.964604   -2.229505   -2.377066
     87          1           0        8.993781   -3.845060   -1.217059
     88          1           0        8.647843   -4.366738    0.398690
     89          1           0        8.730757   -2.687771    0.192853
     90          1           0        5.681853   -2.707098   -3.901824
     91          1           0        5.703065   -4.125728   -3.103004
     92          1           0        8.382075   -4.024659   -3.924270
     93          1           0        7.547339   -3.007071   -5.150116
     94          1           0        7.143140   -4.734900   -4.978185
     95          1           0        5.361127    1.188780   -5.604561
     96          1           0        6.694643    2.073035   -4.857246
     97          1           0        5.239422    2.935419   -5.287609
     98          1           0        1.229597    3.744499   -1.979952
     99          1           0        0.136724    7.403871   -0.676510
    100          1           0        1.714640    7.913833   -0.525214
    101          1           0        1.131798    6.732000    0.655698
    102          1           0       -5.305868    4.919049    0.994500
    103          1           0       -4.623143    4.054820    2.333764
    104          1           0       -6.693674    3.081258    0.509203
    105          1           0       -4.495087    0.103735    2.358067
    106          1           0       -3.564902    1.346721    1.516595
    107          1           0       -4.219995   -0.135029    0.684578
    108          1           0       -6.549241   -0.404460    0.725941
    109          1           0       -6.931330    0.764956   -0.582411
    110          1           0       -7.959373    1.605149    1.999254
    111          1           0       -8.431179   -0.053753    1.810277
    112          1           0       -8.936263    1.326746   -0.578255
    113          1           0       -9.464787    2.404075    0.773632
    114          1           0      -10.682343    0.124262    1.666402
    115          1           0      -12.529889    1.573435    1.583072
    116          1           0      -12.593583    1.221204   -0.121181
    117          1           0      -11.454584    2.489510    0.511712
    118          1           0      -10.229561   -0.371500   -1.280441
    119          1           0      -11.868197   -0.625982   -0.807826
    120          1           0      -11.337922   -2.558869    0.554362
    121          1           0       -9.739800   -2.030328    0.965627
    122          1           0      -10.032859   -2.619020   -1.918478
    123          1           0      -10.518455   -3.936883   -0.779385
    124          1           0       -8.010100   -2.782573    0.183672
    125          1           0       -7.317424   -3.102545   -2.537795
    126          1           0       -6.830633   -1.737973   -1.459710
    127          1           0       -8.272728   -1.560772   -2.372067
    128          1           0       -8.513683   -4.925227   -1.825496
    129          1           0       -8.437925   -5.299548   -0.141283
    130          1           0       -6.345585   -5.710376   -0.078092
    131          1           0       -6.033140   -4.120441   -0.433453
    132          1           0       -6.708064   -5.789343   -2.927842
    133          1           0       -5.421723   -6.483099   -2.014860
    134          1           0       -5.060108   -3.524903   -2.044256
    135          1           0       -4.102317   -4.246121   -4.721074
    136          1           0       -5.296851   -2.978414   -4.181120
    137          1           0       -5.789126   -4.460292   -4.625161
    138          1           0       -3.026658   -5.679827   -2.775748
    139          1           0       -3.445008   -5.083872   -1.153121
    140          1           0       -2.797601   -4.057971   -2.238881
 ---------------------------------------------------------------------

 SCF Done:  E(RB-LYP) =  -3007.34999025     A.U. after   20 cycles

 Excitation energies and oscillator strengths:

 Excited State   1:      Singlet-A      1.8291 eV  677.83 nm  f=0.1333  <S**2>=0.000
     244 -> 247        0.49744
     245 -> 247        0.11932
     245 -> 248       -0.14426
     246 -> 247        0.47219
 This state for optimization and/or second-order correction.
 Total Energy, E(TD-HF/TD-DFT) =  -3007.28277087
 Copying the excited state density for this state as the 1-particle RhoCI density.

 Excited State   2:      Singlet-A      1.8380 eV  674.55 nm  f=0.1591  <S**2>=0.000
     244 -> 247       -0.47833
     245 -> 248       -0.14990
     246 -> 247        0.49359
     246 <- 247       -0.10287

 Excited State   3:      Singlet-A      1.8771 eV  660.50 nm  f=0.0036  <S**2>=0.000
     243 -> 247        0.70324

 Excited State   4:      Singlet-A      2.0468 eV  605.74 nm  f=0.0825  <S**2>=0.000
     244 -> 247       -0.14613
     245 -> 247        0.63013
     246 -> 248        0.25439

 Excited State   5:      Singlet-A      2.4325 eV  509.71 nm  f=0.0026  <S**2>=0.000
     242 -> 247        0.69439

 The electronic state is 1-A.
 Alpha  occ. eigenvalues --  -46.27065 -18.82539 -18.81285 -18.78892 -18.78062
 Alpha  occ. eigenvalues --  -18.75542 -18.75117 -14.03354 -14.03339 -14.01167
 Alpha  occ. eigenvalues --  -14.00925 -10.05468 -10.04242  -9.99845  -9.99301
 Alpha  occ. eigenvalues --   -9.98100  -9.97547  -9.96714  -9.96642  -9.96631
 Alpha  occ. eigenvalues --   -9.96488  -9.96017  -9.95591  -9.95581  -9.94513
 Alpha  occ. eigenvalues --   -9.94366  -9.94318  -9.94273  -9.93894  -9.93804
 Alpha  occ. eigenvalues --   -9.93657  -9.93634  -9.93557  -9.93300  -9.93239
 Alpha  occ. eigenvalues --   -9.93230  -9.93126  -9.92920  -9.92888  -9.92857
 Alpha  occ. eigenvalues --   -9.92728  -9.92694  -9.92643  -9.92563  -9.92400
 Alpha  occ. eigenvalues --   -9.92258  -9.92220  -9.92189  -9.92180  -9.92042
 Alpha  occ. eigenvalues --   -9.91809  -9.91804  -9.91785  -9.91647  -9.91417
 Alpha  occ. eigenvalues --   -9.91266  -9.91203  -9.91186  -9.91088  -9.91018
 Alpha  occ. eigenvalues --   -9.90774  -9.90743  -9.90623  -9.90545  -9.90492
 Alpha  occ. eigenvalues --   -9.90291  -2.91701  -1.72120  -1.71599  -1.71404
 Alpha  occ. eigenvalues --   -0.98884  -0.96262  -0.92026  -0.91171  -0.91155
 Alpha  occ. eigenvalues --   -0.90311  -0.87283  -0.86552  -0.85874  -0.84185
 Alpha  occ. eigenvalues --   -0.76425  -0.74150  -0.73527  -0.73148  -0.72804
 Alpha  occ. eigenvalues --   -0.72323  -0.71511  -0.71218  -0.70715  -0.69764
 Alpha  occ. eigenvalues --   -0.69313  -0.68415  -0.68211  -0.67801  -0.67406
 Alpha  occ. eigenvalues --   -0.66507  -0.66179  -0.65238  -0.65024  -0.64464
 Alpha  occ. eigenvalues --   -0.64065  -0.62676  -0.62554  -0.61331  -0.60826
 Alpha  occ. eigenvalues --   -0.60569  -0.60258  -0.59918  -0.59718  -0.58757
 Alpha  occ. eigenvalues --   -0.58372  -0.57876  -0.57073  -0.55363  -0.55193
 Alpha  occ. eigenvalues --   -0.54185  -0.53757  -0.52924  -0.52393  -0.51944
 Alpha  occ. eigenvalues --   -0.51427  -0.51106  -0.50650  -0.50372  -0.49953
 Alpha  occ. eigenvalues --   -0.49693  -0.49537  -0.48943  -0.48916  -0.46991
 Alpha  occ. eigenvalues --   -0.45992  -0.45711  -0.45569  -0.45447  -0.45115
 Alpha  occ. eigenvalues --   -0.44198  -0.43367  -0.43167  -0.43056  -0.42801
 Alpha  occ. eigenvalues --   -0.42302  -0.41958  -0.41856  -0.41544  -0.41468
 Alpha  occ. eigenvalues --   -0.41293  -0.40862  -0.40665  -0.40469  -0.40198
 Alpha  occ. eigenvalues --   -0.40082  -0.39878  -0.39720  -0.39370  -0.39211
 Alpha  occ. eigenvalues --   -0.38956  -0.38751  -0.38671  -0.38619  -0.38227
 Alpha  occ. eigenvalues --   -0.38002  -0.37916  -0.37748  -0.37724  -0.37449
 Alpha  occ. eigenvalues --   -0.37387  -0.36963  -0.36757  -0.36509  -0.36470
 Alpha  occ. eigenvalues --   -0.36104  -0.36003  -0.35870  -0.35791  -0.35665
 Alpha  occ. eigenvalues --   -0.35398  -0.35331  -0.35127  -0.35022  -0.34920
 Alpha  occ. eigenvalues --   -0.34838  -0.34291  -0.34173  -0.34126  -0.33953
 Alpha  occ. eigenvalues --   -0.33874  -0.33821  -0.33669  -0.33388  -0.33374
 Alpha  occ. eigenvalues --   -0.33191  -0.33077  -0.32656  -0.32510  -0.32428
 Alpha  occ. eigenvalues --   -0.32364  -0.32113  -0.31744  -0.31657  -0.31534
 Alpha  occ. eigenvalues --   -0.31426  -0.31350  -0.30985  -0.30837  -0.30636
 Alpha  occ. eigenvalues --   -0.30355  -0.30339  -0.30258  -0.30108  -0.29889
 Alpha  occ. eigenvalues --   -0.29878  -0.29465  -0.29354  -0.29186  -0.28969
 Alpha  occ. eigenvalues --   -0.28925  -0.28728  -0.28336  -0.28264  -0.28144
 Alpha  occ. eigenvalues --   -0.27850  -0.27428  -0.27088  -0.26950  -0.26601
 Alpha  occ. eigenvalues --   -0.26546  -0.26426  -0.26154  -0.25660  -0.25359
 Alpha  occ. eigenvalues --   -0.24883  -0.24476  -0.24154  -0.23794  -0.23688
 Alpha  occ. eigenvalues --   -0.23293  -0.23133  -0.23019  -0.21920  -0.21073
 Alpha  occ. eigenvalues --   -0.20533  -0.20029  -0.18536  -0.18379  -0.17395
 Alpha  occ. eigenvalues --   -0.16139
 Alpha virt. eigenvalues --   -0.11714  -0.07110  -0.06102  -0.04532  -0.04336
 Alpha virt. eigenvalues --   -0.02649  -0.02480  -0.02367  -0.01267  -0.00187
 Alpha virt. eigenvalues --    0.00710   0.01509   0.01681   0.02277   0.02646

 Mulliken charges:
               1
     1  Mg   0.700159
     2  C    0.046544
     3  C   -0.097391
     4  C   -0.058031
     5  C   -0.081733
     6  N   -0.198472
     7  C   -0.085259
     8  C    0.009142
     9  C    0.033385
    10  C   -0.028058
    11  C    0.161168
    12  C    0.097025
    13  C    0.110904
    14  C    0.109510
    15  O   -0.193106
    16  O   -0.295097
    17  N   -0.312313
    18  C    0.188177
    19  C   -0.169235
    20  C   -0.006581
    21  C    0.195696
    22  C    0.212160
    23  C   -0.092969
    24  O   -0.167628
    25  C    0.140316
    26  N   -0.227238
    27  C   -0.050709
    28  C    0.065773
    29  C    0.080961
    30  C    0.000056
    31  C    0.100625
    32  C    0.106576
    33  C    0.070203
    34  N   -0.237206
    35  C    0.107100
    36  C   -0.206655
    37  C    0.126620
    38  C    0.037529
    39  C    0.167752
    40  C   -0.089035
    41  O   -0.132099
    42  C    0.051219
    43  C    0.102388
    44  O   -0.105268
    45  O   -0.288818
    46  C    0.225309
    47  C    0.308847
    48  C   -0.083714
    49  C   -0.177619
    50  C    0.151316
    51  C    0.111233
    52  C    0.049391
    53  C    0.118068
    54  C   -0.087168
    55  C    0.119153
    56  C    0.107561
    57  C    0.061005
    58  C    0.127172
    59  C   -0.113231
    60  C    0.103966
    61  C    0.069796
    62  C    0.077192
    63  C    0.135119
    64  C   -0.078909
    65  C    0.118226
    66  C    0.093005
    67  H   -0.047345
    68  H   -0.083236
    69  H   -0.056706
    70  H   -0.011806
    71  H   -0.030501
    72  H   -0.006937
    73  H   -0.005102
    74  H    0.004815
    75  H   -0.010220
    76  H   -0.010798
    77  H   -0.002777
    78  H    0.007915
    79  H   -0.035004
    80  H    0.023609
    81  H    0.010700
    82  H    0.030685
    83  H   -0.005393
    84  H   -0.004508
    85  H   -0.022819
    86  H   -0.026881
    87  H   -0.006725
    88  H   -0.014060
    89  H   -0.004204
    90  H   -0.023769
    91  H   -0.040399
    92  H   -0.005912
    93  H   -0.001494
    94  H   -0.004539
    95  H   -0.004295
    96  H   -0.001341
    97  H    0.006107
    98  H    0.003319
    99  H    0.006275
   100  H    0.001960
   101  H    0.004074
   102  H   -0.015866
   103  H    0.007498
   104  H   -0.039695
   105  H   -0.002250
   106  H   -0.009553
   107  H   -0.002953
   108  H   -0.034431
   109  H    0.008700
   110  H   -0.033388
   111  H   -0.027707
   112  H   -0.029343
   113  H   -0.024675
   114  H   -0.027762
   115  H   -0.011892
   116  H   -0.022515
   117  H   -0.026702
   118  H   -0.033402
   119  H   -0.030347
   120  H   -0.039741
   121  H   -0.028745
   122  H   -0.035126
   123  H   -0.031311
   124  H   -0.028901
   125  H   -0.011158
   126  H   -0.008142
   127  H   -0.014030
   128  H   -0.035941
   129  H   -0.037047
   130  H   -0.046503
   131  H   -0.038513
   132  H   -0.029243
   133  H   -0.034531
   134  H   -0.026661
   135  H   -0.016158
   136  H   -0.019649
   137  H   -0.044312
   138  H   -0.012262
   139  H   -0.037352
   140  H   -0.034889
 Sum of Mulliken charges =  -0.00000

 Dipole moment (field-independent basis, Debye):
    X=             -0.4970    Y=             -3.1007    Z=             -1.0942  Tot=              3.3255
 Quadrupole moment (field-independent basis, Debye-Ang):
   XX=           -371.4668   YY=           -412.9214   ZZ=           -435.4775
   XY=            -21.6778   XZ=            -20.0464   YZ=             33.1382

 Normal termination of Gaussian 16 at Wed Apr 27 08:29:49 2022.
