 Gaussian 16, Revision A.03,
 Gaussian 16:  ES64L-G16RevA.03 25-Dec-2016

 -----------------------------------
 #p cam-b3lyp/Def2SVP td=(nstates=5)
 -----------------------------------

 --------------------------------------------------------
 step_1101_chromophore_23 TDDFT with cam-b3lyp functional
 --------------------------------------------------------
 Symbolic Z-matrix:
 Charge =  0 Multiplicity = 1

                         Standard orientation:
 ---------------------------------------------------------------------
 Center     Atomic      Atomic             Coordinates (Angstroms)
 Number     Number       Type             X           Y           Z
 ---------------------------------------------------------------------
      1         12           0        4.573415   -0.030520    0.364484
      2          6           0        2.748725    2.651924   -0.904284
      3          6           0        2.807012    0.323852    3.347514
      4          6           0        5.855791   -2.976560    1.364417
      5          6           0        6.091721   -0.435134   -2.767759
      6          7           0        2.817012    1.204071    1.092258
      7          6           0        2.207796    2.246162    0.347506
      8          6           0        1.183895    2.967172    1.211648
      9          6           0        1.453128    2.349366    2.639278
     10          6           0        2.314505    1.153650    2.316143
     11          6           0        2.041570    3.266851    3.661286
     12          6           0       -0.217136    2.581001    0.676359
     13          6           0       -1.198179    3.654951    0.139998
     14          6           0       -2.390307    3.949207    1.188494
     15          8           0       -2.247014    4.128286    2.406355
     16          8           0       -3.621906    3.881609    0.444989
     17          7           0        4.447438   -1.089916    2.120285
     18          6           0        3.713273   -0.770433    3.238996
     19          6           0        3.801651   -1.779897    4.245841
     20          6           0        4.743457   -2.774150    3.679322
     21          6           0        5.082715   -2.325114    2.319103
     22          6           0        2.969320   -1.856061    5.555831
     23          6           0        5.005485   -4.092429    4.449099
     24          8           0        4.701095   -4.198315    5.631280
     25          6           0        5.692592   -5.249749    3.713444
     26          7           0        5.600697   -1.621352   -0.583958
     27          6           0        6.094739   -2.698883    0.004781
     28          6           0        7.013824   -3.500662   -0.882766
     29          6           0        6.993655   -2.688910   -2.188881
     30          6           0        6.205295   -1.472123   -1.839911
     31          6           0        8.413706   -3.589979   -0.329987
     32          6           0        6.404699   -3.344527   -3.391626
     33          6           0        7.443618   -3.832524   -4.445840
     34          7           0        4.560402    0.968009   -1.477507
     35          6           0        5.294444    0.736462   -2.581895
     36          6           0        4.967523    1.745755   -3.570875
     37          6           0        3.991573    2.576756   -2.936732
     38          6           0        3.725731    2.006291   -1.676769
     39          6           0        5.609146    1.984947   -4.902544
     40          6           0        3.090907    3.717192   -3.007200
     41          8           0        2.821461    4.534436   -3.874135
     42          6           0        2.282791    3.799338   -1.706301
     43          6           0        2.546683    5.127879   -1.026568
     44          8           0        3.450068    5.394823   -0.335354
     45          8           0        1.428358    5.947822   -1.274547
     46          6           0        1.115131    7.013364   -0.396991
     47          6           0       -4.831861    3.975426    1.266778
     48          6           0       -5.774093    2.754266    0.994572
     49          6           0       -5.641147    1.448151    1.023787
     50          6           0       -4.398154    0.650010    1.419849
     51          6           0       -6.847445    0.617531    0.494306
     52          6           0       -8.181773    0.847229    1.248638
     53          6           0       -9.344763    1.376305    0.431619
     54          6           0      -10.709194    0.583676    0.678546
     55          6           0      -11.919666    1.518668    0.681672
     56          6           0      -10.852530   -0.594246   -0.414647
     57          6           0      -10.465780   -2.044225    0.152497
     58          6           0       -9.936921   -3.023933   -0.911499
     59          6           0       -8.409591   -3.126647   -0.771142
     60          6           0       -7.660515   -2.310819   -1.871385
     61          6           0       -8.023237   -4.632708   -0.896459
     62          6           0       -6.546972   -4.981355   -0.862137
     63          6           0       -5.953884   -5.546145   -2.179460
     64          6           0       -4.910730   -4.440686   -2.616743
     65          6           0       -4.956180   -4.010073   -4.086438
     66          6           0       -3.514143   -4.878157   -2.221252
     67          1           0        2.445119    0.661683    4.320954
     68          1           0        6.266662   -3.964719    1.582212
     69          1           0        6.633236   -0.541618   -3.710398
     70          1           0        1.374646    4.034621    1.100965
     71          1           0        0.538220    1.901865    3.026932
     72          1           0        1.614727    3.030314    4.635417
     73          1           0        1.730003    4.297850    3.491734
     74          1           0        3.125415    3.153328    3.652463
     75          1           0       -0.789597    2.071578    1.452761
     76          1           0       -0.076964    1.890544   -0.155453
     77          1           0       -1.607706    3.294642   -0.803828
     78          1           0       -0.666864    4.591029   -0.032118
     79          1           0        2.171109   -1.120742    5.658588
     80          1           0        3.670224   -1.739454    6.382229
     81          1           0        2.391359   -2.772579    5.435927
     82          1           0        6.770632   -5.090616    3.736584
     83          1           0        5.312038   -5.260242    2.692609
     84          1           0        5.235965   -6.149329    4.125838
     85          1           0        6.682363   -4.539118   -0.870231
     86          1           0        7.964604   -2.229505   -2.377066
     87          1           0        8.993781   -3.845060   -1.217059
     88          1           0        8.647843   -4.366738    0.398690
     89          1           0        8.730757   -2.687771    0.192853
     90          1           0        5.681853   -2.707098   -3.901824
     91          1           0        5.703065   -4.125728   -3.103004
     92          1           0        8.382075   -4.024659   -3.924270
     93          1           0        7.547339   -3.007071   -5.150116
     94          1           0        7.143140   -4.734900   -4.978185
     95          1           0        5.361127    1.188780   -5.604561
     96          1           0        6.694643    2.073035   -4.857246
     97          1           0        5.239422    2.935419   -5.287609
     98          1           0        1.229597    3.744499   -1.979952
     99          1           0        0.136724    7.403871   -0.676510
    100          1           0        1.714640    7.913833   -0.525214
    101          1           0        1.131798    6.732000    0.655698
    102          1           0       -5.305868    4.919049    0.994500
    103          1           0       -4.623143    4.054820    2.333764
    104          1           0       -6.693674    3.081258    0.509203
    105          1           0       -4.495087    0.103735    2.358067
    106          1           0       -3.564902    1.346721    1.516595
    107          1           0       -4.219995   -0.135029    0.684578
    108          1           0       -6.549241   -0.404460    0.725941
    109          1           0       -6.931330    0.764956   -0.582411
    110          1           0       -7.959373    1.605149    1.999254
    111          1           0       -8.431179   -0.053753    1.810277
    112          1           0       -8.936263    1.326746   -0.578255
    113          1           0       -9.464787    2.404075    0.773632
    114          1           0      -10.682343    0.124262    1.666402
    115          1           0      -12.529889    1.573435    1.583072
    116          1           0      -12.593583    1.221204   -0.121181
    117          1           0      -11.454584    2.489510    0.511712
    118          1           0      -10.229561   -0.371500   -1.280441
    119          1           0      -11.868197   -0.625982   -0.807826
    120          1           0      -11.337922   -2.558869    0.554362
    121          1           0       -9.739800   -2.030328    0.965627
    122          1           0      -10.032859   -2.619020   -1.918478
    123          1           0      -10.518455   -3.936883   -0.779385
    124          1           0       -8.010100   -2.782573    0.183672
    125          1           0       -7.317424   -3.102545   -2.537795
    126          1           0       -6.830633   -1.737973   -1.459710
    127          1           0       -8.272728   -1.560772   -2.372067
    128          1           0       -8.513683   -4.925227   -1.825496
    129          1           0       -8.437925   -5.299548   -0.141283
    130          1           0       -6.345585   -5.710376   -0.078092
    131          1           0       -6.033140   -4.120441   -0.433453
    132          1           0       -6.708064   -5.789343   -2.927842
    133          1           0       -5.421723   -6.483099   -2.014860
    134          1           0       -5.060108   -3.524903   -2.044256
    135          1           0       -4.102317   -4.246121   -4.721074
    136          1           0       -5.296851   -2.978414   -4.181120
    137          1           0       -5.789126   -4.460292   -4.625161
    138          1           0       -3.026658   -5.679827   -2.775748
    139          1           0       -3.445008   -5.083872   -1.153121
    140          1           0       -2.797601   -4.057971   -2.238881
 ---------------------------------------------------------------------

 SCF Done:  E(RCAM-B3LYP) =  -3007.14677980     A.U. after   17 cycles

 Excitation energies and oscillator strengths:

 Excited State   1:      Singlet-A      1.7622 eV  703.57 nm  f=0.3619  <S**2>=0.000
     245 -> 248        0.18125
     246 -> 247        0.68474
     245 <- 248        0.10507
 This state for optimization and/or second-order correction.
 Total Energy, E(TD-HF/TD-DFT) =  -3007.08201992
 Copying the excited state density for this state as the 1-particle RhoCI density.

 Excited State   2:      Singlet-A      2.2572 eV  549.29 nm  f=0.1218  <S**2>=0.000
     245 -> 247        0.64092
     246 -> 248       -0.28348

 Excited State   3:      Singlet-A      3.2025 eV  387.15 nm  f=0.0024  <S**2>=0.000
     243 -> 247        0.63399
     244 -> 247       -0.27258

 Excited State   4:      Singlet-A      3.4854 eV  355.73 nm  f=0.0119  <S**2>=0.000
     242 -> 247        0.25023
     242 -> 249        0.16629
     243 -> 247        0.22231
     244 -> 247        0.53458
     246 -> 248        0.18655

 Excited State   5:      Singlet-A      3.5447 eV  349.78 nm  f=0.0011  <S**2>=0.000
     240 -> 247        0.56752
     240 -> 248       -0.15091
     240 -> 249       -0.26964
     240 -> 250       -0.14575
     240 -> 251        0.17950

 The electronic state is 1-A.
 Alpha  occ. eigenvalues --  -46.88666 -19.25366 -19.24093 -19.21928 -19.21181
 Alpha  occ. eigenvalues --  -19.19064 -19.18033 -14.42434 -14.42183 -14.39847
 Alpha  occ. eigenvalues --  -14.39139 -10.41058 -10.39602 -10.35380 -10.34322
 Alpha  occ. eigenvalues --  -10.32183 -10.31721 -10.31516 -10.31419 -10.30991
 Alpha  occ. eigenvalues --  -10.30767 -10.30655 -10.30454 -10.29321 -10.29166
 Alpha  occ. eigenvalues --  -10.28362 -10.28362 -10.28355 -10.28348 -10.28083
 Alpha  occ. eigenvalues --  -10.27767 -10.27617 -10.27495 -10.27397 -10.27388
 Alpha  occ. eigenvalues --  -10.27359 -10.27215 -10.27171 -10.27089 -10.26848
 Alpha  occ. eigenvalues --  -10.26648 -10.26424 -10.26366 -10.26307 -10.26296
 Alpha  occ. eigenvalues --  -10.26180 -10.26133 -10.25938 -10.25903 -10.25608
 Alpha  occ. eigenvalues --  -10.25556 -10.25532 -10.25511 -10.25509 -10.25092
 Alpha  occ. eigenvalues --  -10.24999 -10.24881 -10.24872 -10.24725 -10.24657
 Alpha  occ. eigenvalues --  -10.24406 -10.24381 -10.24262 -10.24116 -10.24069
 Alpha  occ. eigenvalues --  -10.23853  -3.17205  -1.92101  -1.91670  -1.91502
 Alpha  occ. eigenvalues --   -1.17496  -1.14654  -1.09917  -1.09869  -1.09326
 Alpha  occ. eigenvalues --   -1.08131  -1.05021  -1.04119  -1.03496  -1.02046
 Alpha  occ. eigenvalues --   -0.93469  -0.90875  -0.90369  -0.89959  -0.89581
 Alpha  occ. eigenvalues --   -0.89090  -0.88162  -0.87935  -0.87267  -0.86196
 Alpha  occ. eigenvalues --   -0.85617  -0.85263  -0.84388  -0.84006  -0.83615
 Alpha  occ. eigenvalues --   -0.82553  -0.82275  -0.81349  -0.80900  -0.80290
 Alpha  occ. eigenvalues --   -0.79857  -0.78194  -0.78074  -0.77124  -0.76224
 Alpha  occ. eigenvalues --   -0.75891  -0.75617  -0.75336  -0.75036  -0.73967
 Alpha  occ. eigenvalues --   -0.73413  -0.72812  -0.72081  -0.70117  -0.69825
 Alpha  occ. eigenvalues --   -0.68632  -0.68337  -0.67502  -0.66534  -0.66271
 Alpha  occ. eigenvalues --   -0.65613  -0.65134  -0.64816  -0.64551  -0.63977
 Alpha  occ. eigenvalues --   -0.63699  -0.63276  -0.62841  -0.62594  -0.60655
 Alpha  occ. eigenvalues --   -0.59594  -0.59204  -0.59154  -0.58850  -0.58770
 Alpha  occ. eigenvalues --   -0.57551  -0.56749  -0.56358  -0.56213  -0.56011
 Alpha  occ. eigenvalues --   -0.55355  -0.55246  -0.54737  -0.54595  -0.54372
 Alpha  occ. eigenvalues --   -0.54258  -0.53502  -0.53471  -0.53221  -0.53113
 Alpha  occ. eigenvalues --   -0.53022  -0.52623  -0.52388  -0.51882  -0.51742
 Alpha  occ. eigenvalues --   -0.51613  -0.51443  -0.51045  -0.51004  -0.50953
 Alpha  occ. eigenvalues --   -0.50451  -0.50231  -0.49986  -0.49917  -0.49868
 Alpha  occ. eigenvalues --   -0.49516  -0.49169  -0.49078  -0.48860  -0.48756
 Alpha  occ. eigenvalues --   -0.48471  -0.48376  -0.48136  -0.47967  -0.47773
 Alpha  occ. eigenvalues --   -0.47709  -0.47401  -0.47267  -0.46979  -0.46783
 Alpha  occ. eigenvalues --   -0.46688  -0.46481  -0.46076  -0.45798  -0.45765
 Alpha  occ. eigenvalues --   -0.45671  -0.45479  -0.45400  -0.45340  -0.45096
 Alpha  occ. eigenvalues --   -0.44828  -0.44763  -0.44630  -0.44259  -0.43994
 Alpha  occ. eigenvalues --   -0.43913  -0.43794  -0.43495  -0.43424  -0.43218
 Alpha  occ. eigenvalues --   -0.42799  -0.42767  -0.42675  -0.42325  -0.42260
 Alpha  occ. eigenvalues --   -0.42024  -0.41823  -0.41707  -0.41433  -0.41265
 Alpha  occ. eigenvalues --   -0.41251  -0.41020  -0.40531  -0.40434  -0.40193
 Alpha  occ. eigenvalues --   -0.39907  -0.39795  -0.39417  -0.39214  -0.39132
 Alpha  occ. eigenvalues --   -0.38767  -0.38256  -0.37887  -0.37733  -0.37576
 Alpha  occ. eigenvalues --   -0.37367  -0.37257  -0.37139  -0.36819  -0.36453
 Alpha  occ. eigenvalues --   -0.36300  -0.35286  -0.35101  -0.34959  -0.34417
 Alpha  occ. eigenvalues --   -0.34255  -0.33512  -0.33466  -0.31158  -0.30975
 Alpha  occ. eigenvalues --   -0.30852  -0.30315  -0.29794  -0.29428  -0.24201
 Alpha  occ. eigenvalues --   -0.21564
 Alpha virt. eigenvalues --   -0.08837  -0.01992   0.00442   0.02345   0.02569
 Alpha virt. eigenvalues --    0.03585   0.05058   0.05264   0.05720   0.06725
 Alpha virt. eigenvalues --    0.07310   0.07680   0.08366   0.08485   0.08980

 Mulliken charges:
               1
     1  Mg   0.833197
     2  C    0.020654
     3  C   -0.112449
     4  C   -0.090314
     5  C   -0.086731
     6  N   -0.261050
     7  C   -0.040175
     8  C   -0.048530
     9  C   -0.023960
    10  C    0.001182
    11  C    0.096962
    12  C    0.053823
    13  C    0.050327
    14  C    0.187771
    15  O   -0.235045
    16  O   -0.359880
    17  N   -0.405024
    18  C    0.200514
    19  C   -0.172905
    20  C   -0.072489
    21  C    0.228191
    22  C    0.157811
    23  C   -0.013838
    24  O   -0.205464
    25  C    0.057501
    26  N   -0.301068
    27  C   -0.009672
    28  C    0.001526
    29  C    0.011492
    30  C    0.021739
    31  C    0.045551
    32  C    0.044191
    33  C    0.013470
    34  N   -0.327718
    35  C    0.111473
    36  C   -0.198977
    37  C    0.042625
    38  C    0.066476
    39  C    0.112397
    40  C    0.010556
    41  O   -0.172939
    42  C   -0.025780
    43  C    0.190803
    44  O   -0.139071
    45  O   -0.352962
    46  C    0.182352
    47  C    0.281641
    48  C   -0.118120
    49  C   -0.189175
    50  C    0.097877
    51  C    0.053813
    52  C   -0.004543
    53  C    0.064257
    54  C   -0.144272
    55  C    0.062339
    56  C    0.061735
    57  C    0.007595
    58  C    0.070527
    59  C   -0.161548
    60  C    0.051805
    61  C    0.021209
    62  C    0.016485
    63  C    0.076470
    64  C   -0.142797
    65  C    0.055999
    66  C    0.036873
    67  H   -0.010662
    68  H   -0.048147
    69  H   -0.021521
    70  H    0.016920
    71  H    0.006727
    72  H    0.017384
    73  H    0.022012
    74  H    0.030893
    75  H    0.015462
    76  H    0.021428
    77  H    0.034309
    78  H    0.034314
    79  H   -0.004888
    80  H    0.052103
    81  H    0.038131
    82  H    0.058425
    83  H    0.022755
    84  H    0.030357
    85  H    0.013383
    86  H    0.011761
    87  H    0.017546
    88  H    0.011179
    89  H    0.021866
    90  H    0.010043
    91  H   -0.010106
    92  H    0.012978
    93  H    0.019961
    94  H    0.019916
    95  H    0.018824
    96  H    0.021967
    97  H    0.032179
    98  H    0.045357
    99  H    0.029385
   100  H    0.026568
   101  H    0.023761
   102  H    0.013586
   103  H    0.039035
   104  H   -0.009536
   105  H    0.022299
   106  H    0.007353
   107  H    0.019873
   108  H   -0.007178
   109  H    0.034768
   110  H   -0.000954
   111  H   -0.000978
   112  H   -0.003205
   113  H    0.003077
   114  H    0.003962
   115  H    0.012504
   116  H    0.001324
   117  H   -0.002694
   118  H   -0.009932
   119  H   -0.001789
   120  H   -0.010022
   121  H   -0.003902
   122  H   -0.006533
   123  H   -0.000077
   124  H   -0.002800
   125  H    0.009041
   126  H    0.011560
   127  H    0.008687
   128  H   -0.008577
   129  H   -0.006810
   130  H   -0.014625
   131  H   -0.010649
   132  H   -0.000352
   133  H   -0.003606
   134  H    0.003795
   135  H    0.010072
   136  H    0.004350
   137  H   -0.018700
   138  H    0.011512
   139  H   -0.012624
   140  H   -0.008538
 Sum of Mulliken charges =  -0.00000

 Dipole moment (field-independent basis, Debye):
    X=             -0.4181    Y=             -3.8711    Z=             -0.1697  Tot=              3.8973
 Quadrupole moment (field-independent basis, Debye-Ang):
   XX=           -370.8171   YY=           -410.1079   ZZ=           -434.6235
   XY=            -26.4280   XZ=            -16.8046   YZ=             33.2893

 Normal termination of Gaussian 16 at Wed Apr 27 07:24:31 2022.
