 Gaussian 16, Revision A.03,
 Gaussian 16:  ES64L-G16RevA.03 25-Dec-2016

 ---------------------------------
 #p PBE1PBE/Def2SVP td=(nstates=5)
 ---------------------------------

 ------------------------------------------------------
 step_1101_chromophore_23 TDDFT with PBE1PBE functional
 ------------------------------------------------------
 Symbolic Z-matrix:
 Charge =  0 Multiplicity = 1

                         Standard orientation:
 ---------------------------------------------------------------------
 Center     Atomic      Atomic             Coordinates (Angstroms)
 Number     Number       Type             X           Y           Z
 ---------------------------------------------------------------------
      1         12           0        4.573415   -0.030520    0.364484
      2          6           0        2.748725    2.651924   -0.904284
      3          6           0        2.807012    0.323852    3.347514
      4          6           0        5.855791   -2.976560    1.364417
      5          6           0        6.091721   -0.435134   -2.767759
      6          7           0        2.817012    1.204071    1.092258
      7          6           0        2.207796    2.246162    0.347506
      8          6           0        1.183895    2.967172    1.211648
      9          6           0        1.453128    2.349366    2.639278
     10          6           0        2.314505    1.153650    2.316143
     11          6           0        2.041570    3.266851    3.661286
     12          6           0       -0.217136    2.581001    0.676359
     13          6           0       -1.198179    3.654951    0.139998
     14          6           0       -2.390307    3.949207    1.188494
     15          8           0       -2.247014    4.128286    2.406355
     16          8           0       -3.621906    3.881609    0.444989
     17          7           0        4.447438   -1.089916    2.120285
     18          6           0        3.713273   -0.770433    3.238996
     19          6           0        3.801651   -1.779897    4.245841
     20          6           0        4.743457   -2.774150    3.679322
     21          6           0        5.082715   -2.325114    2.319103
     22          6           0        2.969320   -1.856061    5.555831
     23          6           0        5.005485   -4.092429    4.449099
     24          8           0        4.701095   -4.198315    5.631280
     25          6           0        5.692592   -5.249749    3.713444
     26          7           0        5.600697   -1.621352   -0.583958
     27          6           0        6.094739   -2.698883    0.004781
     28          6           0        7.013824   -3.500662   -0.882766
     29          6           0        6.993655   -2.688910   -2.188881
     30          6           0        6.205295   -1.472123   -1.839911
     31          6           0        8.413706   -3.589979   -0.329987
     32          6           0        6.404699   -3.344527   -3.391626
     33          6           0        7.443618   -3.832524   -4.445840
     34          7           0        4.560402    0.968009   -1.477507
     35          6           0        5.294444    0.736462   -2.581895
     36          6           0        4.967523    1.745755   -3.570875
     37          6           0        3.991573    2.576756   -2.936732
     38          6           0        3.725731    2.006291   -1.676769
     39          6           0        5.609146    1.984947   -4.902544
     40          6           0        3.090907    3.717192   -3.007200
     41          8           0        2.821461    4.534436   -3.874135
     42          6           0        2.282791    3.799338   -1.706301
     43          6           0        2.546683    5.127879   -1.026568
     44          8           0        3.450068    5.394823   -0.335354
     45          8           0        1.428358    5.947822   -1.274547
     46          6           0        1.115131    7.013364   -0.396991
     47          6           0       -4.831861    3.975426    1.266778
     48          6           0       -5.774093    2.754266    0.994572
     49          6           0       -5.641147    1.448151    1.023787
     50          6           0       -4.398154    0.650010    1.419849
     51          6           0       -6.847445    0.617531    0.494306
     52          6           0       -8.181773    0.847229    1.248638
     53          6           0       -9.344763    1.376305    0.431619
     54          6           0      -10.709194    0.583676    0.678546
     55          6           0      -11.919666    1.518668    0.681672
     56          6           0      -10.852530   -0.594246   -0.414647
     57          6           0      -10.465780   -2.044225    0.152497
     58          6           0       -9.936921   -3.023933   -0.911499
     59          6           0       -8.409591   -3.126647   -0.771142
     60          6           0       -7.660515   -2.310819   -1.871385
     61          6           0       -8.023237   -4.632708   -0.896459
     62          6           0       -6.546972   -4.981355   -0.862137
     63          6           0       -5.953884   -5.546145   -2.179460
     64          6           0       -4.910730   -4.440686   -2.616743
     65          6           0       -4.956180   -4.010073   -4.086438
     66          6           0       -3.514143   -4.878157   -2.221252
     67          1           0        2.445119    0.661683    4.320954
     68          1           0        6.266662   -3.964719    1.582212
     69          1           0        6.633236   -0.541618   -3.710398
     70          1           0        1.374646    4.034621    1.100965
     71          1           0        0.538220    1.901865    3.026932
     72          1           0        1.614727    3.030314    4.635417
     73          1           0        1.730003    4.297850    3.491734
     74          1           0        3.125415    3.153328    3.652463
     75          1           0       -0.789597    2.071578    1.452761
     76          1           0       -0.076964    1.890544   -0.155453
     77          1           0       -1.607706    3.294642   -0.803828
     78          1           0       -0.666864    4.591029   -0.032118
     79          1           0        2.171109   -1.120742    5.658588
     80          1           0        3.670224   -1.739454    6.382229
     81          1           0        2.391359   -2.772579    5.435927
     82          1           0        6.770632   -5.090616    3.736584
     83          1           0        5.312038   -5.260242    2.692609
     84          1           0        5.235965   -6.149329    4.125838
     85          1           0        6.682363   -4.539118   -0.870231
     86          1           0        7.964604   -2.229505   -2.377066
     87          1           0        8.993781   -3.845060   -1.217059
     88          1           0        8.647843   -4.366738    0.398690
     89          1           0        8.730757   -2.687771    0.192853
     90          1           0        5.681853   -2.707098   -3.901824
     91          1           0        5.703065   -4.125728   -3.103004
     92          1           0        8.382075   -4.024659   -3.924270
     93          1           0        7.547339   -3.007071   -5.150116
     94          1           0        7.143140   -4.734900   -4.978185
     95          1           0        5.361127    1.188780   -5.604561
     96          1           0        6.694643    2.073035   -4.857246
     97          1           0        5.239422    2.935419   -5.287609
     98          1           0        1.229597    3.744499   -1.979952
     99          1           0        0.136724    7.403871   -0.676510
    100          1           0        1.714640    7.913833   -0.525214
    101          1           0        1.131798    6.732000    0.655698
    102          1           0       -5.305868    4.919049    0.994500
    103          1           0       -4.623143    4.054820    2.333764
    104          1           0       -6.693674    3.081258    0.509203
    105          1           0       -4.495087    0.103735    2.358067
    106          1           0       -3.564902    1.346721    1.516595
    107          1           0       -4.219995   -0.135029    0.684578
    108          1           0       -6.549241   -0.404460    0.725941
    109          1           0       -6.931330    0.764956   -0.582411
    110          1           0       -7.959373    1.605149    1.999254
    111          1           0       -8.431179   -0.053753    1.810277
    112          1           0       -8.936263    1.326746   -0.578255
    113          1           0       -9.464787    2.404075    0.773632
    114          1           0      -10.682343    0.124262    1.666402
    115          1           0      -12.529889    1.573435    1.583072
    116          1           0      -12.593583    1.221204   -0.121181
    117          1           0      -11.454584    2.489510    0.511712
    118          1           0      -10.229561   -0.371500   -1.280441
    119          1           0      -11.868197   -0.625982   -0.807826
    120          1           0      -11.337922   -2.558869    0.554362
    121          1           0       -9.739800   -2.030328    0.965627
    122          1           0      -10.032859   -2.619020   -1.918478
    123          1           0      -10.518455   -3.936883   -0.779385
    124          1           0       -8.010100   -2.782573    0.183672
    125          1           0       -7.317424   -3.102545   -2.537795
    126          1           0       -6.830633   -1.737973   -1.459710
    127          1           0       -8.272728   -1.560772   -2.372067
    128          1           0       -8.513683   -4.925227   -1.825496
    129          1           0       -8.437925   -5.299548   -0.141283
    130          1           0       -6.345585   -5.710376   -0.078092
    131          1           0       -6.033140   -4.120441   -0.433453
    132          1           0       -6.708064   -5.789343   -2.927842
    133          1           0       -5.421723   -6.483099   -2.014860
    134          1           0       -5.060108   -3.524903   -2.044256
    135          1           0       -4.102317   -4.246121   -4.721074
    136          1           0       -5.296851   -2.978414   -4.181120
    137          1           0       -5.789126   -4.460292   -4.625161
    138          1           0       -3.026658   -5.679827   -2.775748
    139          1           0       -3.445008   -5.083872   -1.153121
    140          1           0       -2.797601   -4.057971   -2.238881
 ---------------------------------------------------------------------

 SCF Done:  E(RPBE1PBE) =  -3005.33556730     A.U. after   15 cycles

 Excitation energies and oscillator strengths:

 Excited State   1:      Singlet-A      1.8865 eV  657.23 nm  f=0.3488  <S**2>=0.000
     245 -> 248       -0.18157
     246 -> 247        0.69024
 This state for optimization and/or second-order correction.
 Total Energy, E(TD-HF/TD-DFT) =  -3005.26624069
 Copying the excited state density for this state as the 1-particle RhoCI density.

 Excited State   2:      Singlet-A      2.2557 eV  549.64 nm  f=0.1168  <S**2>=0.000
     245 -> 247        0.65029
     246 -> 248        0.26459

 Excited State   3:      Singlet-A      2.9122 eV  425.75 nm  f=0.0023  <S**2>=0.000
     244 -> 247        0.69129

 Excited State   4:      Singlet-A      2.9481 eV  420.55 nm  f=0.0014  <S**2>=0.000
     242 -> 247        0.23701
     243 -> 247        0.63320
     243 -> 249        0.12793

 Excited State   5:      Singlet-A      3.0047 eV  412.63 nm  f=0.0005  <S**2>=0.000
     241 -> 247        0.67867
     241 -> 249       -0.12579
     241 -> 250       -0.10196

 The electronic state is 1-A.
 Alpha  occ. eigenvalues --  -46.92034 -19.26141 -19.24827 -19.22249 -19.21386
 Alpha  occ. eigenvalues --  -19.19082 -19.18483 -14.41836 -14.41725 -14.39385
 Alpha  occ. eigenvalues --  -14.38917 -10.38184 -10.36673 -10.32345 -10.31671
 Alpha  occ. eigenvalues --  -10.29602 -10.29011 -10.28993 -10.28921 -10.28675
 Alpha  occ. eigenvalues --  -10.28608 -10.28214 -10.27762 -10.27388 -10.26456
 Alpha  occ. eigenvalues --  -10.26347 -10.26206 -10.26080 -10.25896 -10.25889
 Alpha  occ. eigenvalues --  -10.25625 -10.25319 -10.25275 -10.25265 -10.25113
 Alpha  occ. eigenvalues --  -10.24912 -10.24893 -10.24859 -10.24811 -10.24460
 Alpha  occ. eigenvalues --  -10.24074 -10.24011 -10.23918 -10.23664 -10.23623
 Alpha  occ. eigenvalues --  -10.23614 -10.23522 -10.23493 -10.23323 -10.23279
 Alpha  occ. eigenvalues --  -10.23223 -10.23185 -10.23155 -10.23115 -10.23034
 Alpha  occ. eigenvalues --  -10.22692 -10.22452 -10.22435 -10.22286 -10.22054
 Alpha  occ. eigenvalues --  -10.21977 -10.21937 -10.21826 -10.21515 -10.21430
 Alpha  occ. eigenvalues --  -10.21226  -3.14153  -1.86989  -1.86536  -1.86373
 Alpha  occ. eigenvalues --   -1.12304  -1.09467  -1.04835  -1.04410  -1.04272
 Alpha  occ. eigenvalues --   -1.03043  -0.99649  -0.98844  -0.98179  -0.96456
 Alpha  occ. eigenvalues --   -0.87980  -0.85230  -0.84495  -0.84052  -0.83833
 Alpha  occ. eigenvalues --   -0.83354  -0.82261  -0.82181  -0.81394  -0.80551
 Alpha  occ. eigenvalues --   -0.79993  -0.79305  -0.78734  -0.78232  -0.77835
 Alpha  occ. eigenvalues --   -0.76752  -0.76471  -0.75530  -0.75156  -0.74580
 Alpha  occ. eigenvalues --   -0.73999  -0.72536  -0.72462  -0.71279  -0.70585
 Alpha  occ. eigenvalues --   -0.70098  -0.69680  -0.69612  -0.69131  -0.68148
 Alpha  occ. eigenvalues --   -0.67753  -0.67287  -0.66465  -0.64419  -0.64212
 Alpha  occ. eigenvalues --   -0.63206  -0.62550  -0.61856  -0.60961  -0.60505
 Alpha  occ. eigenvalues --   -0.60111  -0.59687  -0.59044  -0.58979  -0.58117
 Alpha  occ. eigenvalues --   -0.57886  -0.57828  -0.57234  -0.57012  -0.55155
 Alpha  occ. eigenvalues --   -0.54130  -0.53813  -0.53674  -0.53280  -0.53257
 Alpha  occ. eigenvalues --   -0.52228  -0.51283  -0.50943  -0.50583  -0.50493
 Alpha  occ. eigenvalues --   -0.49912  -0.49759  -0.49238  -0.49050  -0.48964
 Alpha  occ. eigenvalues --   -0.48833  -0.48150  -0.47934  -0.47808  -0.47640
 Alpha  occ. eigenvalues --   -0.47352  -0.47104  -0.46906  -0.46462  -0.46252
 Alpha  occ. eigenvalues --   -0.46238  -0.46003  -0.45563  -0.45491  -0.45346
 Alpha  occ. eigenvalues --   -0.44948  -0.44815  -0.44607  -0.44581  -0.44486
 Alpha  occ. eigenvalues --   -0.44237  -0.43752  -0.43599  -0.43489  -0.43282
 Alpha  occ. eigenvalues --   -0.43129  -0.43055  -0.42783  -0.42585  -0.42306
 Alpha  occ. eigenvalues --   -0.42265  -0.42062  -0.41930  -0.41714  -0.41561
 Alpha  occ. eigenvalues --   -0.41351  -0.41141  -0.40810  -0.40544  -0.40442
 Alpha  occ. eigenvalues --   -0.40407  -0.40193  -0.40069  -0.40025  -0.39862
 Alpha  occ. eigenvalues --   -0.39592  -0.39438  -0.39295  -0.39093  -0.38719
 Alpha  occ. eigenvalues --   -0.38684  -0.38522  -0.38379  -0.38202  -0.38067
 Alpha  occ. eigenvalues --   -0.37629  -0.37465  -0.37365  -0.37062  -0.37002
 Alpha  occ. eigenvalues --   -0.36780  -0.36582  -0.36507  -0.36291  -0.36165
 Alpha  occ. eigenvalues --   -0.36059  -0.35768  -0.35401  -0.35188  -0.35067
 Alpha  occ. eigenvalues --   -0.34724  -0.34604  -0.34345  -0.34144  -0.33949
 Alpha  occ. eigenvalues --   -0.33544  -0.33109  -0.32718  -0.32585  -0.32562
 Alpha  occ. eigenvalues --   -0.32205  -0.32148  -0.32021  -0.31846  -0.31392
 Alpha  occ. eigenvalues --   -0.31261  -0.30250  -0.30033  -0.29918  -0.29563
 Alpha  occ. eigenvalues --   -0.29155  -0.29048  -0.28459  -0.26847  -0.26126
 Alpha  occ. eigenvalues --   -0.25572  -0.25482  -0.25241  -0.25065  -0.21107
 Alpha  occ. eigenvalues --   -0.19133
 Alpha virt. eigenvalues --   -0.11330  -0.05500  -0.03801  -0.01965  -0.01193
 Alpha virt. eigenvalues --   -0.00233   0.00614   0.00639   0.01511   0.02778
 Alpha virt. eigenvalues --    0.03465   0.04325   0.04524   0.05058   0.05569

 Mulliken charges:
               1
     1  Mg   0.978594
     2  C    0.007443
     3  C   -0.102175
     4  C   -0.087907
     5  C   -0.075106
     6  N   -0.360781
     7  C    0.046301
     8  C   -0.146888
     9  C   -0.099047
    10  C    0.051051
    11  C    0.037108
    12  C    0.017606
    13  C   -0.029803
    14  C    0.243502
    15  O   -0.265046
    16  O   -0.384534
    17  N   -0.519416
    18  C    0.219013
    19  C   -0.199845
    20  C   -0.107565
    21  C    0.241379
    22  C    0.094746
    23  C    0.035011
    24  O   -0.239823
    25  C   -0.019153
    26  N   -0.405356
    27  C    0.042413
    28  C   -0.083739
    29  C   -0.072355
    30  C    0.056723
    31  C   -0.010460
    32  C   -0.010421
    33  C   -0.062124
    34  N   -0.461007
    35  C    0.142658
    36  C   -0.208117
    37  C   -0.008306
    38  C    0.114131
    39  C    0.056493
    40  C    0.107321
    41  O   -0.217364
    42  C   -0.140934
    43  C    0.283708
    44  O   -0.176339
    45  O   -0.386658
    46  C    0.124852
    47  C    0.242360
    48  C   -0.137243
    49  C   -0.222009
    50  C    0.024041
    51  C   -0.016919
    52  C   -0.060106
    53  C    0.004999
    54  C   -0.230253
    55  C    0.003939
    56  C    0.010753
    57  C   -0.057432
    58  C    0.016621
    59  C   -0.248484
    60  C   -0.014358
    61  C   -0.030236
    62  C   -0.049116
    63  C    0.023241
    64  C   -0.245689
    65  C   -0.000640
    66  C   -0.020756
    67  H    0.019841
    68  H   -0.013722
    69  H    0.010759
    70  H    0.061222
    71  H    0.043772
    72  H    0.044483
    73  H    0.049234
    74  H    0.059237
    75  H    0.048524
    76  H    0.054128
    77  H    0.065475
    78  H    0.073092
    79  H    0.020713
    80  H    0.077735
    81  H    0.064462
    82  H    0.084014
    83  H    0.049017
    84  H    0.057411
    85  H    0.048780
    86  H    0.048861
    87  H    0.046370
    88  H    0.038748
    89  H    0.049597
    90  H    0.043168
    91  H    0.023826
    92  H    0.042032
    93  H    0.047488
    94  H    0.048080
    95  H    0.048086
    96  H    0.050762
    97  H    0.061135
    98  H    0.083655
    99  H    0.051484
   100  H    0.049542
   101  H    0.045896
   102  H    0.040522
   103  H    0.065102
   104  H    0.022657
   105  H    0.050525
   106  H    0.044293
   107  H    0.046835
   108  H    0.028212
   109  H    0.065707
   110  H    0.033324
   111  H    0.030692
   112  H    0.028521
   113  H    0.034621
   114  H    0.041642
   115  H    0.039637
   116  H    0.028510
   117  H    0.024772
   118  H    0.023205
   119  H    0.030025
   120  H    0.023636
   121  H    0.028851
   122  H    0.026757
   123  H    0.031151
   124  H    0.035763
   125  H    0.045071
   126  H    0.040179
   127  H    0.035664
   128  H    0.024414
   129  H    0.026314
   130  H    0.019054
   131  H    0.021428
   132  H    0.029790
   133  H    0.029025
   134  H    0.042818
   135  H    0.036625
   136  H    0.030982
   137  H    0.008641
   138  H    0.038772
   139  H    0.016641
   140  H    0.020216
 Sum of Mulliken charges =  -0.00000

 Dipole moment (field-independent basis, Debye):
    X=             -0.3929    Y=             -3.6051    Z=             -0.7957  Tot=              3.7127
 Quadrupole moment (field-independent basis, Debye-Ang):
   XX=           -366.3324   YY=           -406.9219   ZZ=           -431.4668
   XY=            -25.7001   XZ=            -20.5299   YZ=             34.0144

 Normal termination of Gaussian 16 at Wed Apr 27 07:42:11 2022.
