 Gaussian 16, Revision A.03,
 Gaussian 16:  ES64L-G16RevA.03 25-Dec-2016

 --------------------------------
 #p wB97XD/Def2SVP td=(nstates=5)
 --------------------------------

 -----------------------------------------------------
 step_1101_chromophore_23 TDDFT with wB97XD functional
 -----------------------------------------------------
 Symbolic Z-matrix:
 Charge =  0 Multiplicity = 1

                         Standard orientation:
 ---------------------------------------------------------------------
 Center     Atomic      Atomic             Coordinates (Angstroms)
 Number     Number       Type             X           Y           Z
 ---------------------------------------------------------------------
      1         12           0        4.573415   -0.030520    0.364484
      2          6           0        2.748725    2.651924   -0.904284
      3          6           0        2.807012    0.323852    3.347514
      4          6           0        5.855791   -2.976560    1.364417
      5          6           0        6.091721   -0.435134   -2.767759
      6          7           0        2.817012    1.204071    1.092258
      7          6           0        2.207796    2.246162    0.347506
      8          6           0        1.183895    2.967172    1.211648
      9          6           0        1.453128    2.349366    2.639278
     10          6           0        2.314505    1.153650    2.316143
     11          6           0        2.041570    3.266851    3.661286
     12          6           0       -0.217136    2.581001    0.676359
     13          6           0       -1.198179    3.654951    0.139998
     14          6           0       -2.390307    3.949207    1.188494
     15          8           0       -2.247014    4.128286    2.406355
     16          8           0       -3.621906    3.881609    0.444989
     17          7           0        4.447438   -1.089916    2.120285
     18          6           0        3.713273   -0.770433    3.238996
     19          6           0        3.801651   -1.779897    4.245841
     20          6           0        4.743457   -2.774150    3.679322
     21          6           0        5.082715   -2.325114    2.319103
     22          6           0        2.969320   -1.856061    5.555831
     23          6           0        5.005485   -4.092429    4.449099
     24          8           0        4.701095   -4.198315    5.631280
     25          6           0        5.692592   -5.249749    3.713444
     26          7           0        5.600697   -1.621352   -0.583958
     27          6           0        6.094739   -2.698883    0.004781
     28          6           0        7.013824   -3.500662   -0.882766
     29          6           0        6.993655   -2.688910   -2.188881
     30          6           0        6.205295   -1.472123   -1.839911
     31          6           0        8.413706   -3.589979   -0.329987
     32          6           0        6.404699   -3.344527   -3.391626
     33          6           0        7.443618   -3.832524   -4.445840
     34          7           0        4.560402    0.968009   -1.477507
     35          6           0        5.294444    0.736462   -2.581895
     36          6           0        4.967523    1.745755   -3.570875
     37          6           0        3.991573    2.576756   -2.936732
     38          6           0        3.725731    2.006291   -1.676769
     39          6           0        5.609146    1.984947   -4.902544
     40          6           0        3.090907    3.717192   -3.007200
     41          8           0        2.821461    4.534436   -3.874135
     42          6           0        2.282791    3.799338   -1.706301
     43          6           0        2.546683    5.127879   -1.026568
     44          8           0        3.450068    5.394823   -0.335354
     45          8           0        1.428358    5.947822   -1.274547
     46          6           0        1.115131    7.013364   -0.396991
     47          6           0       -4.831861    3.975426    1.266778
     48          6           0       -5.774093    2.754266    0.994572
     49          6           0       -5.641147    1.448151    1.023787
     50          6           0       -4.398154    0.650010    1.419849
     51          6           0       -6.847445    0.617531    0.494306
     52          6           0       -8.181773    0.847229    1.248638
     53          6           0       -9.344763    1.376305    0.431619
     54          6           0      -10.709194    0.583676    0.678546
     55          6           0      -11.919666    1.518668    0.681672
     56          6           0      -10.852530   -0.594246   -0.414647
     57          6           0      -10.465780   -2.044225    0.152497
     58          6           0       -9.936921   -3.023933   -0.911499
     59          6           0       -8.409591   -3.126647   -0.771142
     60          6           0       -7.660515   -2.310819   -1.871385
     61          6           0       -8.023237   -4.632708   -0.896459
     62          6           0       -6.546972   -4.981355   -0.862137
     63          6           0       -5.953884   -5.546145   -2.179460
     64          6           0       -4.910730   -4.440686   -2.616743
     65          6           0       -4.956180   -4.010073   -4.086438
     66          6           0       -3.514143   -4.878157   -2.221252
     67          1           0        2.445119    0.661683    4.320954
     68          1           0        6.266662   -3.964719    1.582212
     69          1           0        6.633236   -0.541618   -3.710398
     70          1           0        1.374646    4.034621    1.100965
     71          1           0        0.538220    1.901865    3.026932
     72          1           0        1.614727    3.030314    4.635417
     73          1           0        1.730003    4.297850    3.491734
     74          1           0        3.125415    3.153328    3.652463
     75          1           0       -0.789597    2.071578    1.452761
     76          1           0       -0.076964    1.890544   -0.155453
     77          1           0       -1.607706    3.294642   -0.803828
     78          1           0       -0.666864    4.591029   -0.032118
     79          1           0        2.171109   -1.120742    5.658588
     80          1           0        3.670224   -1.739454    6.382229
     81          1           0        2.391359   -2.772579    5.435927
     82          1           0        6.770632   -5.090616    3.736584
     83          1           0        5.312038   -5.260242    2.692609
     84          1           0        5.235965   -6.149329    4.125838
     85          1           0        6.682363   -4.539118   -0.870231
     86          1           0        7.964604   -2.229505   -2.377066
     87          1           0        8.993781   -3.845060   -1.217059
     88          1           0        8.647843   -4.366738    0.398690
     89          1           0        8.730757   -2.687771    0.192853
     90          1           0        5.681853   -2.707098   -3.901824
     91          1           0        5.703065   -4.125728   -3.103004
     92          1           0        8.382075   -4.024659   -3.924270
     93          1           0        7.547339   -3.007071   -5.150116
     94          1           0        7.143140   -4.734900   -4.978185
     95          1           0        5.361127    1.188780   -5.604561
     96          1           0        6.694643    2.073035   -4.857246
     97          1           0        5.239422    2.935419   -5.287609
     98          1           0        1.229597    3.744499   -1.979952
     99          1           0        0.136724    7.403871   -0.676510
    100          1           0        1.714640    7.913833   -0.525214
    101          1           0        1.131798    6.732000    0.655698
    102          1           0       -5.305868    4.919049    0.994500
    103          1           0       -4.623143    4.054820    2.333764
    104          1           0       -6.693674    3.081258    0.509203
    105          1           0       -4.495087    0.103735    2.358067
    106          1           0       -3.564902    1.346721    1.516595
    107          1           0       -4.219995   -0.135029    0.684578
    108          1           0       -6.549241   -0.404460    0.725941
    109          1           0       -6.931330    0.764956   -0.582411
    110          1           0       -7.959373    1.605149    1.999254
    111          1           0       -8.431179   -0.053753    1.810277
    112          1           0       -8.936263    1.326746   -0.578255
    113          1           0       -9.464787    2.404075    0.773632
    114          1           0      -10.682343    0.124262    1.666402
    115          1           0      -12.529889    1.573435    1.583072
    116          1           0      -12.593583    1.221204   -0.121181
    117          1           0      -11.454584    2.489510    0.511712
    118          1           0      -10.229561   -0.371500   -1.280441
    119          1           0      -11.868197   -0.625982   -0.807826
    120          1           0      -11.337922   -2.558869    0.554362
    121          1           0       -9.739800   -2.030328    0.965627
    122          1           0      -10.032859   -2.619020   -1.918478
    123          1           0      -10.518455   -3.936883   -0.779385
    124          1           0       -8.010100   -2.782573    0.183672
    125          1           0       -7.317424   -3.102545   -2.537795
    126          1           0       -6.830633   -1.737973   -1.459710
    127          1           0       -8.272728   -1.560772   -2.372067
    128          1           0       -8.513683   -4.925227   -1.825496
    129          1           0       -8.437925   -5.299548   -0.141283
    130          1           0       -6.345585   -5.710376   -0.078092
    131          1           0       -6.033140   -4.120441   -0.433453
    132          1           0       -6.708064   -5.789343   -2.927842
    133          1           0       -5.421723   -6.483099   -2.014860
    134          1           0       -5.060108   -3.524903   -2.044256
    135          1           0       -4.102317   -4.246121   -4.721074
    136          1           0       -5.296851   -2.978414   -4.181120
    137          1           0       -5.789126   -4.460292   -4.625161
    138          1           0       -3.026658   -5.679827   -2.775748
    139          1           0       -3.445008   -5.083872   -1.153121
    140          1           0       -2.797601   -4.057971   -2.238881
 ---------------------------------------------------------------------

 SCF Done:  E(RwB97XD) =  -3007.85022138     A.U. after   17 cycles

 Excitation energies and oscillator strengths:

 Excited State   1:      Singlet-A      1.7246 eV  718.93 nm  f=0.3624  <S**2>=0.000
     245 -> 248        0.18379
     246 -> 247        0.68266
     245 <- 248        0.11233
 This state for optimization and/or second-order correction.
 Total Energy, E(TD-HF/TD-DFT) =  -3007.78684488
 Copying the excited state density for this state as the 1-particle RhoCI density.

 Excited State   2:      Singlet-A      2.2098 eV  561.06 nm  f=0.1184  <S**2>=0.000
     245 -> 247        0.63828
     246 -> 248       -0.28423

 Excited State   3:      Singlet-A      3.2062 eV  386.71 nm  f=0.0022  <S**2>=0.000
     243 -> 247        0.64963
     244 -> 247       -0.20358

 Excited State   4:      Singlet-A      3.5340 eV  350.83 nm  f=0.0400  <S**2>=0.000
     240 -> 247        0.20728
     240 -> 249       -0.10534
     242 -> 247        0.18213
     242 -> 249        0.15423
     242 -> 250       -0.10710
     243 -> 247        0.14348
     244 -> 247        0.50045
     244 -> 249        0.10537
     246 -> 248        0.24285

 Excited State   5:      Singlet-A      3.5494 eV  349.31 nm  f=0.0104  <S**2>=0.000
     240 -> 247        0.51778
     240 -> 248       -0.14133
     240 -> 249       -0.27408
     240 -> 250       -0.21787
     244 -> 247       -0.17710
     246 -> 248       -0.10212

 The electronic state is 1-A.
 Alpha  occ. eigenvalues --  -46.95016 -19.30643 -19.29316 -19.26901 -19.26058
 Alpha  occ. eigenvalues --  -19.24145 -19.23014 -14.47057 -14.46764 -14.44519
 Alpha  occ. eigenvalues --  -14.43667 -10.44953 -10.43436 -10.39416 -10.38274
 Alpha  occ. eigenvalues --  -10.36074 -10.35895 -10.35584 -10.35144 -10.34994
 Alpha  occ. eigenvalues --  -10.34834 -10.34626 -10.34601 -10.33444 -10.33237
 Alpha  occ. eigenvalues --  -10.32425 -10.32398 -10.32286 -10.32262 -10.32183
 Alpha  occ. eigenvalues --  -10.31976 -10.31670 -10.31512 -10.31491 -10.31413
 Alpha  occ. eigenvalues --  -10.31405 -10.31202 -10.31142 -10.31072 -10.30914
 Alpha  occ. eigenvalues --  -10.30535 -10.30427 -10.30283 -10.30219 -10.30187
 Alpha  occ. eigenvalues --  -10.30111 -10.29941 -10.29851 -10.29815 -10.29521
 Alpha  occ. eigenvalues --  -10.29497 -10.29471 -10.29468 -10.29403 -10.29038
 Alpha  occ. eigenvalues --  -10.28975 -10.28807 -10.28806 -10.28655 -10.28519
 Alpha  occ. eigenvalues --  -10.28331 -10.28287 -10.28182 -10.27938 -10.27881
 Alpha  occ. eigenvalues --  -10.27653  -3.20991  -1.94576  -1.94126  -1.93959
 Alpha  occ. eigenvalues --   -1.19621  -1.16838  -1.12144  -1.12112  -1.11496
 Alpha  occ. eigenvalues --   -1.10369  -1.07007  -1.06110  -1.05498  -1.04164
 Alpha  occ. eigenvalues --   -0.95420  -0.92742  -0.92156  -0.91717  -0.91447
 Alpha  occ. eigenvalues --   -0.91029  -0.89934  -0.89873  -0.89052  -0.88124
 Alpha  occ. eigenvalues --   -0.87485  -0.87291  -0.86258  -0.85867  -0.85496
 Alpha  occ. eigenvalues --   -0.84405  -0.84174  -0.83287  -0.82846  -0.82198
 Alpha  occ. eigenvalues --   -0.81670  -0.80100  -0.79969  -0.79126  -0.78153
 Alpha  occ. eigenvalues --   -0.77749  -0.77376  -0.77305  -0.76840  -0.75808
 Alpha  occ. eigenvalues --   -0.75331  -0.74764  -0.74064  -0.72060  -0.71726
 Alpha  occ. eigenvalues --   -0.70592  -0.70195  -0.69513  -0.68450  -0.68139
 Alpha  occ. eigenvalues --   -0.67589  -0.67156  -0.66660  -0.66565  -0.65781
 Alpha  occ. eigenvalues --   -0.65521  -0.65292  -0.64666  -0.64564  -0.62626
 Alpha  occ. eigenvalues --   -0.61573  -0.61230  -0.61124  -0.60756  -0.60701
 Alpha  occ. eigenvalues --   -0.59565  -0.58702  -0.58330  -0.58084  -0.57940
 Alpha  occ. eigenvalues --   -0.57297  -0.57208  -0.56627  -0.56489  -0.56311
 Alpha  occ. eigenvalues --   -0.56194  -0.55401  -0.55341  -0.55152  -0.54994
 Alpha  occ. eigenvalues --   -0.54977  -0.54529  -0.54282  -0.53784  -0.53616
 Alpha  occ. eigenvalues --   -0.53508  -0.53378  -0.53005  -0.52915  -0.52837
 Alpha  occ. eigenvalues --   -0.52380  -0.52114  -0.51882  -0.51826  -0.51746
 Alpha  occ. eigenvalues --   -0.51430  -0.51158  -0.50979  -0.50761  -0.50626
 Alpha  occ. eigenvalues --   -0.50437  -0.50273  -0.50042  -0.49874  -0.49748
 Alpha  occ. eigenvalues --   -0.49551  -0.49298  -0.49153  -0.48888  -0.48680
 Alpha  occ. eigenvalues --   -0.48571  -0.48452  -0.47991  -0.47672  -0.47660
 Alpha  occ. eigenvalues --   -0.47615  -0.47328  -0.47323  -0.47228  -0.47035
 Alpha  occ. eigenvalues --   -0.46802  -0.46635  -0.46579  -0.46130  -0.45865
 Alpha  occ. eigenvalues --   -0.45779  -0.45719  -0.45454  -0.45360  -0.45169
 Alpha  occ. eigenvalues --   -0.44718  -0.44654  -0.44626  -0.44248  -0.44183
 Alpha  occ. eigenvalues --   -0.43994  -0.43705  -0.43628  -0.43361  -0.43197
 Alpha  occ. eigenvalues --   -0.43143  -0.42882  -0.42413  -0.42287  -0.42081
 Alpha  occ. eigenvalues --   -0.41775  -0.41667  -0.41324  -0.41115  -0.41003
 Alpha  occ. eigenvalues --   -0.40609  -0.40117  -0.39727  -0.39596  -0.39564
 Alpha  occ. eigenvalues --   -0.39238  -0.39172  -0.39087  -0.38809  -0.38411
 Alpha  occ. eigenvalues --   -0.38209  -0.37228  -0.37058  -0.36846  -0.36393
 Alpha  occ. eigenvalues --   -0.36093  -0.35709  -0.35345  -0.33386  -0.32968
 Alpha  occ. eigenvalues --   -0.32878  -0.32233  -0.32058  -0.31532  -0.26143
 Alpha  occ. eigenvalues --   -0.23393
 Alpha virt. eigenvalues --   -0.07172  -0.00076   0.02523   0.04537   0.05470
 Alpha virt. eigenvalues --    0.05878   0.07334   0.07526   0.08151   0.09319
 Alpha virt. eigenvalues --    0.09954   0.10963   0.11214   0.11743   0.12180

 Mulliken charges:
               1
     1  Mg   0.970006
     2  C    0.010048
     3  C   -0.119182
     4  C   -0.105273
     5  C   -0.095341
     6  N   -0.326062
     7  C    0.006111
     8  C   -0.105796
     9  C   -0.072223
    10  C    0.032482
    11  C    0.045509
    12  C    0.025519
    13  C   -0.006057
    14  C    0.234483
    15  O   -0.263372
    16  O   -0.385562
    17  N   -0.490537
    18  C    0.215976
    19  C   -0.188807
    20  C   -0.108708
    21  C    0.248970
    22  C    0.108958
    23  C    0.031230
    24  O   -0.234179
    25  C   -0.005283
    26  N   -0.373624
    27  C    0.028492
    28  C   -0.058890
    29  C   -0.042792
    30  C    0.048952
    31  C   -0.000935
    32  C   -0.001406
    33  C   -0.042575
    34  N   -0.419225
    35  C    0.126218
    36  C   -0.209198
    37  C   -0.003748
    38  C    0.094040
    39  C    0.065994
    40  C    0.088127
    41  O   -0.210258
    42  C   -0.097034
    43  C    0.257741
    44  O   -0.170283
    45  O   -0.383229
    46  C    0.138225
    47  C    0.256555
    48  C   -0.145374
    49  C   -0.211001
    50  C    0.046885
    51  C    0.007121
    52  C   -0.044786
    53  C    0.024582
    54  C   -0.202074
    55  C    0.017771
    56  C    0.026194
    57  C   -0.036897
    58  C    0.030002
    59  C   -0.216845
    60  C    0.010915
    61  C   -0.012613
    62  C   -0.028437
    63  C    0.033014
    64  C   -0.206929
    65  C    0.008910
    66  C   -0.010651
    67  H    0.013106
    68  H   -0.025829
    69  H    0.005386
    70  H    0.039933
    71  H    0.033737
    72  H    0.039428
    73  H    0.045824
    74  H    0.052656
    75  H    0.036515
    76  H    0.046128
    77  H    0.061892
    78  H    0.058527
    79  H    0.017671
    80  H    0.076006
    81  H    0.060845
    82  H    0.081400
    83  H    0.042643
    84  H    0.056525
    85  H    0.041331
    86  H    0.036743
    87  H    0.039542
    88  H    0.033762
    89  H    0.043949
    90  H    0.034637
    91  H    0.015770
    92  H    0.033107
    93  H    0.041125
    94  H    0.043014
    95  H    0.041184
    96  H    0.043918
    97  H    0.056426
    98  H    0.075359
    99  H    0.048020
   100  H    0.046046
   101  H    0.041604
   102  H    0.037367
   103  H    0.060220
   104  H    0.015937
   105  H    0.045116
   106  H    0.030689
   107  H    0.041128
   108  H    0.015755
   109  H    0.056332
   110  H    0.023103
   111  H    0.020963
   112  H    0.016744
   113  H    0.025591
   114  H    0.029662
   115  H    0.034984
   116  H    0.021791
   117  H    0.017386
   118  H    0.008903
   119  H    0.022099
   120  H    0.016789
   121  H    0.015008
   122  H    0.015543
   123  H    0.024925
   124  H    0.018955
   125  H    0.026445
   126  H    0.029847
   127  H    0.029197
   128  H    0.011943
   129  H    0.018815
   130  H    0.012184
   131  H    0.008622
   132  H    0.021844
   133  H    0.021809
   134  H    0.025881
   135  H    0.032583
   136  H    0.025351
   137  H    0.001990
   138  H    0.033225
   139  H    0.009314
   140  H    0.014183
 Sum of Mulliken charges =  -0.00000

 Dipole moment (field-independent basis, Debye):
    X=             -0.4171    Y=             -4.0348    Z=              0.0072  Tot=              4.0563
 Quadrupole moment (field-independent basis, Debye-Ang):
   XX=           -366.6291   YY=           -406.0243   ZZ=           -430.7229
   XY=            -27.7613   XZ=            -16.6945   YZ=             33.4117

 Normal termination of Gaussian 16 at Wed Apr 27 08:14:02 2022.
