 Gaussian 16, Revision A.03,
 Gaussian 16:  ES64L-G16RevA.03 25-Dec-2016

 --------------------
 #p ZINDO=(nstates=5)
 --------------------

 ------------------------------
 step_1101_chromophore_23 ZINDO
 ------------------------------
 Symbolic Z-matrix:
 Charge =  0 Multiplicity = 1

                         Standard orientation:
 ---------------------------------------------------------------------
 Center     Atomic      Atomic             Coordinates (Angstroms)
 Number     Number       Type             X           Y           Z
 ---------------------------------------------------------------------
      1         12           0        4.573415   -0.030520    0.364484
      2          6           0        2.748725    2.651924   -0.904284
      3          6           0        2.807012    0.323852    3.347514
      4          6           0        5.855791   -2.976560    1.364417
      5          6           0        6.091721   -0.435134   -2.767759
      6          7           0        2.817012    1.204071    1.092258
      7          6           0        2.207796    2.246162    0.347506
      8          6           0        1.183895    2.967172    1.211648
      9          6           0        1.453128    2.349366    2.639278
     10          6           0        2.314505    1.153650    2.316143
     11          6           0        2.041570    3.266851    3.661286
     12          6           0       -0.217136    2.581001    0.676359
     13          6           0       -1.198179    3.654951    0.139998
     14          6           0       -2.390307    3.949207    1.188494
     15          8           0       -2.247014    4.128286    2.406355
     16          8           0       -3.621906    3.881609    0.444989
     17          7           0        4.447438   -1.089916    2.120285
     18          6           0        3.713273   -0.770433    3.238996
     19          6           0        3.801651   -1.779897    4.245841
     20          6           0        4.743457   -2.774150    3.679322
     21          6           0        5.082715   -2.325114    2.319103
     22          6           0        2.969320   -1.856061    5.555831
     23          6           0        5.005485   -4.092429    4.449099
     24          8           0        4.701095   -4.198315    5.631280
     25          6           0        5.692592   -5.249749    3.713444
     26          7           0        5.600697   -1.621352   -0.583958
     27          6           0        6.094739   -2.698883    0.004781
     28          6           0        7.013824   -3.500662   -0.882766
     29          6           0        6.993655   -2.688910   -2.188881
     30          6           0        6.205295   -1.472123   -1.839911
     31          6           0        8.413706   -3.589979   -0.329987
     32          6           0        6.404699   -3.344527   -3.391626
     33          6           0        7.443618   -3.832524   -4.445840
     34          7           0        4.560402    0.968009   -1.477507
     35          6           0        5.294444    0.736462   -2.581895
     36          6           0        4.967523    1.745755   -3.570875
     37          6           0        3.991573    2.576756   -2.936732
     38          6           0        3.725731    2.006291   -1.676769
     39          6           0        5.609146    1.984947   -4.902544
     40          6           0        3.090907    3.717192   -3.007200
     41          8           0        2.821461    4.534436   -3.874135
     42          6           0        2.282791    3.799338   -1.706301
     43          6           0        2.546683    5.127879   -1.026568
     44          8           0        3.450068    5.394823   -0.335354
     45          8           0        1.428358    5.947822   -1.274547
     46          6           0        1.115131    7.013364   -0.396991
     47          6           0       -4.831861    3.975426    1.266778
     48          6           0       -5.774093    2.754266    0.994572
     49          6           0       -5.641147    1.448151    1.023787
     50          6           0       -4.398154    0.650010    1.419849
     51          6           0       -6.847445    0.617531    0.494306
     52          6           0       -8.181773    0.847229    1.248638
     53          6           0       -9.344763    1.376305    0.431619
     54          6           0      -10.709194    0.583676    0.678546
     55          6           0      -11.919666    1.518668    0.681672
     56          6           0      -10.852530   -0.594246   -0.414647
     57          6           0      -10.465780   -2.044225    0.152497
     58          6           0       -9.936921   -3.023933   -0.911499
     59          6           0       -8.409591   -3.126647   -0.771142
     60          6           0       -7.660515   -2.310819   -1.871385
     61          6           0       -8.023237   -4.632708   -0.896459
     62          6           0       -6.546972   -4.981355   -0.862137
     63          6           0       -5.953884   -5.546145   -2.179460
     64          6           0       -4.910730   -4.440686   -2.616743
     65          6           0       -4.956180   -4.010073   -4.086438
     66          6           0       -3.514143   -4.878157   -2.221252
     67          1           0        2.445119    0.661683    4.320954
     68          1           0        6.266662   -3.964719    1.582212
     69          1           0        6.633236   -0.541618   -3.710398
     70          1           0        1.374646    4.034621    1.100965
     71          1           0        0.538220    1.901865    3.026932
     72          1           0        1.614727    3.030314    4.635417
     73          1           0        1.730003    4.297850    3.491734
     74          1           0        3.125415    3.153328    3.652463
     75          1           0       -0.789597    2.071578    1.452761
     76          1           0       -0.076964    1.890544   -0.155453
     77          1           0       -1.607706    3.294642   -0.803828
     78          1           0       -0.666864    4.591029   -0.032118
     79          1           0        2.171109   -1.120742    5.658588
     80          1           0        3.670224   -1.739454    6.382229
     81          1           0        2.391359   -2.772579    5.435927
     82          1           0        6.770632   -5.090616    3.736584
     83          1           0        5.312038   -5.260242    2.692609
     84          1           0        5.235965   -6.149329    4.125838
     85          1           0        6.682363   -4.539118   -0.870231
     86          1           0        7.964604   -2.229505   -2.377066
     87          1           0        8.993781   -3.845060   -1.217059
     88          1           0        8.647843   -4.366738    0.398690
     89          1           0        8.730757   -2.687771    0.192853
     90          1           0        5.681853   -2.707098   -3.901824
     91          1           0        5.703065   -4.125728   -3.103004
     92          1           0        8.382075   -4.024659   -3.924270
     93          1           0        7.547339   -3.007071   -5.150116
     94          1           0        7.143140   -4.734900   -4.978185
     95          1           0        5.361127    1.188780   -5.604561
     96          1           0        6.694643    2.073035   -4.857246
     97          1           0        5.239422    2.935419   -5.287609
     98          1           0        1.229597    3.744499   -1.979952
     99          1           0        0.136724    7.403871   -0.676510
    100          1           0        1.714640    7.913833   -0.525214
    101          1           0        1.131798    6.732000    0.655698
    102          1           0       -5.305868    4.919049    0.994500
    103          1           0       -4.623143    4.054820    2.333764
    104          1           0       -6.693674    3.081258    0.509203
    105          1           0       -4.495087    0.103735    2.358067
    106          1           0       -3.564902    1.346721    1.516595
    107          1           0       -4.219995   -0.135029    0.684578
    108          1           0       -6.549241   -0.404460    0.725941
    109          1           0       -6.931330    0.764956   -0.582411
    110          1           0       -7.959373    1.605149    1.999254
    111          1           0       -8.431179   -0.053753    1.810277
    112          1           0       -8.936263    1.326746   -0.578255
    113          1           0       -9.464787    2.404075    0.773632
    114          1           0      -10.682343    0.124262    1.666402
    115          1           0      -12.529889    1.573435    1.583072
    116          1           0      -12.593583    1.221204   -0.121181
    117          1           0      -11.454584    2.489510    0.511712
    118          1           0      -10.229561   -0.371500   -1.280441
    119          1           0      -11.868197   -0.625982   -0.807826
    120          1           0      -11.337922   -2.558869    0.554362
    121          1           0       -9.739800   -2.030328    0.965627
    122          1           0      -10.032859   -2.619020   -1.918478
    123          1           0      -10.518455   -3.936883   -0.779385
    124          1           0       -8.010100   -2.782573    0.183672
    125          1           0       -7.317424   -3.102545   -2.537795
    126          1           0       -6.830633   -1.737973   -1.459710
    127          1           0       -8.272728   -1.560772   -2.372067
    128          1           0       -8.513683   -4.925227   -1.825496
    129          1           0       -8.437925   -5.299548   -0.141283
    130          1           0       -6.345585   -5.710376   -0.078092
    131          1           0       -6.033140   -4.120441   -0.433453
    132          1           0       -6.708064   -5.789343   -2.927842
    133          1           0       -5.421723   -6.483099   -2.014860
    134          1           0       -5.060108   -3.524903   -2.044256
    135          1           0       -4.102317   -4.246121   -4.721074
    136          1           0       -5.296851   -2.978414   -4.181120
    137          1           0       -5.789126   -4.460292   -4.625161
    138          1           0       -3.026658   -5.679827   -2.775748
    139          1           0       -3.445008   -5.083872   -1.153121
    140          1           0       -2.797601   -4.057971   -2.238881
 ---------------------------------------------------------------------

 SCF Done:  E(RZINDO/S) =  -474.321235571     A.U. after   19 cycles

 Excitation energies and oscillator strengths:

 Excited State   1:      Singlet-A      1.3158 eV  942.29 nm  f=0.5170  <S**2>=0.000
     175 ->178         0.16528
     176 ->177         0.67017
 This state for optimization and/or second-order correction.
 Total Energy, E(CIS/TDA) =  -474.272881933
 Copying the excited state density for this state as the 1-particle RhoCI density.

 Excited State   2:      Singlet-A      1.9186 eV  646.22 nm  f=0.0577  <S**2>=0.000
     175 ->177         0.55454
     176 ->178        -0.40319

 Excited State   3:      Singlet-A      2.9911 eV  414.51 nm  f=1.0121  <S**2>=0.000
     175 ->177         0.35372
     176 ->178         0.49133
     176 ->179        -0.24911
     176 ->181         0.12796

 Excited State   4:      Singlet-A      3.0074 eV  412.27 nm  f=0.0355  <S**2>=0.000
     170 ->177         0.27151
     170 ->178        -0.13875
     170 ->179         0.33364
     170 ->181        -0.33762
     170 ->182         0.12197
     170 ->185         0.18322
     170 ->187         0.17755
     170 ->188        -0.13957
     170 ->203        -0.13396
     176 ->178         0.10645

 Excited State   5:      Singlet-A      3.0741 eV  403.32 nm  f=0.0026  <S**2>=0.000
     167 ->177         0.10112
     167 ->179        -0.14409
     167 ->181        -0.10657
     167 ->185        -0.10166
     168 ->177        -0.30568
     168 ->178         0.15833
     168 ->179         0.36554
     168 ->181         0.26509
     168 ->185         0.25132

 The electronic state is 1-A.
 Alpha  occ. eigenvalues --   -1.85187  -1.83360  -1.80593  -1.72730  -1.71988
 Alpha  occ. eigenvalues --   -1.68157  -1.66591  -1.60702  -1.59624  -1.58554
 Alpha  occ. eigenvalues --   -1.54587  -1.50720  -1.50305  -1.49478  -1.47712
 Alpha  occ. eigenvalues --   -1.45380  -1.43177  -1.41372  -1.39136  -1.38363
 Alpha  occ. eigenvalues --   -1.36830  -1.32541  -1.32053  -1.30583  -1.29042
 Alpha  occ. eigenvalues --   -1.27539  -1.26418  -1.23642  -1.21233  -1.18294
 Alpha  occ. eigenvalues --   -1.16922  -1.16697  -1.15069  -1.14797  -1.13447
 Alpha  occ. eigenvalues --   -1.12397  -1.10141  -1.09233  -1.05609  -1.04213
 Alpha  occ. eigenvalues --   -1.02102  -1.01785  -0.98736  -0.98107  -0.96783
 Alpha  occ. eigenvalues --   -0.96269  -0.94607  -0.94208  -0.93543  -0.92759
 Alpha  occ. eigenvalues --   -0.91396  -0.90969  -0.88815  -0.88638  -0.88175
 Alpha  occ. eigenvalues --   -0.86183  -0.84472  -0.83048  -0.82476  -0.80250
 Alpha  occ. eigenvalues --   -0.79635  -0.78952  -0.78016  -0.76806  -0.76632
 Alpha  occ. eigenvalues --   -0.76225  -0.75719  -0.75286  -0.74569  -0.73386
 Alpha  occ. eigenvalues --   -0.72990  -0.72591  -0.72065  -0.71760  -0.71028
 Alpha  occ. eigenvalues --   -0.70187  -0.69283  -0.68758  -0.68520  -0.68433
 Alpha  occ. eigenvalues --   -0.68138  -0.67570  -0.67118  -0.66808  -0.66014
 Alpha  occ. eigenvalues --   -0.65377  -0.65191  -0.64385  -0.63907  -0.63584
 Alpha  occ. eigenvalues --   -0.63385  -0.62551  -0.62305  -0.62013  -0.61701
 Alpha  occ. eigenvalues --   -0.61538  -0.61379  -0.61054  -0.60481  -0.59744
 Alpha  occ. eigenvalues --   -0.59643  -0.58858  -0.58330  -0.58214  -0.58047
 Alpha  occ. eigenvalues --   -0.57715  -0.57311  -0.57144  -0.56864  -0.56602
 Alpha  occ. eigenvalues --   -0.55791  -0.55630  -0.55546  -0.55006  -0.54797
 Alpha  occ. eigenvalues --   -0.54694  -0.54512  -0.53494  -0.53341  -0.52919
 Alpha  occ. eigenvalues --   -0.52661  -0.52585  -0.52135  -0.51675  -0.51517
 Alpha  occ. eigenvalues --   -0.51290  -0.51114  -0.50960  -0.50807  -0.50514
 Alpha  occ. eigenvalues --   -0.50361  -0.50045  -0.49498  -0.49222  -0.48795
 Alpha  occ. eigenvalues --   -0.48684  -0.48350  -0.48111  -0.47832  -0.47614
 Alpha  occ. eigenvalues --   -0.47368  -0.47080  -0.46924  -0.46650  -0.46555
 Alpha  occ. eigenvalues --   -0.46301  -0.45939  -0.45900  -0.45569  -0.45376
 Alpha  occ. eigenvalues --   -0.45285  -0.45087  -0.44896  -0.44651  -0.44439
 Alpha  occ. eigenvalues --   -0.44087  -0.43288  -0.42546  -0.42078  -0.41759
 Alpha  occ. eigenvalues --   -0.41600  -0.41451  -0.41046  -0.40090  -0.38794
 Alpha  occ. eigenvalues --   -0.38354  -0.37052  -0.36080  -0.34982  -0.34030
 Alpha  occ. eigenvalues --   -0.33585  -0.33267  -0.32175  -0.31425  -0.26718
 Alpha  occ. eigenvalues --   -0.22127
 Alpha virt. eigenvalues --   -0.08479  -0.02279  -0.00524   0.00743   0.01464
 Alpha virt. eigenvalues --    0.02054   0.02666   0.03475   0.04453   0.04929
 Alpha virt. eigenvalues --    0.05840   0.06280   0.07455   0.07771   0.07827

 Mulliken charges:
               1
     1  Mg   0.422771
     2  C   -0.014939
     3  C   -0.079052
     4  C   -0.107227
     5  C   -0.075438
     6  N   -0.272890
     7  C    0.063798
     8  C    0.009890
     9  C    0.015437
    10  C    0.169071
    11  C   -0.040401
    12  C   -0.025284
    13  C    0.002373
    14  C    0.453880
    15  O   -0.502880
    16  O   -0.272683
    17  N   -0.344947
    18  C    0.139728
    19  C    0.052628
    20  C   -0.071098
    21  C    0.163970
    22  C   -0.030798
    23  C    0.323525
    24  O   -0.518461
    25  C   -0.035198
    26  N   -0.278474
    27  C    0.186953
    28  C    0.015821
    29  C    0.014906
    30  C    0.088099
    31  C   -0.050192
    32  C   -0.026431
    33  C   -0.059839
    34  N   -0.304807
    35  C    0.077263
    36  C   -0.007324
    37  C   -0.065582
    38  C    0.085109
    39  C   -0.037849
    40  C    0.335540
    41  O   -0.537193
    42  C    0.057995
    43  C    0.496960
    44  O   -0.488306
    45  O   -0.288328
    46  C    0.079402
    47  C    0.100907
    48  C   -0.083784
    49  C    0.004462
    50  C   -0.041143
    51  C   -0.028898
    52  C   -0.036238
    53  C   -0.037838
    54  C   -0.015078
    55  C   -0.063221
    56  C   -0.040559
    57  C   -0.045826
    58  C   -0.036689
    59  C   -0.011636
    60  C   -0.065818
    61  C   -0.037760
    62  C   -0.035264
    63  C   -0.029141
    64  C   -0.003605
    65  C   -0.063430
    66  C   -0.055253
    67  H    0.034355
    68  H    0.018400
    69  H    0.031045
    70  H    0.043628
    71  H    0.029479
    72  H    0.018874
    73  H    0.024831
    74  H    0.030979
    75  H    0.028134
    76  H    0.022686
    77  H    0.040134
    78  H    0.047718
    79  H    0.019501
    80  H    0.053367
    81  H    0.045173
    82  H    0.056161
    83  H    0.024471
    84  H    0.043534
    85  H    0.037035
    86  H    0.033639
    87  H    0.018174
    88  H    0.014345
    89  H    0.026543
    90  H    0.020821
    91  H    0.013879
    92  H    0.018530
    93  H    0.023817
    94  H    0.022348
    95  H    0.025728
    96  H    0.025358
    97  H    0.027809
    98  H    0.053308
    99  H    0.026006
   100  H    0.040518
   101  H    0.038421
   102  H    0.035872
   103  H    0.054445
   104  H    0.018032
   105  H    0.029142
   106  H    0.025609
   107  H    0.026317
   108  H    0.011895
   109  H    0.035288
   110  H    0.014349
   111  H    0.018807
   112  H    0.030024
   113  H    0.021002
   114  H    0.023652
   115  H    0.021881
   116  H    0.019556
   117  H    0.020659
   118  H    0.021652
   119  H    0.021269
   120  H    0.012042
   121  H    0.024788
   122  H    0.023199
   123  H    0.024850
   124  H    0.021390
   125  H    0.029224
   126  H    0.016417
   127  H    0.020326
   128  H    0.013610
   129  H    0.012030
   130  H    0.005490
   131  H    0.020065
   132  H    0.026270
   133  H    0.018960
   134  H    0.024907
   135  H    0.026442
   136  H    0.016955
   137  H    0.006123
   138  H    0.023860
   139  H    0.007684
   140  H    0.003478
 Sum of Mulliken charges =  -0.00000

 Dipole moment (field-independent basis, Debye):
    X=             -0.8465    Y=             -6.8284    Z=              0.7070  Tot=              6.9169
 N-N= 4.487505333524D+03 E-N= 0.000000000000D+00  KE=-9.648941014027D+03
 Leave Link  601 at Wed Apr 27 08:29:59 2022, MaxMem=  6710886400 cpu:               0.7 elap:               0.0
 (Enter /sw/apps/gaussian-16.0/g16/l9999.exe)
 1\1\GINC-BP1-COMPUTE175\SP\RZINDO CIS\STO-3G\C55H74Mg1N4O6\OF15641\27-
 Apr-2022\0\\#p ZINDO=(nstates=5)\\step_1101_chromophore_23 ZINDO\\0,1\
 Mg,0,-10.071,40.655,42.977\C,0,-8.641,37.593,42.132\C,0,-7.44,42.217,4
 1.309\C,0,-11.755,43.557,43.234\C,0,-12.786,38.956,44.399\N,0,-8.337,3
 9.998,41.673\C,0,-7.972,38.646,41.448\C,0,-6.664,38.587,40.673\C,0,-6.
 197,40.095,40.685\C,0,-7.443,40.815,41.138\C,0,-4.982,40.409,41.496\C,
 0,-7.004,38.105,39.241\C,0,-6.398,36.799,38.666\C,0,-5.233,37.106,37.5

 Normal termination of Gaussian 16 at Wed Apr 27 08:29:59 2022.
