 Gaussian 16, Revision A.03,
 Gaussian 16:  ES64L-G16RevA.03 25-Dec-2016

 ------------------------------
 #p blyp/Def2SVP td=(nstates=5)
 ------------------------------

 -------------------------------------------------
 step_51_chromophore_27 TDDFT with blyp functional
 -------------------------------------------------
 Symbolic Z-matrix:
 Charge =  0 Multiplicity = 1

                         Standard orientation:
 ---------------------------------------------------------------------
 Center     Atomic      Atomic             Coordinates (Angstroms)
 Number     Number       Type             X           Y           Z
 ---------------------------------------------------------------------
      1         12           0       -4.444807    0.856990   -0.165651
      2          6           0       -4.023991   -2.534801    0.186447
      3          6           0       -1.035505    1.328615    0.392083
      4          6           0       -5.022357    4.064377    0.052964
      5          6           0       -7.947077    0.210509    0.151856
      6          7           0       -2.794013   -0.473134    0.247912
      7          6           0       -2.848324   -1.824589    0.152731
      8          6           0       -1.379131   -2.472647   -0.030387
      9          6           0       -0.458788   -1.198870    0.327808
     10          6           0       -1.478537   -0.028544    0.261275
     11          6           0        0.351813   -1.309019    1.717558
     12          6           0       -1.065991   -2.903120   -1.446879
     13          6           0       -0.043464   -4.006521   -1.643236
     14          6           0        1.385405   -3.895091   -0.997620
     15          8           0        1.697368   -4.103802    0.198487
     16          8           0        2.293578   -3.550023   -2.017504
     17          7           0       -3.161026    2.458093    0.119998
     18          6           0       -1.816944    2.502491    0.379351
     19          6           0       -1.350611    3.802326    0.536749
     20          6           0       -2.504921    4.649906    0.417807
     21          6           0       -3.642908    3.695715    0.189555
     22          6           0        0.088504    4.215187    0.928453
     23          6           0       -2.595692    6.129110    0.393385
     24          8           0       -3.656359    6.700728    0.103733
     25          6           0       -1.438094    6.890852    0.709303
     26          7           0       -6.228650    2.011188    0.188791
     27          6           0       -6.169369    3.333664   -0.074765
     28          6           0       -7.526983    3.948227   -0.431997
     29          6           0       -8.481282    2.722672   -0.286267
     30          6           0       -7.511464    1.580270    0.140554
     31          6           0       -8.037888    5.255918    0.311000
     32          6           0       -9.358930    2.360694   -1.549047
     33          6           0      -10.971874    2.438207   -1.319904
     34          7           0       -5.774357   -0.823101   -0.112055
     35          6           0       -7.199966   -0.968092    0.052104
     36          6           0       -7.626967   -2.334216   -0.014674
     37          6           0       -6.363308   -3.029446    0.063022
     38          6           0       -5.307008   -2.048731    0.020493
     39          6           0       -9.017638   -2.830880   -0.087192
     40          6           0       -5.669182   -4.302860    0.099246
     41          8           0       -6.078121   -5.456272    0.092059
     42          6           0       -4.177746   -4.056254    0.214928
     43          6           0       -3.727087   -4.734299    1.431804
     44          8           0       -4.012777   -4.358474    2.597064
     45          8           0       -2.847560   -5.758992    1.079671
     46          6           0       -2.114049   -6.566506    2.080959
     47          6           0        3.751913   -3.698434   -1.776456
     48          6           0        4.258384   -2.246901   -1.754800
     49          6           0        5.585883   -1.893648   -1.873512
     50          6           0        6.728638   -2.902792   -1.860934
     51          6           0        6.041411   -0.487462   -1.812685
     52          6           0        6.456006    0.266669   -3.104472
     53          6           0        7.920453    0.040085   -3.555394
     54          6           0        8.613364    1.411821   -4.020550
     55          6           0        9.090097    1.377013   -5.491609
     56          6           0        9.718888    1.802229   -3.047731
     57          6           0        9.175089    2.360638   -1.682070
     58          6           0       10.164643    2.104199   -0.576398
     59          6           0        9.639127    0.961112    0.444397
     60          6           0        9.852913   -0.474226   -0.126580
     61          6           0       10.376341    1.088448    1.756582
     62          6           0        9.593595    1.980727    2.707220
     63          6           0        8.677721    1.095540    3.601564
     64          6           0        9.336081    0.492396    4.850928
     65          6           0        8.829518   -0.881977    5.148758
     66          6           0        9.209888    1.345099    6.070944
     67          1           0        0.047296    1.456468    0.458889
     68          1           0       -5.200936    5.138124   -0.038112
     69          1           0       -9.002349   -0.050339    0.059582
     70          1           0       -1.104451   -3.279068    0.650711
     71          1           0        0.239003   -1.026283   -0.491293
     72          1           0        0.131625   -2.276868    2.169074
     73          1           0        0.152343   -0.524504    2.446970
     74          1           0        1.415715   -1.142074    1.555005
     75          1           0       -0.697185   -2.077698   -2.055875
     76          1           0       -1.962005   -3.306671   -1.917831
     77          1           0        0.126211   -4.137287   -2.712261
     78          1           0       -0.490874   -4.915818   -1.242303
     79          1           0        0.130462    4.840760    1.820603
     80          1           0        0.579279    4.735848    0.106294
     81          1           0        0.666290    3.303186    1.082252
     82          1           0       -1.137808    6.812623    1.753542
     83          1           0       -1.911134    7.872500    0.670272
     84          1           0       -0.676184    6.861597   -0.069119
     85          1           0       -7.506275    4.246668   -1.480530
     86          1           0       -9.138288    2.767002    0.582781
     87          1           0       -7.171977    5.607841    0.872360
     88          1           0       -8.856272    5.015052    0.988240
     89          1           0       -8.461080    5.964391   -0.400719
     90          1           0       -9.105350    1.369524   -1.924307
     91          1           0       -9.092055    3.073474   -2.328780
     92          1           0      -11.501611    2.966564   -2.112415
     93          1           0      -11.205014    2.915075   -0.368039
     94          1           0      -11.280014    1.394359   -1.385462
     95          1           0       -9.636601   -2.331939   -0.832434
     96          1           0       -9.496009   -2.911646    0.888761
     97          1           0       -8.979607   -3.875270   -0.396872
     98          1           0       -3.818060   -4.648391   -0.626533
     99          1           0       -2.637171   -7.519120    1.999503
    100          1           0       -2.150066   -6.158026    3.091361
    101          1           0       -1.093557   -6.782783    1.763756
    102          1           0        4.141128   -4.280767   -2.610849
    103          1           0        3.957950   -4.169062   -0.814266
    104          1           0        3.483951   -1.479950   -1.780458
    105          1           0        7.421007   -2.806459   -2.696913
    106          1           0        6.318369   -3.912266   -1.902342
    107          1           0        7.336205   -2.755696   -0.966884
    108          1           0        6.791886   -0.247009   -1.058849
    109          1           0        5.131051    0.003432   -1.468934
    110          1           0        6.377477    1.337439   -2.914165
    111          1           0        5.844518   -0.211404   -3.868980
    112          1           0        8.023311   -0.805234   -4.235023
    113          1           0        8.458375   -0.273305   -2.661191
    114          1           0        7.919558    2.250800   -3.971361
    115          1           0        8.194659    1.335233   -6.112067
    116          1           0        9.488484    0.367713   -5.594268
    117          1           0        9.828520    2.144138   -5.725218
    118          1           0       10.241620    2.630869   -3.526388
    119          1           0       10.326915    0.908112   -2.910384
    120          1           0        8.205807    1.908471   -1.470804
    121          1           0        9.161038    3.440501   -1.830050
    122          1           0       10.360423    3.060972   -0.091865
    123          1           0       11.114654    1.796044   -1.013438
    124          1           0        8.573329    1.165273    0.535320
    125          1           0       10.224148   -0.411114   -1.149979
    126          1           0        9.005946   -1.160567   -0.114930
    127          1           0       10.517201   -1.019473    0.543202
    128          1           0       11.375989    1.501757    1.620342
    129          1           0       10.511171    0.153190    2.301813
    130          1           0        9.003481    2.722686    2.169890
    131          1           0       10.342358    2.575606    3.231833
    132          1           0        8.122374    0.387215    2.987671
    133          1           0        8.031795    1.902277    3.947330
    134          1           0       10.417957    0.493411    4.722051
    135          1           0        9.527366   -1.686566    4.918268
    136          1           0        7.842738   -1.096163    4.737602
    137          1           0        8.626900   -1.019040    6.210360
    138          1           0        8.276991    1.358125    6.633344
    139          1           0        9.532799    2.349807    5.799018
    140          1           0       10.043647    0.934479    6.641684
 ---------------------------------------------------------------------

 SCF Done:  E(RB-LYP) =  -3007.37400071     A.U. after   22 cycles

 Excitation energies and oscillator strengths:

 Excited State   1:      Singlet-A      1.7789 eV  696.98 nm  f=0.2714  <S**2>=0.000
     245 -> 248        0.18291
     246 -> 247        0.68231
     246 <- 247       -0.15055
 This state for optimization and/or second-order correction.
 Total Energy, E(TD-HF/TD-DFT) =  -3007.30862803
 Copying the excited state density for this state as the 1-particle RhoCI density.

 Excited State   2:      Singlet-A      1.8065 eV  686.34 nm  f=0.0021  <S**2>=0.000
     244 -> 247        0.68647
     245 -> 247        0.16251

 Excited State   3:      Singlet-A      1.9254 eV  643.95 nm  f=0.0053  <S**2>=0.000
     243 -> 247        0.68728
     245 -> 247       -0.14534

 Excited State   4:      Singlet-A      1.9912 eV  622.66 nm  f=0.1127  <S**2>=0.000
     243 -> 247        0.16278
     244 -> 247       -0.14895
     245 -> 247        0.60765
     246 -> 247       -0.10147
     246 -> 248       -0.22332

 Excited State   5:      Singlet-A      2.4212 eV  512.07 nm  f=0.0000  <S**2>=0.000
     241 -> 247        0.70666

 The electronic state is 1-A.
 Alpha  occ. eigenvalues --  -46.27733 -18.82444 -18.81661 -18.78032 -18.75889
 Alpha  occ. eigenvalues --  -18.74949 -18.74699 -14.03574 -14.03040 -14.01055
 Alpha  occ. eigenvalues --  -14.00433 -10.05300 -10.03543  -9.98890  -9.98836
 Alpha  occ. eigenvalues --   -9.98646  -9.97545  -9.96865  -9.96804  -9.96745
 Alpha  occ. eigenvalues --   -9.95839  -9.95706  -9.95463  -9.94971  -9.94333
 Alpha  occ. eigenvalues --   -9.94287  -9.94178  -9.94136  -9.94131  -9.93888
 Alpha  occ. eigenvalues --   -9.93789  -9.93481  -9.93478  -9.93467  -9.93380
 Alpha  occ. eigenvalues --   -9.93206  -9.93015  -9.92955  -9.92867  -9.92813
 Alpha  occ. eigenvalues --   -9.92783  -9.92688  -9.92617  -9.92441  -9.92388
 Alpha  occ. eigenvalues --   -9.92243  -9.92058  -9.91967  -9.91921  -9.91807
 Alpha  occ. eigenvalues --   -9.91775  -9.91609  -9.91589  -9.91573  -9.91380
 Alpha  occ. eigenvalues --   -9.91342  -9.91311  -9.91285  -9.91119  -9.91099
 Alpha  occ. eigenvalues --   -9.91018  -9.90913  -9.90872  -9.90596  -9.90505
 Alpha  occ. eigenvalues --   -9.90495  -2.92286  -1.72685  -1.72194  -1.71987
 Alpha  occ. eigenvalues --   -0.96359  -0.95332  -0.90746  -0.90729  -0.89348
 Alpha  occ. eigenvalues --   -0.87760  -0.86688  -0.85979  -0.85595  -0.84510
 Alpha  occ. eigenvalues --   -0.75305  -0.74020  -0.73640  -0.73061  -0.72608
 Alpha  occ. eigenvalues --   -0.71862  -0.71319  -0.71249  -0.70732  -0.70276
 Alpha  occ. eigenvalues --   -0.69928  -0.68853  -0.68041  -0.67355  -0.67010
 Alpha  occ. eigenvalues --   -0.66618  -0.66020  -0.65311  -0.64952  -0.64667
 Alpha  occ. eigenvalues --   -0.64507  -0.62529  -0.61911  -0.61439  -0.61172
 Alpha  occ. eigenvalues --   -0.60829  -0.60458  -0.60029  -0.59939  -0.59139
 Alpha  occ. eigenvalues --   -0.58251  -0.57758  -0.56858  -0.55430  -0.54742
 Alpha  occ. eigenvalues --   -0.53766  -0.53590  -0.52696  -0.52336  -0.51512
 Alpha  occ. eigenvalues --   -0.51388  -0.51188  -0.50403  -0.50284  -0.50247
 Alpha  occ. eigenvalues --   -0.49463  -0.49172  -0.48325  -0.48038  -0.46802
 Alpha  occ. eigenvalues --   -0.46572  -0.45780  -0.45579  -0.44869  -0.44207
 Alpha  occ. eigenvalues --   -0.43914  -0.43395  -0.43064  -0.42757  -0.42205
 Alpha  occ. eigenvalues --   -0.41822  -0.41679  -0.41601  -0.41445  -0.41278
 Alpha  occ. eigenvalues --   -0.40808  -0.40667  -0.40396  -0.40303  -0.39975
 Alpha  occ. eigenvalues --   -0.39869  -0.39769  -0.39290  -0.39096  -0.39086
 Alpha  occ. eigenvalues --   -0.38984  -0.38950  -0.38696  -0.38400  -0.38109
 Alpha  occ. eigenvalues --   -0.37997  -0.37777  -0.37531  -0.37446  -0.37144
 Alpha  occ. eigenvalues --   -0.37127  -0.36614  -0.36546  -0.36370  -0.36309
 Alpha  occ. eigenvalues --   -0.36075  -0.36038  -0.35939  -0.35756  -0.35639
 Alpha  occ. eigenvalues --   -0.35516  -0.35271  -0.35150  -0.34987  -0.34879
 Alpha  occ. eigenvalues --   -0.34746  -0.34442  -0.34336  -0.34248  -0.34158
 Alpha  occ. eigenvalues --   -0.33868  -0.33740  -0.33662  -0.33503  -0.33315
 Alpha  occ. eigenvalues --   -0.32979  -0.32695  -0.32541  -0.32319  -0.32220
 Alpha  occ. eigenvalues --   -0.32139  -0.31724  -0.31562  -0.31534  -0.31436
 Alpha  occ. eigenvalues --   -0.31147  -0.30915  -0.30638  -0.30552  -0.30395
 Alpha  occ. eigenvalues --   -0.30191  -0.30130  -0.30074  -0.29917  -0.29827
 Alpha  occ. eigenvalues --   -0.29776  -0.29544  -0.29250  -0.28873  -0.28735
 Alpha  occ. eigenvalues --   -0.28491  -0.28417  -0.28165  -0.27893  -0.27868
 Alpha  occ. eigenvalues --   -0.27719  -0.27336  -0.27005  -0.26712  -0.26289
 Alpha  occ. eigenvalues --   -0.26217  -0.26143  -0.26073  -0.25614  -0.25543
 Alpha  occ. eigenvalues --   -0.25424  -0.25192  -0.23967  -0.23897  -0.23711
 Alpha  occ. eigenvalues --   -0.23663  -0.22513  -0.21950  -0.20890  -0.20595
 Alpha  occ. eigenvalues --   -0.20464  -0.20241  -0.18556  -0.18090  -0.17189
 Alpha  occ. eigenvalues --   -0.15740
 Alpha virt. eigenvalues --   -0.11566  -0.06974  -0.05879  -0.04518  -0.04364
 Alpha virt. eigenvalues --   -0.03148  -0.03081  -0.02750  -0.01660   0.00602
 Alpha virt. eigenvalues --    0.01403   0.02165   0.02417   0.02653   0.03024

 Mulliken charges:
               1
     1  Mg   0.689273
     2  C    0.092441
     3  C   -0.086150
     4  C   -0.040556
     5  C   -0.065076
     6  N   -0.229082
     7  C   -0.078403
     8  C    0.018292
     9  C   -0.020907
    10  C    0.030630
    11  C    0.127146
    12  C    0.113425
    13  C    0.115861
    14  C    0.104306
    15  O   -0.209556
    16  O   -0.305347
    17  N   -0.257542
    18  C    0.148623
    19  C   -0.150647
    20  C    0.048862
    21  C    0.087639
    22  C    0.187867
    23  C   -0.120296
    24  O   -0.181907
    25  C    0.166600
    26  N   -0.203816
    27  C    0.009550
    28  C    0.031807
    29  C    0.027576
    30  C    0.020927
    31  C    0.128984
    32  C    0.071453
    33  C    0.038982
    34  N   -0.257051
    35  C    0.071476
    36  C   -0.140629
    37  C    0.092135
    38  C    0.053581
    39  C    0.171621
    40  C   -0.113924
    41  O   -0.140401
    42  C    0.127885
    43  C    0.120919
    44  O   -0.207553
    45  O   -0.298141
    46  C    0.208187
    47  C    0.298220
    48  C   -0.108810
    49  C   -0.133691
    50  C    0.138610
    51  C    0.107568
    52  C    0.104176
    53  C    0.076162
    54  C   -0.087737
    55  C    0.126587
    56  C    0.062212
    57  C    0.098423
    58  C    0.081337
    59  C   -0.089145
    60  C    0.113431
    61  C    0.136252
    62  C    0.036788
    63  C    0.134379
    64  C   -0.066267
    65  C    0.120319
    66  C    0.106025
    67  H   -0.064664
    68  H   -0.038302
    69  H   -0.066551
    70  H   -0.010756
    71  H   -0.018128
    72  H    0.011731
    73  H   -0.014172
    74  H   -0.009859
    75  H   -0.018429
    76  H   -0.017397
    77  H   -0.007249
    78  H    0.006670
    79  H    0.008330
    80  H   -0.006303
    81  H   -0.019952
    82  H    0.012267
    83  H   -0.026351
    84  H    0.015725
    85  H   -0.013497
    86  H   -0.016392
    87  H    0.011268
    88  H   -0.016387
    89  H   -0.005600
    90  H   -0.008859
    91  H   -0.024480
    92  H   -0.004646
    93  H    0.004048
    94  H    0.000607
    95  H    0.002367
    96  H    0.011361
    97  H   -0.002558
    98  H   -0.014741
    99  H    0.017315
   100  H    0.031712
   101  H    0.022814
   102  H    0.020351
   103  H    0.021713
   104  H   -0.023089
   105  H   -0.003719
   106  H   -0.026491
   107  H    0.008569
   108  H   -0.024057
   109  H   -0.050547
   110  H   -0.014260
   111  H   -0.033608
   112  H   -0.025416
   113  H   -0.052719
   114  H   -0.038093
   115  H   -0.019096
   116  H   -0.028676
   117  H   -0.008280
   118  H   -0.038961
   119  H   -0.023003
   120  H   -0.023618
   121  H   -0.033863
   122  H   -0.041028
   123  H   -0.031736
   124  H   -0.026695
   125  H   -0.002603
   126  H   -0.020635
   127  H   -0.029073
   128  H   -0.040980
   129  H   -0.037422
   130  H   -0.038592
   131  H   -0.044139
   132  H   -0.031300
   133  H   -0.045130
   134  H   -0.043591
   135  H   -0.015992
   136  H   -0.020697
   137  H   -0.039538
   138  H   -0.004819
   139  H   -0.030646
   140  H   -0.023370
 Sum of Mulliken charges =  -0.00000

 Dipole moment (field-independent basis, Debye):
    X=              4.2598    Y=              1.9754    Z=             -3.5345  Tot=              5.8772
 Quadrupole moment (field-independent basis, Debye-Ang):
   XX=           -373.6424   YY=           -427.5348   ZZ=           -408.9960
   XY=            -21.2672   XZ=             15.7790   YZ=              9.3108

 Normal termination of Gaussian 16 at Thu May  5 03:41:21 2022.
