 Gaussian 16, Revision A.03,
 Gaussian 16:  ES64L-G16RevA.03 25-Dec-2016

 -----------------------------------
 #p cam-b3lyp/Def2SVP td=(nstates=5)
 -----------------------------------

 ------------------------------------------------------
 step_51_chromophore_27 TDDFT with cam-b3lyp functional
 ------------------------------------------------------
 Symbolic Z-matrix:
 Charge =  0 Multiplicity = 1

                         Standard orientation:
 ---------------------------------------------------------------------
 Center     Atomic      Atomic             Coordinates (Angstroms)
 Number     Number       Type             X           Y           Z
 ---------------------------------------------------------------------
      1         12           0       -4.444807    0.856990   -0.165651
      2          6           0       -4.023991   -2.534801    0.186447
      3          6           0       -1.035505    1.328615    0.392083
      4          6           0       -5.022357    4.064377    0.052964
      5          6           0       -7.947077    0.210509    0.151856
      6          7           0       -2.794013   -0.473134    0.247912
      7          6           0       -2.848324   -1.824589    0.152731
      8          6           0       -1.379131   -2.472647   -0.030387
      9          6           0       -0.458788   -1.198870    0.327808
     10          6           0       -1.478537   -0.028544    0.261275
     11          6           0        0.351813   -1.309019    1.717558
     12          6           0       -1.065991   -2.903120   -1.446879
     13          6           0       -0.043464   -4.006521   -1.643236
     14          6           0        1.385405   -3.895091   -0.997620
     15          8           0        1.697368   -4.103802    0.198487
     16          8           0        2.293578   -3.550023   -2.017504
     17          7           0       -3.161026    2.458093    0.119998
     18          6           0       -1.816944    2.502491    0.379351
     19          6           0       -1.350611    3.802326    0.536749
     20          6           0       -2.504921    4.649906    0.417807
     21          6           0       -3.642908    3.695715    0.189555
     22          6           0        0.088504    4.215187    0.928453
     23          6           0       -2.595692    6.129110    0.393385
     24          8           0       -3.656359    6.700728    0.103733
     25          6           0       -1.438094    6.890852    0.709303
     26          7           0       -6.228650    2.011188    0.188791
     27          6           0       -6.169369    3.333664   -0.074765
     28          6           0       -7.526983    3.948227   -0.431997
     29          6           0       -8.481282    2.722672   -0.286267
     30          6           0       -7.511464    1.580270    0.140554
     31          6           0       -8.037888    5.255918    0.311000
     32          6           0       -9.358930    2.360694   -1.549047
     33          6           0      -10.971874    2.438207   -1.319904
     34          7           0       -5.774357   -0.823101   -0.112055
     35          6           0       -7.199966   -0.968092    0.052104
     36          6           0       -7.626967   -2.334216   -0.014674
     37          6           0       -6.363308   -3.029446    0.063022
     38          6           0       -5.307008   -2.048731    0.020493
     39          6           0       -9.017638   -2.830880   -0.087192
     40          6           0       -5.669182   -4.302860    0.099246
     41          8           0       -6.078121   -5.456272    0.092059
     42          6           0       -4.177746   -4.056254    0.214928
     43          6           0       -3.727087   -4.734299    1.431804
     44          8           0       -4.012777   -4.358474    2.597064
     45          8           0       -2.847560   -5.758992    1.079671
     46          6           0       -2.114049   -6.566506    2.080959
     47          6           0        3.751913   -3.698434   -1.776456
     48          6           0        4.258384   -2.246901   -1.754800
     49          6           0        5.585883   -1.893648   -1.873512
     50          6           0        6.728638   -2.902792   -1.860934
     51          6           0        6.041411   -0.487462   -1.812685
     52          6           0        6.456006    0.266669   -3.104472
     53          6           0        7.920453    0.040085   -3.555394
     54          6           0        8.613364    1.411821   -4.020550
     55          6           0        9.090097    1.377013   -5.491609
     56          6           0        9.718888    1.802229   -3.047731
     57          6           0        9.175089    2.360638   -1.682070
     58          6           0       10.164643    2.104199   -0.576398
     59          6           0        9.639127    0.961112    0.444397
     60          6           0        9.852913   -0.474226   -0.126580
     61          6           0       10.376341    1.088448    1.756582
     62          6           0        9.593595    1.980727    2.707220
     63          6           0        8.677721    1.095540    3.601564
     64          6           0        9.336081    0.492396    4.850928
     65          6           0        8.829518   -0.881977    5.148758
     66          6           0        9.209888    1.345099    6.070944
     67          1           0        0.047296    1.456468    0.458889
     68          1           0       -5.200936    5.138124   -0.038112
     69          1           0       -9.002349   -0.050339    0.059582
     70          1           0       -1.104451   -3.279068    0.650711
     71          1           0        0.239003   -1.026283   -0.491293
     72          1           0        0.131625   -2.276868    2.169074
     73          1           0        0.152343   -0.524504    2.446970
     74          1           0        1.415715   -1.142074    1.555005
     75          1           0       -0.697185   -2.077698   -2.055875
     76          1           0       -1.962005   -3.306671   -1.917831
     77          1           0        0.126211   -4.137287   -2.712261
     78          1           0       -0.490874   -4.915818   -1.242303
     79          1           0        0.130462    4.840760    1.820603
     80          1           0        0.579279    4.735848    0.106294
     81          1           0        0.666290    3.303186    1.082252
     82          1           0       -1.137808    6.812623    1.753542
     83          1           0       -1.911134    7.872500    0.670272
     84          1           0       -0.676184    6.861597   -0.069119
     85          1           0       -7.506275    4.246668   -1.480530
     86          1           0       -9.138288    2.767002    0.582781
     87          1           0       -7.171977    5.607841    0.872360
     88          1           0       -8.856272    5.015052    0.988240
     89          1           0       -8.461080    5.964391   -0.400719
     90          1           0       -9.105350    1.369524   -1.924307
     91          1           0       -9.092055    3.073474   -2.328780
     92          1           0      -11.501611    2.966564   -2.112415
     93          1           0      -11.205014    2.915075   -0.368039
     94          1           0      -11.280014    1.394359   -1.385462
     95          1           0       -9.636601   -2.331939   -0.832434
     96          1           0       -9.496009   -2.911646    0.888761
     97          1           0       -8.979607   -3.875270   -0.396872
     98          1           0       -3.818060   -4.648391   -0.626533
     99          1           0       -2.637171   -7.519120    1.999503
    100          1           0       -2.150066   -6.158026    3.091361
    101          1           0       -1.093557   -6.782783    1.763756
    102          1           0        4.141128   -4.280767   -2.610849
    103          1           0        3.957950   -4.169062   -0.814266
    104          1           0        3.483951   -1.479950   -1.780458
    105          1           0        7.421007   -2.806459   -2.696913
    106          1           0        6.318369   -3.912266   -1.902342
    107          1           0        7.336205   -2.755696   -0.966884
    108          1           0        6.791886   -0.247009   -1.058849
    109          1           0        5.131051    0.003432   -1.468934
    110          1           0        6.377477    1.337439   -2.914165
    111          1           0        5.844518   -0.211404   -3.868980
    112          1           0        8.023311   -0.805234   -4.235023
    113          1           0        8.458375   -0.273305   -2.661191
    114          1           0        7.919558    2.250800   -3.971361
    115          1           0        8.194659    1.335233   -6.112067
    116          1           0        9.488484    0.367713   -5.594268
    117          1           0        9.828520    2.144138   -5.725218
    118          1           0       10.241620    2.630869   -3.526388
    119          1           0       10.326915    0.908112   -2.910384
    120          1           0        8.205807    1.908471   -1.470804
    121          1           0        9.161038    3.440501   -1.830050
    122          1           0       10.360423    3.060972   -0.091865
    123          1           0       11.114654    1.796044   -1.013438
    124          1           0        8.573329    1.165273    0.535320
    125          1           0       10.224148   -0.411114   -1.149979
    126          1           0        9.005946   -1.160567   -0.114930
    127          1           0       10.517201   -1.019473    0.543202
    128          1           0       11.375989    1.501757    1.620342
    129          1           0       10.511171    0.153190    2.301813
    130          1           0        9.003481    2.722686    2.169890
    131          1           0       10.342358    2.575606    3.231833
    132          1           0        8.122374    0.387215    2.987671
    133          1           0        8.031795    1.902277    3.947330
    134          1           0       10.417957    0.493411    4.722051
    135          1           0        9.527366   -1.686566    4.918268
    136          1           0        7.842738   -1.096163    4.737602
    137          1           0        8.626900   -1.019040    6.210360
    138          1           0        8.276991    1.358125    6.633344
    139          1           0        9.532799    2.349807    5.799018
    140          1           0       10.043647    0.934479    6.641684
 ---------------------------------------------------------------------

 SCF Done:  E(RCAM-B3LYP) =  -3007.16072399     A.U. after   19 cycles

 Excitation energies and oscillator strengths:

 Excited State   1:      Singlet-A      1.6781 eV  738.83 nm  f=0.3944  <S**2>=0.000
     245 -> 248       -0.17825
     246 -> 247        0.68551
     245 <- 248       -0.10634
 This state for optimization and/or second-order correction.
 Total Energy, E(TD-HF/TD-DFT) =  -3007.09905402
 Copying the excited state density for this state as the 1-particle RhoCI density.

 Excited State   2:      Singlet-A      2.1910 eV  565.89 nm  f=0.1254  <S**2>=0.000
     245 -> 247        0.64159
     246 -> 248        0.27900

 Excited State   3:      Singlet-A      3.3112 eV  374.44 nm  f=0.0206  <S**2>=0.000
     241 -> 247        0.34488
     241 -> 249        0.16306
     241 -> 251        0.11441
     243 -> 247        0.30988
     244 -> 247        0.41474
     246 -> 248       -0.21714

 Excited State   4:      Singlet-A      3.3544 eV  369.62 nm  f=0.0040  <S**2>=0.000
     241 -> 247        0.48452
     241 -> 249        0.20381
     241 -> 251        0.13527
     244 -> 247       -0.40636
     246 -> 248        0.10028

 Excited State   5:      Singlet-A      3.4623 eV  358.10 nm  f=0.3049  <S**2>=0.000
     241 -> 247        0.10552
     243 -> 247       -0.23681
     244 -> 247        0.34609
     245 -> 247       -0.20181
     246 -> 248        0.50813

 The electronic state is 1-A.
 Alpha  occ. eigenvalues --  -46.89274 -19.25300 -19.24640 -19.21054 -19.19017
 Alpha  occ. eigenvalues --  -19.18143 -19.17994 -14.42379 -14.41965 -14.39388
 Alpha  occ. eigenvalues --  -14.38914 -10.40823 -10.39167 -10.34132 -10.33847
 Alpha  occ. eigenvalues --  -10.32985 -10.31593 -10.31497 -10.31477 -10.31063
 Alpha  occ. eigenvalues --  -10.30076 -10.29983 -10.29899 -10.29185 -10.28901
 Alpha  occ. eigenvalues --  -10.28673 -10.28456 -10.28175 -10.28134 -10.27773
 Alpha  occ. eigenvalues --  -10.27769 -10.27766 -10.27620 -10.27382 -10.27246
 Alpha  occ. eigenvalues --  -10.27171 -10.27132 -10.27104 -10.27060 -10.27035
 Alpha  occ. eigenvalues --  -10.26809 -10.26605 -10.26300 -10.26178 -10.26161
 Alpha  occ. eigenvalues --  -10.26131 -10.26072 -10.25896 -10.25683 -10.25645
 Alpha  occ. eigenvalues --  -10.25460 -10.25439 -10.25359 -10.25307 -10.25194
 Alpha  occ. eigenvalues --  -10.25166 -10.25051 -10.25005 -10.24789 -10.24766
 Alpha  occ. eigenvalues --  -10.24619 -10.24536 -10.24512 -10.24134 -10.24103
 Alpha  occ. eigenvalues --  -10.24037  -3.17725  -1.92604  -1.92206  -1.92014
 Alpha  occ. eigenvalues --   -1.14735  -1.13835  -1.09367  -1.08986  -1.07183
 Alpha  occ. eigenvalues --   -1.05727  -1.04357  -1.03494  -1.03315  -1.02042
 Alpha  occ. eigenvalues --   -0.92558  -0.90918  -0.90474  -0.89879  -0.89348
 Alpha  occ. eigenvalues --   -0.88561  -0.87912  -0.87816  -0.87472  -0.86833
 Alpha  occ. eigenvalues --   -0.86443  -0.85119  -0.84319  -0.83531  -0.83238
 Alpha  occ. eigenvalues --   -0.82763  -0.82056  -0.81197  -0.80810  -0.80512
 Alpha  occ. eigenvalues --   -0.80303  -0.78231  -0.77447  -0.76940  -0.76626
 Alpha  occ. eigenvalues --   -0.76291  -0.75802  -0.75330  -0.75265  -0.74369
 Alpha  occ. eigenvalues --   -0.73357  -0.72756  -0.71737  -0.70224  -0.69371
 Alpha  occ. eigenvalues --   -0.68443  -0.68156  -0.67071  -0.66682  -0.65677
 Alpha  occ. eigenvalues --   -0.65588  -0.65301  -0.64493  -0.64328  -0.64174
 Alpha  occ. eigenvalues --   -0.63172  -0.63131  -0.62115  -0.61803  -0.60316
 Alpha  occ. eigenvalues --   -0.60110  -0.59461  -0.59013  -0.58370  -0.57660
 Alpha  occ. eigenvalues --   -0.57380  -0.56668  -0.56088  -0.55889  -0.55472
 Alpha  occ. eigenvalues --   -0.54975  -0.54927  -0.54422  -0.54229  -0.54052
 Alpha  occ. eigenvalues --   -0.53756  -0.53490  -0.53154  -0.52871  -0.52789
 Alpha  occ. eigenvalues --   -0.52696  -0.52288  -0.52017  -0.51835  -0.51480
 Alpha  occ. eigenvalues --   -0.51461  -0.51325  -0.51167  -0.50921  -0.50577
 Alpha  occ. eigenvalues --   -0.50316  -0.50024  -0.49801  -0.49630  -0.49497
 Alpha  occ. eigenvalues --   -0.49380  -0.49270  -0.49182  -0.48921  -0.48546
 Alpha  occ. eigenvalues --   -0.48331  -0.48166  -0.48125  -0.47881  -0.47756
 Alpha  occ. eigenvalues --   -0.47588  -0.47450  -0.47166  -0.47040  -0.46835
 Alpha  occ. eigenvalues --   -0.46576  -0.46491  -0.46396  -0.46036  -0.46016
 Alpha  occ. eigenvalues --   -0.45522  -0.45420  -0.45389  -0.45196  -0.45060
 Alpha  occ. eigenvalues --   -0.44619  -0.44567  -0.44304  -0.43998  -0.43772
 Alpha  occ. eigenvalues --   -0.43664  -0.43550  -0.43355  -0.42992  -0.42881
 Alpha  occ. eigenvalues --   -0.42616  -0.42418  -0.42243  -0.42071  -0.41816
 Alpha  occ. eigenvalues --   -0.41742  -0.41572  -0.41544  -0.41259  -0.41076
 Alpha  occ. eigenvalues --   -0.40984  -0.40901  -0.40818  -0.40324  -0.39941
 Alpha  occ. eigenvalues --   -0.39694  -0.39340  -0.39104  -0.38866  -0.38759
 Alpha  occ. eigenvalues --   -0.38664  -0.38149  -0.37777  -0.37581  -0.37415
 Alpha  occ. eigenvalues --   -0.36804  -0.36793  -0.36721  -0.36653  -0.36372
 Alpha  occ. eigenvalues --   -0.36134  -0.35982  -0.35342  -0.34693  -0.34364
 Alpha  occ. eigenvalues --   -0.34292  -0.33536  -0.33018  -0.31092  -0.30845
 Alpha  occ. eigenvalues --   -0.30509  -0.29955  -0.29888  -0.29555  -0.23940
 Alpha  occ. eigenvalues --   -0.21006
 Alpha virt. eigenvalues --   -0.08769  -0.01707   0.00430   0.01866   0.02595
 Alpha virt. eigenvalues --    0.03249   0.04187   0.04905   0.05540   0.07446
 Alpha virt. eigenvalues --    0.08183   0.08563   0.08941   0.09059   0.09207

 Mulliken charges:
               1
     1  Mg   0.819983
     2  C    0.053622
     3  C   -0.092177
     4  C   -0.056563
     5  C   -0.076956
     6  N   -0.299366
     7  C   -0.029085
     8  C   -0.032436
     9  C   -0.069552
    10  C    0.045416
    11  C    0.071694
    12  C    0.063777
    13  C    0.052986
    14  C    0.183469
    15  O   -0.250724
    16  O   -0.371888
    17  N   -0.346632
    18  C    0.144473
    19  C   -0.153170
    20  C   -0.026406
    21  C    0.112507
    22  C    0.134414
    23  C   -0.031637
    24  O   -0.226874
    25  C    0.067059
    26  N   -0.273766
    27  C    0.024835
    28  C   -0.021700
    29  C   -0.029278
    30  C    0.052096
    31  C    0.073297
    32  C    0.013475
    33  C   -0.017397
    34  N   -0.343602
    35  C    0.077121
    36  C   -0.131941
    37  C    0.017728
    38  C    0.090760
    39  C    0.116014
    40  C   -0.013798
    41  O   -0.178165
    42  C    0.044171
    43  C    0.216548
    44  O   -0.245443
    45  O   -0.365547
    46  C    0.172402
    47  C    0.262995
    48  C   -0.124318
    49  C   -0.154557
    50  C    0.081262
    51  C    0.052300
    52  C    0.047420
    53  C    0.024677
    54  C   -0.143818
    55  C    0.071447
    56  C    0.015807
    57  C    0.044479
    58  C    0.032040
    59  C   -0.141309
    60  C    0.058810
    61  C    0.079079
    62  C   -0.016855
    63  C    0.073851
    64  C   -0.128628
    65  C    0.056072
    66  C    0.047571
    67  H   -0.030357
    68  H    0.002065
    69  H   -0.031164
    70  H    0.022659
    71  H    0.012509
    72  H    0.034329
    73  H    0.012039
    74  H    0.013183
    75  H    0.011667
    76  H    0.012852
    77  H    0.029005
    78  H    0.035535
    79  H    0.032656
    80  H    0.019564
    81  H    0.006527
    82  H    0.042495
    83  H    0.013240
    84  H    0.045508
    85  H    0.020596
    86  H    0.016649
    87  H    0.034646
    88  H    0.007491
    89  H    0.018901
    90  H    0.020167
    91  H    0.004468
    92  H    0.019592
    93  H    0.025304
    94  H    0.020935
    95  H    0.027713
    96  H    0.040398
    97  H    0.026997
    98  H    0.029815
    99  H    0.039569
   100  H    0.057024
   101  H    0.043220
   102  H    0.046177
   103  H    0.053190
   104  H    0.009385
   105  H    0.019360
   106  H   -0.002126
   107  H    0.030610
   108  H   -0.001018
   109  H   -0.017338
   110  H    0.013540
   111  H   -0.003546
   112  H    0.002183
   113  H   -0.028864
   114  H   -0.007222
   115  H    0.006182
   116  H   -0.005750
   117  H    0.015745
   118  H   -0.009711
   119  H    0.000846
   120  H   -0.002588
   121  H   -0.002874
   122  H   -0.011089
   123  H   -0.002444
   124  H    0.001434
   125  H    0.016385
   126  H   -0.002173
   127  H   -0.001091
   128  H   -0.010426
   129  H   -0.009818
   130  H   -0.009783
   131  H   -0.014526
   132  H   -0.002930
   133  H   -0.013962
   134  H   -0.011485
   135  H    0.008697
   136  H    0.004856
   137  H   -0.012156
   138  H    0.019325
   139  H   -0.006429
   140  H    0.001570
 Sum of Mulliken charges =  -0.00000

 Dipole moment (field-independent basis, Debye):
    X=              4.1936    Y=              1.8650    Z=             -3.6896  Tot=              5.8887
 Quadrupole moment (field-independent basis, Debye-Ang):
   XX=           -369.2609   YY=           -423.9484   ZZ=           -409.3257
   XY=            -19.8862   XZ=             17.0143   YZ=             10.0758

 Normal termination of Gaussian 16 at Thu May  5 02:15:37 2022.
