 Gaussian 16, Revision A.03,
 Gaussian 16:  ES64L-G16RevA.03 25-Dec-2016

 ---------------------------------
 #p PBE1PBE/Def2SVP td=(nstates=5)
 ---------------------------------

 ----------------------------------------------------
 step_51_chromophore_27 TDDFT with PBE1PBE functional
 ----------------------------------------------------
 Symbolic Z-matrix:
 Charge =  0 Multiplicity = 1

                         Standard orientation:
 ---------------------------------------------------------------------
 Center     Atomic      Atomic             Coordinates (Angstroms)
 Number     Number       Type             X           Y           Z
 ---------------------------------------------------------------------
      1         12           0       -4.444807    0.856990   -0.165651
      2          6           0       -4.023991   -2.534801    0.186447
      3          6           0       -1.035505    1.328615    0.392083
      4          6           0       -5.022357    4.064377    0.052964
      5          6           0       -7.947077    0.210509    0.151856
      6          7           0       -2.794013   -0.473134    0.247912
      7          6           0       -2.848324   -1.824589    0.152731
      8          6           0       -1.379131   -2.472647   -0.030387
      9          6           0       -0.458788   -1.198870    0.327808
     10          6           0       -1.478537   -0.028544    0.261275
     11          6           0        0.351813   -1.309019    1.717558
     12          6           0       -1.065991   -2.903120   -1.446879
     13          6           0       -0.043464   -4.006521   -1.643236
     14          6           0        1.385405   -3.895091   -0.997620
     15          8           0        1.697368   -4.103802    0.198487
     16          8           0        2.293578   -3.550023   -2.017504
     17          7           0       -3.161026    2.458093    0.119998
     18          6           0       -1.816944    2.502491    0.379351
     19          6           0       -1.350611    3.802326    0.536749
     20          6           0       -2.504921    4.649906    0.417807
     21          6           0       -3.642908    3.695715    0.189555
     22          6           0        0.088504    4.215187    0.928453
     23          6           0       -2.595692    6.129110    0.393385
     24          8           0       -3.656359    6.700728    0.103733
     25          6           0       -1.438094    6.890852    0.709303
     26          7           0       -6.228650    2.011188    0.188791
     27          6           0       -6.169369    3.333664   -0.074765
     28          6           0       -7.526983    3.948227   -0.431997
     29          6           0       -8.481282    2.722672   -0.286267
     30          6           0       -7.511464    1.580270    0.140554
     31          6           0       -8.037888    5.255918    0.311000
     32          6           0       -9.358930    2.360694   -1.549047
     33          6           0      -10.971874    2.438207   -1.319904
     34          7           0       -5.774357   -0.823101   -0.112055
     35          6           0       -7.199966   -0.968092    0.052104
     36          6           0       -7.626967   -2.334216   -0.014674
     37          6           0       -6.363308   -3.029446    0.063022
     38          6           0       -5.307008   -2.048731    0.020493
     39          6           0       -9.017638   -2.830880   -0.087192
     40          6           0       -5.669182   -4.302860    0.099246
     41          8           0       -6.078121   -5.456272    0.092059
     42          6           0       -4.177746   -4.056254    0.214928
     43          6           0       -3.727087   -4.734299    1.431804
     44          8           0       -4.012777   -4.358474    2.597064
     45          8           0       -2.847560   -5.758992    1.079671
     46          6           0       -2.114049   -6.566506    2.080959
     47          6           0        3.751913   -3.698434   -1.776456
     48          6           0        4.258384   -2.246901   -1.754800
     49          6           0        5.585883   -1.893648   -1.873512
     50          6           0        6.728638   -2.902792   -1.860934
     51          6           0        6.041411   -0.487462   -1.812685
     52          6           0        6.456006    0.266669   -3.104472
     53          6           0        7.920453    0.040085   -3.555394
     54          6           0        8.613364    1.411821   -4.020550
     55          6           0        9.090097    1.377013   -5.491609
     56          6           0        9.718888    1.802229   -3.047731
     57          6           0        9.175089    2.360638   -1.682070
     58          6           0       10.164643    2.104199   -0.576398
     59          6           0        9.639127    0.961112    0.444397
     60          6           0        9.852913   -0.474226   -0.126580
     61          6           0       10.376341    1.088448    1.756582
     62          6           0        9.593595    1.980727    2.707220
     63          6           0        8.677721    1.095540    3.601564
     64          6           0        9.336081    0.492396    4.850928
     65          6           0        8.829518   -0.881977    5.148758
     66          6           0        9.209888    1.345099    6.070944
     67          1           0        0.047296    1.456468    0.458889
     68          1           0       -5.200936    5.138124   -0.038112
     69          1           0       -9.002349   -0.050339    0.059582
     70          1           0       -1.104451   -3.279068    0.650711
     71          1           0        0.239003   -1.026283   -0.491293
     72          1           0        0.131625   -2.276868    2.169074
     73          1           0        0.152343   -0.524504    2.446970
     74          1           0        1.415715   -1.142074    1.555005
     75          1           0       -0.697185   -2.077698   -2.055875
     76          1           0       -1.962005   -3.306671   -1.917831
     77          1           0        0.126211   -4.137287   -2.712261
     78          1           0       -0.490874   -4.915818   -1.242303
     79          1           0        0.130462    4.840760    1.820603
     80          1           0        0.579279    4.735848    0.106294
     81          1           0        0.666290    3.303186    1.082252
     82          1           0       -1.137808    6.812623    1.753542
     83          1           0       -1.911134    7.872500    0.670272
     84          1           0       -0.676184    6.861597   -0.069119
     85          1           0       -7.506275    4.246668   -1.480530
     86          1           0       -9.138288    2.767002    0.582781
     87          1           0       -7.171977    5.607841    0.872360
     88          1           0       -8.856272    5.015052    0.988240
     89          1           0       -8.461080    5.964391   -0.400719
     90          1           0       -9.105350    1.369524   -1.924307
     91          1           0       -9.092055    3.073474   -2.328780
     92          1           0      -11.501611    2.966564   -2.112415
     93          1           0      -11.205014    2.915075   -0.368039
     94          1           0      -11.280014    1.394359   -1.385462
     95          1           0       -9.636601   -2.331939   -0.832434
     96          1           0       -9.496009   -2.911646    0.888761
     97          1           0       -8.979607   -3.875270   -0.396872
     98          1           0       -3.818060   -4.648391   -0.626533
     99          1           0       -2.637171   -7.519120    1.999503
    100          1           0       -2.150066   -6.158026    3.091361
    101          1           0       -1.093557   -6.782783    1.763756
    102          1           0        4.141128   -4.280767   -2.610849
    103          1           0        3.957950   -4.169062   -0.814266
    104          1           0        3.483951   -1.479950   -1.780458
    105          1           0        7.421007   -2.806459   -2.696913
    106          1           0        6.318369   -3.912266   -1.902342
    107          1           0        7.336205   -2.755696   -0.966884
    108          1           0        6.791886   -0.247009   -1.058849
    109          1           0        5.131051    0.003432   -1.468934
    110          1           0        6.377477    1.337439   -2.914165
    111          1           0        5.844518   -0.211404   -3.868980
    112          1           0        8.023311   -0.805234   -4.235023
    113          1           0        8.458375   -0.273305   -2.661191
    114          1           0        7.919558    2.250800   -3.971361
    115          1           0        8.194659    1.335233   -6.112067
    116          1           0        9.488484    0.367713   -5.594268
    117          1           0        9.828520    2.144138   -5.725218
    118          1           0       10.241620    2.630869   -3.526388
    119          1           0       10.326915    0.908112   -2.910384
    120          1           0        8.205807    1.908471   -1.470804
    121          1           0        9.161038    3.440501   -1.830050
    122          1           0       10.360423    3.060972   -0.091865
    123          1           0       11.114654    1.796044   -1.013438
    124          1           0        8.573329    1.165273    0.535320
    125          1           0       10.224148   -0.411114   -1.149979
    126          1           0        9.005946   -1.160567   -0.114930
    127          1           0       10.517201   -1.019473    0.543202
    128          1           0       11.375989    1.501757    1.620342
    129          1           0       10.511171    0.153190    2.301813
    130          1           0        9.003481    2.722686    2.169890
    131          1           0       10.342358    2.575606    3.231833
    132          1           0        8.122374    0.387215    2.987671
    133          1           0        8.031795    1.902277    3.947330
    134          1           0       10.417957    0.493411    4.722051
    135          1           0        9.527366   -1.686566    4.918268
    136          1           0        7.842738   -1.096163    4.737602
    137          1           0        8.626900   -1.019040    6.210360
    138          1           0        8.276991    1.358125    6.633344
    139          1           0        9.532799    2.349807    5.799018
    140          1           0       10.043647    0.934479    6.641684
 ---------------------------------------------------------------------

 SCF Done:  E(RPBE1PBE) =  -3005.34996651     A.U. after   15 cycles

 Excitation energies and oscillator strengths:

 Excited State   1:      Singlet-A      1.8323 eV  676.66 nm  f=0.3695  <S**2>=0.000
     245 -> 248       -0.17056
     246 -> 247        0.69239
     246 <- 247       -0.11085
 This state for optimization and/or second-order correction.
 Total Energy, E(TD-HF/TD-DFT) =  -3005.28263052
 Copying the excited state density for this state as the 1-particle RhoCI density.

 Excited State   2:      Singlet-A      2.1943 eV  565.02 nm  f=0.1271  <S**2>=0.000
     245 -> 247        0.65158
     246 -> 248        0.24990

 Excited State   3:      Singlet-A      2.8358 eV  437.21 nm  f=0.0001  <S**2>=0.000
     243 -> 247       -0.33802
     244 -> 247        0.58191
     244 -> 249       -0.12005

 Excited State   4:      Singlet-A      3.0309 eV  409.07 nm  f=0.0007  <S**2>=0.000
     240 -> 247        0.17074
     243 -> 247        0.57779
     244 -> 247        0.33380
     246 -> 248       -0.11436

 Excited State   5:      Singlet-A      3.0722 eV  403.57 nm  f=0.0000  <S**2>=0.000
     240 -> 247        0.62780
     240 -> 248       -0.10323
     240 -> 249        0.13390
     241 -> 247       -0.16900
     243 -> 247       -0.14128

 The electronic state is 1-A.
 Alpha  occ. eigenvalues --  -46.92682 -19.26065 -19.25280 -19.21352 -19.19217
 Alpha  occ. eigenvalues --  -19.18350 -19.18222 -14.41962 -14.41399 -14.39100
 Alpha  occ. eigenvalues --  -14.38525 -10.37903 -10.36138 -10.31142 -10.31020
 Alpha  occ. eigenvalues --  -10.30424 -10.29148 -10.29130 -10.28969 -10.28783
 Alpha  occ. eigenvalues --  -10.27868 -10.27748 -10.27561 -10.26761 -10.26634
 Alpha  occ. eigenvalues --  -10.26262 -10.26182 -10.26032 -10.25668 -10.25623
 Alpha  occ. eigenvalues --  -10.25615 -10.25598 -10.25287 -10.24962 -10.24930
 Alpha  occ. eigenvalues --  -10.24808 -10.24785 -10.24709 -10.24708 -10.24625
 Alpha  occ. eigenvalues --  -10.24403 -10.24053 -10.23901 -10.23897 -10.23693
 Alpha  occ. eigenvalues --  -10.23650 -10.23615 -10.23424 -10.23415 -10.23227
 Alpha  occ. eigenvalues --  -10.23041 -10.23036 -10.22972 -10.22918 -10.22826
 Alpha  occ. eigenvalues --  -10.22613 -10.22597 -10.22517 -10.22389 -10.22192
 Alpha  occ. eigenvalues --  -10.22105 -10.22072 -10.22030 -10.21662 -10.21521
 Alpha  occ. eigenvalues --  -10.21410  -3.14715  -1.87534  -1.87115  -1.86926
 Alpha  occ. eigenvalues --   -1.09548  -1.08538  -1.03972  -1.03796  -1.02055
 Alpha  occ. eigenvalues --   -1.00474  -0.99016  -0.98231  -0.97903  -0.96679
 Alpha  occ. eigenvalues --   -0.86856  -0.85026  -0.84595  -0.84059  -0.83480
 Alpha  occ. eigenvalues --   -0.82903  -0.82115  -0.82049  -0.81718  -0.81162
 Alpha  occ. eigenvalues --   -0.80805  -0.79338  -0.78561  -0.77772  -0.77494
 Alpha  occ. eigenvalues --   -0.76997  -0.76324  -0.75439  -0.75038  -0.74890
 Alpha  occ. eigenvalues --   -0.74503  -0.72543  -0.71761  -0.71223  -0.70811
 Alpha  occ. eigenvalues --   -0.70538  -0.69901  -0.69658  -0.69392  -0.68560
 Alpha  occ. eigenvalues --   -0.67770  -0.67103  -0.66197  -0.64558  -0.63707
 Alpha  occ. eigenvalues --   -0.62863  -0.62411  -0.61609  -0.60927  -0.60052
 Alpha  occ. eigenvalues --   -0.59850  -0.59733  -0.58879  -0.58759  -0.58588
 Alpha  occ. eigenvalues --   -0.57686  -0.57319  -0.56332  -0.56324  -0.54734
 Alpha  occ. eigenvalues --   -0.54688  -0.53954  -0.53626  -0.52903  -0.52179
 Alpha  occ. eigenvalues --   -0.51898  -0.51105  -0.50583  -0.50483  -0.49996
 Alpha  occ. eigenvalues --   -0.49508  -0.49450  -0.48858  -0.48655  -0.48509
 Alpha  occ. eigenvalues --   -0.48188  -0.47874  -0.47810  -0.47421  -0.47319
 Alpha  occ. eigenvalues --   -0.47241  -0.46922  -0.46529  -0.46330  -0.46063
 Alpha  occ. eigenvalues --   -0.45984  -0.45842  -0.45725  -0.45419  -0.45144
 Alpha  occ. eigenvalues --   -0.44909  -0.44654  -0.44447  -0.44234  -0.44093
 Alpha  occ. eigenvalues --   -0.43899  -0.43843  -0.43794  -0.43523  -0.43155
 Alpha  occ. eigenvalues --   -0.42961  -0.42798  -0.42782  -0.42504  -0.42391
 Alpha  occ. eigenvalues --   -0.42276  -0.42118  -0.41844  -0.41730  -0.41431
 Alpha  occ. eigenvalues --   -0.41199  -0.41083  -0.41047  -0.40880  -0.40642
 Alpha  occ. eigenvalues --   -0.40216  -0.40177  -0.40061  -0.39895  -0.39709
 Alpha  occ. eigenvalues --   -0.39449  -0.39258  -0.39123  -0.38737  -0.38558
 Alpha  occ. eigenvalues --   -0.38364  -0.38286  -0.38150  -0.37887  -0.37587
 Alpha  occ. eigenvalues --   -0.37508  -0.37211  -0.37037  -0.36917  -0.36591
 Alpha  occ. eigenvalues --   -0.36474  -0.36459  -0.36413  -0.36159  -0.35939
 Alpha  occ. eigenvalues --   -0.35808  -0.35704  -0.35666  -0.35050  -0.34882
 Alpha  occ. eigenvalues --   -0.34614  -0.34114  -0.33870  -0.33836  -0.33674
 Alpha  occ. eigenvalues --   -0.33559  -0.32996  -0.32657  -0.32594  -0.32290
 Alpha  occ. eigenvalues --   -0.31890  -0.31739  -0.31650  -0.31547  -0.31428
 Alpha  occ. eigenvalues --   -0.31000  -0.30892  -0.30268  -0.29822  -0.29319
 Alpha  occ. eigenvalues --   -0.29232  -0.28859  -0.28010  -0.26724  -0.25698
 Alpha  occ. eigenvalues --   -0.25576  -0.25313  -0.25244  -0.25121  -0.20880
 Alpha  occ. eigenvalues --   -0.18662
 Alpha virt. eigenvalues --   -0.11197  -0.05264  -0.03693  -0.01812  -0.01393
 Alpha virt. eigenvalues --   -0.00841  -0.00165   0.00273   0.01143   0.03623
 Alpha virt. eigenvalues --    0.04472   0.04908   0.05227   0.05595   0.05908

 Mulliken charges:
               1
     1  Mg   0.965472
     2  C    0.040563
     3  C   -0.080820
     4  C   -0.049730
     5  C   -0.077477
     6  N   -0.400140
     7  C    0.050381
     8  C   -0.104957
     9  C   -0.140648
    10  C    0.081906
    11  C    0.016003
    12  C    0.015898
    13  C   -0.024100
    14  C    0.250444
    15  O   -0.282880
    16  O   -0.400374
    17  N   -0.468650
    18  C    0.157806
    19  C   -0.167105
    20  C   -0.079997
    21  C    0.152393
    22  C    0.073217
    23  C    0.016466
    24  O   -0.264342
    25  C   -0.006812
    26  N   -0.377226
    27  C    0.055801
    28  C   -0.092572
    29  C   -0.101292
    30  C    0.097350
    31  C    0.013492
    32  C   -0.046280
    33  C   -0.089375
    34  N   -0.461370
    35  C    0.087644
    36  C   -0.140894
    37  C   -0.027443
    38  C    0.134849
    39  C    0.062535
    40  C    0.076769
    41  O   -0.225214
    42  C   -0.072761
    43  C    0.311025
    44  O   -0.279705
    45  O   -0.398872
    46  C    0.120291
    47  C    0.221039
    48  C   -0.134769
    49  C   -0.194502
    50  C    0.015441
    51  C   -0.019416
    52  C   -0.019520
    53  C   -0.030970
    54  C   -0.226813
    55  C    0.009150
    56  C   -0.043139
    57  C   -0.023749
    58  C   -0.016645
    59  C   -0.228581
    60  C   -0.006107
    61  C    0.022540
    62  C   -0.078748
    63  C    0.014076
    64  C   -0.222870
    65  C   -0.000267
    66  C   -0.016526
    67  H    0.002151
    68  H    0.034801
    69  H    0.002540
    70  H    0.060227
    71  H    0.049683
    72  H    0.061005
    73  H    0.039346
    74  H    0.039738
    75  H    0.043167
    76  H    0.047631
    77  H    0.060793
    78  H    0.068460
    79  H    0.060231
    80  H    0.048621
    81  H    0.035255
    82  H    0.069194
    83  H    0.041817
    84  H    0.072303
    85  H    0.058365
    86  H    0.054196
    87  H    0.061301
    88  H    0.035379
    89  H    0.046009
    90  H    0.053060
    91  H    0.037064
    92  H    0.047025
    93  H    0.051541
    94  H    0.048122
    95  H    0.052639
    96  H    0.067188
    97  H    0.055068
    98  H    0.067078
    99  H    0.061735
   100  H    0.076585
   101  H    0.063558
   102  H    0.071709
   103  H    0.078998
   104  H    0.037956
   105  H    0.048001
   106  H    0.026147
   107  H    0.060611
   108  H    0.035876
   109  H    0.016901
   110  H    0.043404
   111  H    0.031572
   112  H    0.032640
   113  H    0.012390
   114  H    0.031192
   115  H    0.035515
   116  H    0.023478
   117  H    0.042206
   118  H    0.024123
   119  H    0.034261
   120  H    0.033662
   121  H    0.031168
   122  H    0.021192
   123  H    0.030449
   124  H    0.038485
   125  H    0.043145
   126  H    0.029182
   127  H    0.027203
   128  H    0.022204
   129  H    0.024770
   130  H    0.022759
   131  H    0.017696
   132  H    0.028747
   133  H    0.020885
   134  H    0.025729
   135  H    0.035842
   136  H    0.031802
   137  H    0.015595
   138  H    0.046302
   139  H    0.023255
   140  H    0.031182
 Sum of Mulliken charges =  -0.00000

 Dipole moment (field-independent basis, Debye):
    X=              4.4023    Y=              2.1625    Z=             -3.7209  Tot=              6.1564
 Quadrupole moment (field-independent basis, Debye-Ang):
   XX=           -365.3425   YY=           -420.5887   ZZ=           -406.8622
   XY=            -21.5395   XZ=             17.6388   YZ=             10.0834

 Normal termination of Gaussian 16 at Thu May  5 02:44:09 2022.
