 Gaussian 16, Revision A.03,
 Gaussian 16:  ES64L-G16RevA.03 25-Dec-2016

 --------------------------------
 #p wB97XD/Def2SVP td=(nstates=5)
 --------------------------------

 ---------------------------------------------------
 step_51_chromophore_27 TDDFT with wB97XD functional
 ---------------------------------------------------
 Symbolic Z-matrix:
 Charge =  0 Multiplicity = 1

                         Standard orientation:
 ---------------------------------------------------------------------
 Center     Atomic      Atomic             Coordinates (Angstroms)
 Number     Number       Type             X           Y           Z
 ---------------------------------------------------------------------
      1         12           0       -4.444807    0.856990   -0.165651
      2          6           0       -4.023991   -2.534801    0.186447
      3          6           0       -1.035505    1.328615    0.392083
      4          6           0       -5.022357    4.064377    0.052964
      5          6           0       -7.947077    0.210509    0.151856
      6          7           0       -2.794013   -0.473134    0.247912
      7          6           0       -2.848324   -1.824589    0.152731
      8          6           0       -1.379131   -2.472647   -0.030387
      9          6           0       -0.458788   -1.198870    0.327808
     10          6           0       -1.478537   -0.028544    0.261275
     11          6           0        0.351813   -1.309019    1.717558
     12          6           0       -1.065991   -2.903120   -1.446879
     13          6           0       -0.043464   -4.006521   -1.643236
     14          6           0        1.385405   -3.895091   -0.997620
     15          8           0        1.697368   -4.103802    0.198487
     16          8           0        2.293578   -3.550023   -2.017504
     17          7           0       -3.161026    2.458093    0.119998
     18          6           0       -1.816944    2.502491    0.379351
     19          6           0       -1.350611    3.802326    0.536749
     20          6           0       -2.504921    4.649906    0.417807
     21          6           0       -3.642908    3.695715    0.189555
     22          6           0        0.088504    4.215187    0.928453
     23          6           0       -2.595692    6.129110    0.393385
     24          8           0       -3.656359    6.700728    0.103733
     25          6           0       -1.438094    6.890852    0.709303
     26          7           0       -6.228650    2.011188    0.188791
     27          6           0       -6.169369    3.333664   -0.074765
     28          6           0       -7.526983    3.948227   -0.431997
     29          6           0       -8.481282    2.722672   -0.286267
     30          6           0       -7.511464    1.580270    0.140554
     31          6           0       -8.037888    5.255918    0.311000
     32          6           0       -9.358930    2.360694   -1.549047
     33          6           0      -10.971874    2.438207   -1.319904
     34          7           0       -5.774357   -0.823101   -0.112055
     35          6           0       -7.199966   -0.968092    0.052104
     36          6           0       -7.626967   -2.334216   -0.014674
     37          6           0       -6.363308   -3.029446    0.063022
     38          6           0       -5.307008   -2.048731    0.020493
     39          6           0       -9.017638   -2.830880   -0.087192
     40          6           0       -5.669182   -4.302860    0.099246
     41          8           0       -6.078121   -5.456272    0.092059
     42          6           0       -4.177746   -4.056254    0.214928
     43          6           0       -3.727087   -4.734299    1.431804
     44          8           0       -4.012777   -4.358474    2.597064
     45          8           0       -2.847560   -5.758992    1.079671
     46          6           0       -2.114049   -6.566506    2.080959
     47          6           0        3.751913   -3.698434   -1.776456
     48          6           0        4.258384   -2.246901   -1.754800
     49          6           0        5.585883   -1.893648   -1.873512
     50          6           0        6.728638   -2.902792   -1.860934
     51          6           0        6.041411   -0.487462   -1.812685
     52          6           0        6.456006    0.266669   -3.104472
     53          6           0        7.920453    0.040085   -3.555394
     54          6           0        8.613364    1.411821   -4.020550
     55          6           0        9.090097    1.377013   -5.491609
     56          6           0        9.718888    1.802229   -3.047731
     57          6           0        9.175089    2.360638   -1.682070
     58          6           0       10.164643    2.104199   -0.576398
     59          6           0        9.639127    0.961112    0.444397
     60          6           0        9.852913   -0.474226   -0.126580
     61          6           0       10.376341    1.088448    1.756582
     62          6           0        9.593595    1.980727    2.707220
     63          6           0        8.677721    1.095540    3.601564
     64          6           0        9.336081    0.492396    4.850928
     65          6           0        8.829518   -0.881977    5.148758
     66          6           0        9.209888    1.345099    6.070944
     67          1           0        0.047296    1.456468    0.458889
     68          1           0       -5.200936    5.138124   -0.038112
     69          1           0       -9.002349   -0.050339    0.059582
     70          1           0       -1.104451   -3.279068    0.650711
     71          1           0        0.239003   -1.026283   -0.491293
     72          1           0        0.131625   -2.276868    2.169074
     73          1           0        0.152343   -0.524504    2.446970
     74          1           0        1.415715   -1.142074    1.555005
     75          1           0       -0.697185   -2.077698   -2.055875
     76          1           0       -1.962005   -3.306671   -1.917831
     77          1           0        0.126211   -4.137287   -2.712261
     78          1           0       -0.490874   -4.915818   -1.242303
     79          1           0        0.130462    4.840760    1.820603
     80          1           0        0.579279    4.735848    0.106294
     81          1           0        0.666290    3.303186    1.082252
     82          1           0       -1.137808    6.812623    1.753542
     83          1           0       -1.911134    7.872500    0.670272
     84          1           0       -0.676184    6.861597   -0.069119
     85          1           0       -7.506275    4.246668   -1.480530
     86          1           0       -9.138288    2.767002    0.582781
     87          1           0       -7.171977    5.607841    0.872360
     88          1           0       -8.856272    5.015052    0.988240
     89          1           0       -8.461080    5.964391   -0.400719
     90          1           0       -9.105350    1.369524   -1.924307
     91          1           0       -9.092055    3.073474   -2.328780
     92          1           0      -11.501611    2.966564   -2.112415
     93          1           0      -11.205014    2.915075   -0.368039
     94          1           0      -11.280014    1.394359   -1.385462
     95          1           0       -9.636601   -2.331939   -0.832434
     96          1           0       -9.496009   -2.911646    0.888761
     97          1           0       -8.979607   -3.875270   -0.396872
     98          1           0       -3.818060   -4.648391   -0.626533
     99          1           0       -2.637171   -7.519120    1.999503
    100          1           0       -2.150066   -6.158026    3.091361
    101          1           0       -1.093557   -6.782783    1.763756
    102          1           0        4.141128   -4.280767   -2.610849
    103          1           0        3.957950   -4.169062   -0.814266
    104          1           0        3.483951   -1.479950   -1.780458
    105          1           0        7.421007   -2.806459   -2.696913
    106          1           0        6.318369   -3.912266   -1.902342
    107          1           0        7.336205   -2.755696   -0.966884
    108          1           0        6.791886   -0.247009   -1.058849
    109          1           0        5.131051    0.003432   -1.468934
    110          1           0        6.377477    1.337439   -2.914165
    111          1           0        5.844518   -0.211404   -3.868980
    112          1           0        8.023311   -0.805234   -4.235023
    113          1           0        8.458375   -0.273305   -2.661191
    114          1           0        7.919558    2.250800   -3.971361
    115          1           0        8.194659    1.335233   -6.112067
    116          1           0        9.488484    0.367713   -5.594268
    117          1           0        9.828520    2.144138   -5.725218
    118          1           0       10.241620    2.630869   -3.526388
    119          1           0       10.326915    0.908112   -2.910384
    120          1           0        8.205807    1.908471   -1.470804
    121          1           0        9.161038    3.440501   -1.830050
    122          1           0       10.360423    3.060972   -0.091865
    123          1           0       11.114654    1.796044   -1.013438
    124          1           0        8.573329    1.165273    0.535320
    125          1           0       10.224148   -0.411114   -1.149979
    126          1           0        9.005946   -1.160567   -0.114930
    127          1           0       10.517201   -1.019473    0.543202
    128          1           0       11.375989    1.501757    1.620342
    129          1           0       10.511171    0.153190    2.301813
    130          1           0        9.003481    2.722686    2.169890
    131          1           0       10.342358    2.575606    3.231833
    132          1           0        8.122374    0.387215    2.987671
    133          1           0        8.031795    1.902277    3.947330
    134          1           0       10.417957    0.493411    4.722051
    135          1           0        9.527366   -1.686566    4.918268
    136          1           0        7.842738   -1.096163    4.737602
    137          1           0        8.626900   -1.019040    6.210360
    138          1           0        8.276991    1.358125    6.633344
    139          1           0        9.532799    2.349807    5.799018
    140          1           0       10.043647    0.934479    6.641684
 ---------------------------------------------------------------------

 SCF Done:  E(RwB97XD) =  -3007.86157100     A.U. after   19 cycles

 Excitation energies and oscillator strengths:

 Excited State   1:      Singlet-A      1.6193 eV  765.68 nm  f=0.3924  <S**2>=0.000
     245 -> 248       -0.18419
     246 -> 247        0.68306
     245 <- 248       -0.11593
 This state for optimization and/or second-order correction.
 Total Energy, E(TD-HF/TD-DFT) =  -3007.80206419
 Copying the excited state density for this state as the 1-particle RhoCI density.

 Excited State   2:      Singlet-A      2.1328 eV  581.31 nm  f=0.1214  <S**2>=0.000
     245 -> 247        0.63917
     246 -> 248        0.28265

 Excited State   3:      Singlet-A      3.3150 eV  374.01 nm  f=0.0279  <S**2>=0.000
     241 -> 247       -0.22534
     241 -> 249       -0.13239
     242 -> 247       -0.38715
     244 -> 247        0.42462
     246 -> 248        0.24748

 Excited State   4:      Singlet-A      3.3724 eV  367.64 nm  f=0.0021  <S**2>=0.000
     241 -> 247        0.53648
     241 -> 249        0.25298
     241 -> 250       -0.16384
     244 -> 247        0.30387

 Excited State   5:      Singlet-A      3.4861 eV  355.65 nm  f=0.3473  <S**2>=0.000
     242 -> 247       -0.16338
     244 -> 247       -0.38470
     245 -> 247       -0.21140
     246 -> 248        0.50729

 The electronic state is 1-A.
 Alpha  occ. eigenvalues --  -46.95617 -19.30568 -19.29897 -19.26014 -19.24014
 Alpha  occ. eigenvalues --  -19.23257 -19.22984 -14.46966 -14.46564 -14.43946
 Alpha  occ. eigenvalues --  -14.43545 -10.44685 -10.43064 -10.38195 -10.37731
 Alpha  occ. eigenvalues --  -10.36893 -10.35540 -10.35539 -10.35336 -10.35068
 Alpha  occ. eigenvalues --  -10.34073 -10.34058 -10.33881 -10.33393 -10.32849
 Alpha  occ. eigenvalues --  -10.32694 -10.32532 -10.32183 -10.32095 -10.31843
 Alpha  occ. eigenvalues --  -10.31834 -10.31810 -10.31625 -10.31343 -10.31331
 Alpha  occ. eigenvalues --  -10.31248 -10.31181 -10.31078 -10.31051 -10.31040
 Alpha  occ. eigenvalues --  -10.30763 -10.30530 -10.30203 -10.30174 -10.30163
 Alpha  occ. eigenvalues --  -10.30137 -10.30030 -10.29753 -10.29683 -10.29589
 Alpha  occ. eigenvalues --  -10.29415 -10.29396 -10.29276 -10.29269 -10.29109
 Alpha  occ. eigenvalues --  -10.28989 -10.28974 -10.28941 -10.28738 -10.28632
 Alpha  occ. eigenvalues --  -10.28453 -10.28443 -10.28413 -10.28010 -10.27945
 Alpha  occ. eigenvalues --  -10.27824  -3.21515  -1.95082  -1.94663  -1.94472
 Alpha  occ. eigenvalues --   -1.16922  -1.16032  -1.11654  -1.11141  -1.09395
 Alpha  occ. eigenvalues --   -1.07946  -1.06357  -1.05501  -1.05354  -1.04073
 Alpha  occ. eigenvalues --   -0.94584  -0.92692  -0.92242  -0.91708  -0.91129
 Alpha  occ. eigenvalues --   -0.90483  -0.89693  -0.89687  -0.89448  -0.88761
 Alpha  occ. eigenvalues --   -0.88362  -0.86971  -0.86187  -0.85435  -0.85151
 Alpha  occ. eigenvalues --   -0.84630  -0.83937  -0.83123  -0.82690  -0.82477
 Alpha  occ. eigenvalues --   -0.82159  -0.80172  -0.79345  -0.78863  -0.78495
 Alpha  occ. eigenvalues --   -0.78201  -0.77573  -0.77252  -0.77075  -0.76201
 Alpha  occ. eigenvalues --   -0.75343  -0.74695  -0.73705  -0.72143  -0.71300
 Alpha  occ. eigenvalues --   -0.70428  -0.70029  -0.69061  -0.68552  -0.67593
 Alpha  occ. eigenvalues --   -0.67460  -0.67241  -0.66314  -0.66283  -0.66194
 Alpha  occ. eigenvalues --   -0.65151  -0.64966  -0.63936  -0.63823  -0.62210
 Alpha  occ. eigenvalues --   -0.62090  -0.61442  -0.61007  -0.60373  -0.59632
 Alpha  occ. eigenvalues --   -0.59380  -0.58562  -0.58007  -0.57863  -0.57417
 Alpha  occ. eigenvalues --   -0.56937  -0.56887  -0.56293  -0.56088  -0.55924
 Alpha  occ. eigenvalues --   -0.55677  -0.55365  -0.55099  -0.54786  -0.54689
 Alpha  occ. eigenvalues --   -0.54618  -0.54211  -0.53928  -0.53756  -0.53386
 Alpha  occ. eigenvalues --   -0.53340  -0.53188  -0.53081  -0.52871  -0.52525
 Alpha  occ. eigenvalues --   -0.52205  -0.51950  -0.51713  -0.51526  -0.51401
 Alpha  occ. eigenvalues --   -0.51313  -0.51158  -0.51092  -0.50829  -0.50483
 Alpha  occ. eigenvalues --   -0.50221  -0.50074  -0.50035  -0.49770  -0.49645
 Alpha  occ. eigenvalues --   -0.49528  -0.49354  -0.49063  -0.48996  -0.48681
 Alpha  occ. eigenvalues --   -0.48570  -0.48336  -0.48289  -0.47938  -0.47879
 Alpha  occ. eigenvalues --   -0.47382  -0.47360  -0.47262  -0.47081  -0.46916
 Alpha  occ. eigenvalues --   -0.46558  -0.46509  -0.46219  -0.45929  -0.45711
 Alpha  occ. eigenvalues --   -0.45635  -0.45435  -0.45291  -0.44906  -0.44732
 Alpha  occ. eigenvalues --   -0.44548  -0.44313  -0.44212  -0.43989  -0.43732
 Alpha  occ. eigenvalues --   -0.43585  -0.43561  -0.43467  -0.43222  -0.42998
 Alpha  occ. eigenvalues --   -0.42925  -0.42797  -0.42721  -0.42151  -0.41863
 Alpha  occ. eigenvalues --   -0.41559  -0.41174  -0.40923  -0.40761  -0.40593
 Alpha  occ. eigenvalues --   -0.40572  -0.40008  -0.39644  -0.39496  -0.39265
 Alpha  occ. eigenvalues --   -0.38925  -0.38721  -0.38620  -0.38511  -0.38319
 Alpha  occ. eigenvalues --   -0.37983  -0.37820  -0.37386  -0.36669  -0.36307
 Alpha  occ. eigenvalues --   -0.36117  -0.35628  -0.35136  -0.33281  -0.32751
 Alpha  occ. eigenvalues --   -0.32528  -0.32064  -0.31983  -0.31737  -0.25860
 Alpha  occ. eigenvalues --   -0.22804
 Alpha virt. eigenvalues --   -0.07136   0.00217   0.02502   0.04689   0.05003
 Alpha virt. eigenvalues --    0.05549   0.06479   0.06995   0.07890   0.10230
 Alpha virt. eigenvalues --    0.11307   0.11361   0.11958   0.12272   0.12563

 Mulliken charges:
               1
     1  Mg   0.956889
     2  C    0.035893
     3  C   -0.098287
     4  C   -0.061340
     5  C   -0.087350
     6  N   -0.369111
     7  C    0.016375
     8  C   -0.078474
     9  C   -0.114113
    10  C    0.065598
    11  C    0.026026
    12  C    0.025617
    13  C   -0.005789
    14  C    0.234317
    15  O   -0.278671
    16  O   -0.399864
    17  N   -0.432746
    18  C    0.153695
    19  C   -0.164663
    20  C   -0.074239
    21  C    0.137747
    22  C    0.087522
    23  C    0.016927
    24  O   -0.259488
    25  C   -0.000449
    26  N   -0.344092
    27  C    0.042847
    28  C   -0.070656
    29  C   -0.076884
    30  C    0.082355
    31  C    0.026729
    32  C   -0.032490
    33  C   -0.070965
    34  N   -0.427481
    35  C    0.085545
    36  C   -0.138188
    37  C   -0.026129
    38  C    0.123372
    39  C    0.070456
    40  C    0.061841
    41  O   -0.214338
    42  C   -0.027879
    43  C    0.284336
    44  O   -0.273930
    45  O   -0.397227
    46  C    0.135034
    47  C    0.232468
    48  C   -0.142480
    49  C   -0.183770
    50  C    0.032479
    51  C    0.012347
    52  C   -0.002759
    53  C   -0.007902
    54  C   -0.197188
    55  C    0.023300
    56  C   -0.021328
    57  C   -0.000848
    58  C   -0.003617
    59  C   -0.195667
    60  C    0.014271
    61  C    0.040236
    62  C   -0.062841
    63  C    0.031386
    64  C   -0.193792
    65  C    0.008261
    66  C   -0.003558
    67  H   -0.005212
    68  H    0.026829
    69  H   -0.005271
    70  H    0.046544
    71  H    0.036523
    72  H    0.055580
    73  H    0.033501
    74  H    0.034620
    75  H    0.035351
    76  H    0.038017
    77  H    0.056560
    78  H    0.062787
    79  H    0.054136
    80  H    0.042526
    81  H    0.029659
    82  H    0.065343
    83  H    0.039197
    84  H    0.068561
    85  H    0.046998
    86  H    0.040806
    87  H    0.054923
    88  H    0.028936
    89  H    0.041231
    90  H    0.043253
    91  H    0.029050
    92  H    0.042041
    93  H    0.045225
    94  H    0.041246
    95  H    0.049258
    96  H    0.064417
    97  H    0.051731
    98  H    0.059898
    99  H    0.057406
   100  H    0.073976
   101  H    0.060144
   102  H    0.067534
   103  H    0.075090
   104  H    0.034764
   105  H    0.041091
   106  H    0.020301
   107  H    0.053022
   108  H    0.017541
   109  H    0.009107
   110  H    0.035914
   111  H    0.022619
   112  H    0.025758
   113  H   -0.015764
   114  H    0.017251
   115  H    0.029405
   116  H    0.014910
   117  H    0.037631
   118  H    0.015261
   119  H    0.020031
   120  H    0.013583
   121  H    0.024487
   122  H    0.013840
   123  H    0.019733
   124  H    0.022393
   125  H    0.033623
   126  H    0.017471
   127  H    0.022156
   128  H    0.014615
   129  H    0.010428
   130  H    0.013843
   131  H    0.009997
   132  H    0.019645
   133  H    0.011477
   134  H    0.014380
   135  H    0.031101
   136  H    0.026120
   137  H    0.009388
   138  H    0.041637
   139  H    0.015609
   140  H    0.023944
 Sum of Mulliken charges =  -0.00000

 Dipole moment (field-independent basis, Debye):
    X=              4.1683    Y=              1.8415    Z=             -3.7738  Tot=              5.9167
 Quadrupole moment (field-independent basis, Debye-Ang):
   XX=           -363.4309   YY=           -419.5101   ZZ=           -406.3631
   XY=            -19.5476   XZ=             17.6698   YZ=             10.1714

 Normal termination of Gaussian 16 at Thu May  5 03:21:51 2022.
