 Gaussian 16, Revision A.03,
 Gaussian 16:  ES64L-G16RevA.03 25-Dec-2016

 --------------------
 #p ZINDO=(nstates=5)
 --------------------

 ----------------------------
 step_51_chromophore_27 ZINDO
 ----------------------------
 Symbolic Z-matrix:
 Charge =  0 Multiplicity = 1

                         Standard orientation:
 ---------------------------------------------------------------------
 Center     Atomic      Atomic             Coordinates (Angstroms)
 Number     Number       Type             X           Y           Z
 ---------------------------------------------------------------------
      1         12           0       -4.444807    0.856990   -0.165651
      2          6           0       -4.023991   -2.534801    0.186447
      3          6           0       -1.035505    1.328615    0.392083
      4          6           0       -5.022357    4.064377    0.052964
      5          6           0       -7.947077    0.210509    0.151856
      6          7           0       -2.794013   -0.473134    0.247912
      7          6           0       -2.848324   -1.824589    0.152731
      8          6           0       -1.379131   -2.472647   -0.030387
      9          6           0       -0.458788   -1.198870    0.327808
     10          6           0       -1.478537   -0.028544    0.261275
     11          6           0        0.351813   -1.309019    1.717558
     12          6           0       -1.065991   -2.903120   -1.446879
     13          6           0       -0.043464   -4.006521   -1.643236
     14          6           0        1.385405   -3.895091   -0.997620
     15          8           0        1.697368   -4.103802    0.198487
     16          8           0        2.293578   -3.550023   -2.017504
     17          7           0       -3.161026    2.458093    0.119998
     18          6           0       -1.816944    2.502491    0.379351
     19          6           0       -1.350611    3.802326    0.536749
     20          6           0       -2.504921    4.649906    0.417807
     21          6           0       -3.642908    3.695715    0.189555
     22          6           0        0.088504    4.215187    0.928453
     23          6           0       -2.595692    6.129110    0.393385
     24          8           0       -3.656359    6.700728    0.103733
     25          6           0       -1.438094    6.890852    0.709303
     26          7           0       -6.228650    2.011188    0.188791
     27          6           0       -6.169369    3.333664   -0.074765
     28          6           0       -7.526983    3.948227   -0.431997
     29          6           0       -8.481282    2.722672   -0.286267
     30          6           0       -7.511464    1.580270    0.140554
     31          6           0       -8.037888    5.255918    0.311000
     32          6           0       -9.358930    2.360694   -1.549047
     33          6           0      -10.971874    2.438207   -1.319904
     34          7           0       -5.774357   -0.823101   -0.112055
     35          6           0       -7.199966   -0.968092    0.052104
     36          6           0       -7.626967   -2.334216   -0.014674
     37          6           0       -6.363308   -3.029446    0.063022
     38          6           0       -5.307008   -2.048731    0.020493
     39          6           0       -9.017638   -2.830880   -0.087192
     40          6           0       -5.669182   -4.302860    0.099246
     41          8           0       -6.078121   -5.456272    0.092059
     42          6           0       -4.177746   -4.056254    0.214928
     43          6           0       -3.727087   -4.734299    1.431804
     44          8           0       -4.012777   -4.358474    2.597064
     45          8           0       -2.847560   -5.758992    1.079671
     46          6           0       -2.114049   -6.566506    2.080959
     47          6           0        3.751913   -3.698434   -1.776456
     48          6           0        4.258384   -2.246901   -1.754800
     49          6           0        5.585883   -1.893648   -1.873512
     50          6           0        6.728638   -2.902792   -1.860934
     51          6           0        6.041411   -0.487462   -1.812685
     52          6           0        6.456006    0.266669   -3.104472
     53          6           0        7.920453    0.040085   -3.555394
     54          6           0        8.613364    1.411821   -4.020550
     55          6           0        9.090097    1.377013   -5.491609
     56          6           0        9.718888    1.802229   -3.047731
     57          6           0        9.175089    2.360638   -1.682070
     58          6           0       10.164643    2.104199   -0.576398
     59          6           0        9.639127    0.961112    0.444397
     60          6           0        9.852913   -0.474226   -0.126580
     61          6           0       10.376341    1.088448    1.756582
     62          6           0        9.593595    1.980727    2.707220
     63          6           0        8.677721    1.095540    3.601564
     64          6           0        9.336081    0.492396    4.850928
     65          6           0        8.829518   -0.881977    5.148758
     66          6           0        9.209888    1.345099    6.070944
     67          1           0        0.047296    1.456468    0.458889
     68          1           0       -5.200936    5.138124   -0.038112
     69          1           0       -9.002349   -0.050339    0.059582
     70          1           0       -1.104451   -3.279068    0.650711
     71          1           0        0.239003   -1.026283   -0.491293
     72          1           0        0.131625   -2.276868    2.169074
     73          1           0        0.152343   -0.524504    2.446970
     74          1           0        1.415715   -1.142074    1.555005
     75          1           0       -0.697185   -2.077698   -2.055875
     76          1           0       -1.962005   -3.306671   -1.917831
     77          1           0        0.126211   -4.137287   -2.712261
     78          1           0       -0.490874   -4.915818   -1.242303
     79          1           0        0.130462    4.840760    1.820603
     80          1           0        0.579279    4.735848    0.106294
     81          1           0        0.666290    3.303186    1.082252
     82          1           0       -1.137808    6.812623    1.753542
     83          1           0       -1.911134    7.872500    0.670272
     84          1           0       -0.676184    6.861597   -0.069119
     85          1           0       -7.506275    4.246668   -1.480530
     86          1           0       -9.138288    2.767002    0.582781
     87          1           0       -7.171977    5.607841    0.872360
     88          1           0       -8.856272    5.015052    0.988240
     89          1           0       -8.461080    5.964391   -0.400719
     90          1           0       -9.105350    1.369524   -1.924307
     91          1           0       -9.092055    3.073474   -2.328780
     92          1           0      -11.501611    2.966564   -2.112415
     93          1           0      -11.205014    2.915075   -0.368039
     94          1           0      -11.280014    1.394359   -1.385462
     95          1           0       -9.636601   -2.331939   -0.832434
     96          1           0       -9.496009   -2.911646    0.888761
     97          1           0       -8.979607   -3.875270   -0.396872
     98          1           0       -3.818060   -4.648391   -0.626533
     99          1           0       -2.637171   -7.519120    1.999503
    100          1           0       -2.150066   -6.158026    3.091361
    101          1           0       -1.093557   -6.782783    1.763756
    102          1           0        4.141128   -4.280767   -2.610849
    103          1           0        3.957950   -4.169062   -0.814266
    104          1           0        3.483951   -1.479950   -1.780458
    105          1           0        7.421007   -2.806459   -2.696913
    106          1           0        6.318369   -3.912266   -1.902342
    107          1           0        7.336205   -2.755696   -0.966884
    108          1           0        6.791886   -0.247009   -1.058849
    109          1           0        5.131051    0.003432   -1.468934
    110          1           0        6.377477    1.337439   -2.914165
    111          1           0        5.844518   -0.211404   -3.868980
    112          1           0        8.023311   -0.805234   -4.235023
    113          1           0        8.458375   -0.273305   -2.661191
    114          1           0        7.919558    2.250800   -3.971361
    115          1           0        8.194659    1.335233   -6.112067
    116          1           0        9.488484    0.367713   -5.594268
    117          1           0        9.828520    2.144138   -5.725218
    118          1           0       10.241620    2.630869   -3.526388
    119          1           0       10.326915    0.908112   -2.910384
    120          1           0        8.205807    1.908471   -1.470804
    121          1           0        9.161038    3.440501   -1.830050
    122          1           0       10.360423    3.060972   -0.091865
    123          1           0       11.114654    1.796044   -1.013438
    124          1           0        8.573329    1.165273    0.535320
    125          1           0       10.224148   -0.411114   -1.149979
    126          1           0        9.005946   -1.160567   -0.114930
    127          1           0       10.517201   -1.019473    0.543202
    128          1           0       11.375989    1.501757    1.620342
    129          1           0       10.511171    0.153190    2.301813
    130          1           0        9.003481    2.722686    2.169890
    131          1           0       10.342358    2.575606    3.231833
    132          1           0        8.122374    0.387215    2.987671
    133          1           0        8.031795    1.902277    3.947330
    134          1           0       10.417957    0.493411    4.722051
    135          1           0        9.527366   -1.686566    4.918268
    136          1           0        7.842738   -1.096163    4.737602
    137          1           0        8.626900   -1.019040    6.210360
    138          1           0        8.276991    1.358125    6.633344
    139          1           0        9.532799    2.349807    5.799018
    140          1           0       10.043647    0.934479    6.641684
 ---------------------------------------------------------------------

 SCF Done:  E(RZINDO/S) =  -474.138515664     A.U. after   20 cycles

 Excitation energies and oscillator strengths:

 Excited State   1:      Singlet-A      1.2407 eV  999.33 nm  f=0.6026  <S**2>=0.000
     175 ->178        -0.19082
     176 ->177         0.66340
 This state for optimization and/or second-order correction.
 Total Energy, E(CIS/TDA) =  -474.092921887
 Copying the excited state density for this state as the 1-particle RhoCI density.

 Excited State   2:      Singlet-A      1.8822 eV  658.72 nm  f=0.0545  <S**2>=0.000
     175 ->177         0.55462
     176 ->178         0.41028

 Excited State   3:      Singlet-A      2.8477 eV  435.38 nm  f=0.0323  <S**2>=0.000
     168 ->177        -0.36408
     168 ->179         0.36797
     168 ->181        -0.14321
     168 ->186         0.20111
     169 ->177         0.18848
     169 ->179        -0.17073
     176 ->178         0.10609

 Excited State   4:      Singlet-A      2.9155 eV  425.25 nm  f=0.7836  <S**2>=0.000
     170 ->181        -0.10789
     171 ->177        -0.17581
     175 ->177        -0.34080
     176 ->178         0.49312
     176 ->181        -0.11884

 Excited State   5:      Singlet-A      2.9392 eV  421.83 nm  f=0.1026  <S**2>=0.000
     170 ->177         0.29611
     170 ->178        -0.14338
     170 ->179         0.24764
     170 ->181         0.34076
     170 ->182        -0.12649
     170 ->183        -0.20418
     170 ->186         0.14691
     170 ->187         0.21228
     170 ->200        -0.12019
     175 ->177        -0.12126
     176 ->178         0.17158

 The electronic state is 1-A.
 Alpha  occ. eigenvalues --   -1.83771  -1.81429  -1.78809  -1.70891  -1.69870
 Alpha  occ. eigenvalues --   -1.68131  -1.67601  -1.63037  -1.60265  -1.58830
 Alpha  occ. eigenvalues --   -1.55396  -1.51866  -1.49016  -1.47759  -1.45319
 Alpha  occ. eigenvalues --   -1.43399  -1.42966  -1.39624  -1.39263  -1.37300
 Alpha  occ. eigenvalues --   -1.35489  -1.33718  -1.33228  -1.30547  -1.28220
 Alpha  occ. eigenvalues --   -1.27519  -1.24953  -1.22046  -1.19686  -1.18550
 Alpha  occ. eigenvalues --   -1.17683  -1.16859  -1.15602  -1.14506  -1.13635
 Alpha  occ. eigenvalues --   -1.11836  -1.10274  -1.09866  -1.05984  -1.04053
 Alpha  occ. eigenvalues --   -1.01809  -1.01670  -0.98655  -0.97503  -0.96418
 Alpha  occ. eigenvalues --   -0.95291  -0.95022  -0.94876  -0.93619  -0.92747
 Alpha  occ. eigenvalues --   -0.90836  -0.90708  -0.88317  -0.87964  -0.86000
 Alpha  occ. eigenvalues --   -0.85589  -0.84137  -0.83193  -0.81839  -0.81131
 Alpha  occ. eigenvalues --   -0.80268  -0.79383  -0.77802  -0.76967  -0.76635
 Alpha  occ. eigenvalues --   -0.75928  -0.74603  -0.74300  -0.73948  -0.73392
 Alpha  occ. eigenvalues --   -0.73110  -0.72511  -0.71851  -0.71183  -0.70371
 Alpha  occ. eigenvalues --   -0.69313  -0.69036  -0.68188  -0.68028  -0.67638
 Alpha  occ. eigenvalues --   -0.67232  -0.67079  -0.66759  -0.66091  -0.65501
 Alpha  occ. eigenvalues --   -0.65145  -0.64751  -0.64014  -0.63984  -0.63375
 Alpha  occ. eigenvalues --   -0.62942  -0.62641  -0.62153  -0.62023  -0.61104
 Alpha  occ. eigenvalues --   -0.60734  -0.60469  -0.60382  -0.59834  -0.59707
 Alpha  occ. eigenvalues --   -0.59363  -0.59246  -0.59008  -0.58629  -0.58122
 Alpha  occ. eigenvalues --   -0.57604  -0.57431  -0.57126  -0.56761  -0.56601
 Alpha  occ. eigenvalues --   -0.56218  -0.55625  -0.55468  -0.55224  -0.55102
 Alpha  occ. eigenvalues --   -0.54709  -0.54207  -0.53578  -0.53086  -0.52977
 Alpha  occ. eigenvalues --   -0.52387  -0.52274  -0.52041  -0.51764  -0.51276
 Alpha  occ. eigenvalues --   -0.51067  -0.50960  -0.50842  -0.50591  -0.50418
 Alpha  occ. eigenvalues --   -0.50021  -0.49982  -0.49478  -0.49002  -0.48661
 Alpha  occ. eigenvalues --   -0.48179  -0.48022  -0.47916  -0.47689  -0.47413
 Alpha  occ. eigenvalues --   -0.46968  -0.46859  -0.46701  -0.46508  -0.46258
 Alpha  occ. eigenvalues --   -0.46143  -0.45907  -0.45491  -0.45202  -0.44857
 Alpha  occ. eigenvalues --   -0.44712  -0.44652  -0.44466  -0.44287  -0.43846
 Alpha  occ. eigenvalues --   -0.43721  -0.43506  -0.43390  -0.42469  -0.42225
 Alpha  occ. eigenvalues --   -0.41883  -0.41358  -0.40882  -0.39655  -0.38875
 Alpha  occ. eigenvalues --   -0.38154  -0.37887  -0.35297  -0.34723  -0.33921
 Alpha  occ. eigenvalues --   -0.33219  -0.32454  -0.32192  -0.31889  -0.26544
 Alpha  occ. eigenvalues --   -0.21748
 Alpha virt. eigenvalues --   -0.08628  -0.02088  -0.00659   0.00812   0.01377
 Alpha virt. eigenvalues --    0.01790   0.02132   0.02973   0.04032   0.05046
 Alpha virt. eigenvalues --    0.06528   0.07120   0.07427   0.07643   0.08243

 Mulliken charges:
               1
     1  Mg   0.435694
     2  C   -0.056769
     3  C   -0.076256
     4  C   -0.050757
     5  C   -0.057805
     6  N   -0.278867
     7  C    0.155365
     8  C   -0.000695
     9  C   -0.008588
    10  C    0.093763
    11  C   -0.052476
    12  C   -0.006339
    13  C    0.011041
    14  C    0.459776
    15  O   -0.515896
    16  O   -0.286619
    17  N   -0.304451
    18  C    0.094599
    19  C   -0.013544
    20  C   -0.077033
    21  C    0.126911
    22  C   -0.045903
    23  C    0.339946
    24  O   -0.554582
    25  C   -0.038797
    26  N   -0.250523
    27  C    0.115649
    28  C    0.001714
    29  C    0.000641
    30  C    0.143418
    31  C   -0.055151
    32  C   -0.038283
    33  C   -0.065123
    34  N   -0.354271
    35  C    0.102295
    36  C    0.066219
    37  C   -0.056914
    38  C    0.157502
    39  C   -0.030471
    40  C    0.341927
    41  O   -0.528947
    42  C    0.054857
    43  C    0.499040
    44  O   -0.532545
    45  O   -0.282490
    46  C    0.074412
    47  C    0.105494
    48  C   -0.089870
    49  C   -0.003784
    50  C   -0.046655
    51  C   -0.024468
    52  C   -0.035908
    53  C   -0.045112
    54  C   -0.020662
    55  C   -0.063806
    56  C   -0.039090
    57  C   -0.041997
    58  C   -0.038670
    59  C   -0.009180
    60  C   -0.067373
    61  C   -0.029976
    62  C   -0.041432
    63  C   -0.035133
    64  C    0.004819
    65  C   -0.053303
    66  C   -0.053734
    67  H    0.026636
    68  H    0.046658
    69  H    0.024729
    70  H    0.048180
    71  H    0.029125
    72  H    0.032759
    73  H    0.022818
    74  H    0.022916
    75  H    0.026315
    76  H    0.014945
    77  H    0.032061
    78  H    0.038982
    79  H    0.031391
    80  H    0.025938
    81  H    0.020360
    82  H    0.045476
    83  H    0.026244
    84  H    0.048709
    85  H    0.032202
    86  H    0.033909
    87  H    0.037245
    88  H    0.017955
    89  H    0.027111
    90  H    0.026637
    91  H    0.020453
    92  H    0.023823
    93  H    0.028200
    94  H    0.020218
    95  H    0.033949
    96  H    0.044060
    97  H    0.026130
    98  H    0.055392
    99  H    0.036260
   100  H    0.057943
   101  H    0.039816
   102  H    0.047307
   103  H    0.062536
   104  H    0.043269
   105  H    0.027346
   106  H    0.016716
   107  H    0.030889
   108  H    0.026594
   109  H    0.004275
   110  H    0.033462
   111  H    0.025967
   112  H    0.025661
   113  H    0.014269
   114  H    0.014456
   115  H    0.017948
   116  H    0.013326
   117  H    0.031204
   118  H    0.015542
   119  H    0.025110
   120  H    0.029735
   121  H    0.018582
   122  H    0.015770
   123  H    0.018934
   124  H    0.025824
   125  H    0.023094
   126  H    0.016720
   127  H    0.017591
   128  H    0.013202
   129  H    0.016678
   130  H    0.013860
   131  H    0.013352
   132  H    0.027933
   133  H    0.008853
   134  H    0.019326
   135  H    0.017089
   136  H    0.018622
   137  H    0.007866
   138  H    0.030644
   139  H    0.008671
   140  H    0.011402
 Sum of Mulliken charges =  -0.00000

 Dipole moment (field-independent basis, Debye):
    X=              3.3574    Y=              0.0698    Z=             -5.9278  Tot=              6.8129
 N-N= 4.427244280784D+03 E-N= 0.000000000000D+00  KE=-9.528937383273D+03
 Leave Link  601 at Thu May  5 03:41:28 2022, MaxMem=  6710886400 cpu:               0.8 elap:               0.0
 (Enter /sw/apps/gaussian-16.0/g16/l9999.exe)
 1\1\GINC-BP1-COMPUTE168\SP\RZINDO CIS\STO-3G\C55H74Mg1N4O6\OF15641\05-
 May-2022\0\\#p ZINDO=(nstates=5)\\step_51_chromophore_27 ZINDO\\0,1\Mg
 ,0,-5.573,24.671,27.637\C,0,-3.626,26.449,29.84\C,0,-6.464,22.485,30.2
 03\C,0,-6.924,22.73,25.384\C,0,-3.872,26.471,25.058\N,0,-5.063,24.528,
 29.731\C,0,-4.402,25.482,30.432\C,0,-4.666,25.35,32.021\C,0,-5.353,23.
 893,32.076\C,0,-5.705,23.64,30.584\C,0,-4.459,22.74,32.763\C,0,-5.649,
 26.361,32.57\C,0,-5.54,26.732,34.037\C,0,-5.544,25.617,35.145\O,0,-4.5

 Normal termination of Gaussian 16 at Thu May  5 03:41:28 2022.
