 Gaussian 16, Revision A.03,
 Gaussian 16:  ES64L-G16RevA.03 25-Dec-2016

 ------------------------------
 #p blyp/Def2SVP td=(nstates=5)
 ------------------------------

 --------------------------------------------------
 step_1501_chromophore_4 TDDFT with blyp functional
 --------------------------------------------------
 Symbolic Z-matrix:
 Charge =  0 Multiplicity = 1

                         Standard orientation:
 ---------------------------------------------------------------------
 Center     Atomic      Atomic             Coordinates (Angstroms)
 Number     Number       Type             X           Y           Z
 ---------------------------------------------------------------------
      1         12           0        5.997655    0.364277    0.083860
      2          6           0        3.735250   -2.098551    0.224275
      3          6           0        3.386730    2.672313   -0.700141
      4          6           0        8.156438    2.965945   -0.014706
      5          6           0        8.629976   -1.794451    0.724938
      6          7           0        3.834873    0.275301   -0.301069
      7          6           0        3.123673   -0.897564   -0.163569
      8          6           0        1.626034   -0.639249   -0.263520
      9          6           0        1.484540    0.872037   -0.739738
     10          6           0        2.971144    1.322740   -0.618994
     11          6           0        0.787531    1.011748   -2.195919
     12          6           0        0.926610   -0.885164    1.197483
     13          6           0       -0.314588   -1.840377    1.254056
     14          6           0       -1.385794   -1.806828    0.067067
     15          8           0       -1.096316   -1.979893   -1.123605
     16          8           0       -2.667326   -1.440594    0.387021
     17          7           0        5.818988    2.431915   -0.419092
     18          6           0        4.671840    3.217789   -0.650264
     19          6           0        5.023905    4.617935   -0.877741
     20          6           0        6.442989    4.724729   -0.639714
     21          6           0        6.870701    3.290128   -0.355455
     22          6           0        3.934777    5.650107   -1.307343
     23          6           0        7.254927    6.058196   -0.676651
     24          8           0        8.501660    6.115415   -0.486443
     25          6           0        6.539805    7.340970   -0.797589
     26          7           0        8.170952    0.475442    0.001300
     27          6           0        8.776232    1.705469    0.108957
     28          6           0       10.284678    1.622240    0.266199
     29          6           0       10.431892    0.151717    0.735229
     30          6           0        9.016518   -0.444129    0.445183
     31          6           0       10.805003    2.016473   -1.167766
     32          6           0       10.737141   -0.098230    2.187854
     33          6           0       11.895276   -1.006459    2.613280
     34          7           0        6.155597   -1.505534    0.345920
     35          6           0        7.318468   -2.280195    0.677123
     36          6           0        6.857258   -3.661375    0.838072
     37          6           0        5.424930   -3.664372    0.695798
     38          6           0        5.169501   -2.314141    0.419102
     39          6           0        7.786351   -4.774606    1.089229
     40          6           0        4.183477   -4.428823    0.701806
     41          8           0        3.946668   -5.625232    0.890499
     42          6           0        3.055601   -3.446057    0.316922
     43          6           0        2.441176   -3.877463   -0.934183
     44          8           0        2.927920   -3.885804   -2.047084
     45          8           0        1.159045   -4.484922   -0.637733
     46          6           0        0.411409   -4.915985   -1.845717
     47          6           0       -3.522469   -1.163221   -0.793300
     48          6           0       -4.924252   -1.376943   -0.413045
     49          6           0       -5.697057   -2.495293   -0.413581
     50          6           0       -5.209606   -3.834001   -0.903851
     51          6           0       -7.039295   -2.499756    0.156099
     52          6           0       -7.985727   -1.478076   -0.535101
     53          6           0       -8.066607   -0.069561    0.155121
     54          6           0       -9.431061    0.618124    0.034750
     55          6           0       -9.901708    0.861002   -1.446991
     56          6           0       -9.533082    1.945193    0.857288
     57          6           0      -10.589384    1.907252    1.943521
     58          6           0      -11.757353    2.904646    1.760349
     59          6           0      -13.003281    2.426692    2.554024
     60          6           0      -13.449581    3.341456    3.737553
     61          6           0      -14.305281    2.226271    1.680261
     62          6           0      -14.083652    0.943061    0.841585
     63          6           0      -14.511893    1.074635   -0.632014
     64          6           0      -14.603080   -0.280059   -1.412022
     65          6           0      -14.219020   -0.177141   -2.949536
     66          6           0      -15.952232   -0.937821   -1.178435
     67          1           0        2.655832    3.401752   -1.054339
     68          1           0        8.881417    3.764226    0.161746
     69          1           0        9.407961   -2.501303    1.023777
     70          1           0        1.194993   -1.343586   -0.974906
     71          1           0        0.929118    1.484227   -0.029350
     72          1           0       -0.216477    1.427038   -2.106318
     73          1           0        0.698747    0.025239   -2.650391
     74          1           0        1.350175    1.746500   -2.770184
     75          1           0        0.712133    0.042331    1.729256
     76          1           0        1.687524   -1.318562    1.846776
     77          1           0       -0.935369   -1.536387    2.096330
     78          1           0       -0.068857   -2.874751    1.493570
     79          1           0        3.474928    6.249022   -0.520356
     80          1           0        3.117287    5.144740   -1.822024
     81          1           0        4.363267    6.294292   -2.075012
     82          1           0        5.829684    7.538635    0.005155
     83          1           0        5.990520    7.367415   -1.738051
     84          1           0        7.206585    8.198017   -0.700493
     85          1           0       10.727970    2.316649    0.978751
     86          1           0       11.150906   -0.322355    0.067810
     87          1           0       11.410379    1.174917   -1.504601
     88          1           0       11.503507    2.847300   -1.068908
     89          1           0       10.019984    2.229436   -1.894337
     90          1           0        9.973484   -0.576824    2.800355
     91          1           0       11.047754    0.884159    2.543412
     92          1           0       11.553957   -1.805631    3.270757
     93          1           0       12.607424   -0.414177    3.187408
     94          1           0       12.310977   -1.528722    1.751591
     95          1           0        8.069550   -4.791906    2.141495
     96          1           0        8.617525   -4.841271    0.387263
     97          1           0        7.197312   -5.665085    0.871926
     98          1           0        2.387660   -3.532711    1.174150
     99          1           0        1.023175   -5.577854   -2.459662
    100          1           0        0.026803   -4.020300   -2.332560
    101          1           0       -0.439696   -5.520304   -1.531369
    102          1           0       -3.360044   -1.732567   -1.708704
    103          1           0       -3.311172   -0.124277   -1.046914
    104          1           0       -5.452008   -0.458357   -0.157736
    105          1           0       -4.197108   -4.041143   -0.556861
    106          1           0       -5.153942   -3.919604   -1.988564
    107          1           0       -5.748739   -4.733954   -0.607344
    108          1           0       -6.987028   -2.326977    1.231620
    109          1           0       -7.482292   -3.493870    0.205346
    110          1           0       -8.970079   -1.943172   -0.581916
    111          1           0       -7.619818   -1.312449   -1.548223
    112          1           0       -7.361573    0.622727   -0.305962
    113          1           0       -7.715199   -0.143121    1.184139
    114          1           0      -10.134570   -0.150809    0.357330
    115          1           0       -9.015586    1.259139   -1.941259
    116          1           0      -10.695356    1.607410   -1.476245
    117          1           0      -10.340185   -0.061892   -1.827350
    118          1           0       -9.721522    2.768762    0.167263
    119          1           0       -8.551947    2.103645    1.303503
    120          1           0      -10.098407    2.212678    2.867771
    121          1           0      -10.974167    0.893444    2.064162
    122          1           0      -11.979978    2.940210    0.694585
    123          1           0      -11.351418    3.859590    2.093445
    124          1           0      -12.681521    1.500023    3.029105
    125          1           0      -13.379684    2.815618    4.689849
    126          1           0      -14.478878    3.700023    3.742037
    127          1           0      -12.810363    4.188257    3.990554
    128          1           0      -14.716207    3.053772    1.102169
    129          1           0      -15.090194    1.996970    2.401036
    130          1           0      -14.608392    0.095351    1.282347
    131          1           0      -13.044666    0.635890    0.955838
    132          1           0      -13.821266    1.729881   -1.161867
    133          1           0      -15.520835    1.471467   -0.519964
    134          1           0      -13.842109   -0.960617   -1.029642
    135          1           0      -13.170605   -0.433930   -3.100354
    136          1           0      -14.374486    0.872264   -3.197254
    137          1           0      -14.845457   -0.652906   -3.704670
    138          1           0      -16.649035   -0.519393   -0.452327
    139          1           0      -15.721678   -1.954024   -0.858937
    140          1           0      -16.553253   -0.849025   -2.083056
 ---------------------------------------------------------------------

 SCF Done:  E(RB-LYP) =  -3007.37330403     A.U. after   21 cycles

 Excitation energies and oscillator strengths:

 Excited State   1:      Singlet-A      1.7570 eV  705.65 nm  f=0.2936  <S**2>=0.000
     245 -> 248        0.16460
     245 -> 249        0.10939
     246 -> 247        0.69100
     246 <- 247       -0.15476
 This state for optimization and/or second-order correction.
 Total Energy, E(TD-HF/TD-DFT) =  -3007.30873428
 Copying the excited state density for this state as the 1-particle RhoCI density.

 Excited State   2:      Singlet-A      1.9940 eV  621.78 nm  f=0.0552  <S**2>=0.000
     243 -> 247        0.13946
     244 -> 247       -0.37211
     245 -> 247        0.53899
     246 -> 248       -0.18080
     246 -> 249       -0.11403

 Excited State   3:      Singlet-A      2.0447 eV  606.35 nm  f=0.0094  <S**2>=0.000
     243 -> 247        0.41466
     244 -> 247        0.52097
     245 -> 247        0.21098

 Excited State   4:      Singlet-A      2.0637 eV  600.78 nm  f=0.0163  <S**2>=0.000
     243 -> 247        0.55441
     244 -> 247       -0.29443
     245 -> 247       -0.28480
     246 -> 248        0.12039

 Excited State   5:      Singlet-A      2.3545 eV  526.59 nm  f=0.0004  <S**2>=0.000
     242 -> 247        0.70594

 The electronic state is 1-A.
 Alpha  occ. eigenvalues --  -46.26246 -18.82606 -18.79869 -18.77001 -18.76536
 Alpha  occ. eigenvalues --  -18.75586 -18.75473 -14.03194 -14.02990 -14.01247
 Alpha  occ. eigenvalues --  -14.00859 -10.04843 -10.03046 -10.00402  -9.99673
 Alpha  occ. eigenvalues --   -9.97736  -9.96678  -9.96577  -9.96260  -9.96162
 Alpha  occ. eigenvalues --   -9.95898  -9.95642  -9.95584  -9.95539  -9.94650
 Alpha  occ. eigenvalues --   -9.94633  -9.94535  -9.94514  -9.94298  -9.93971
 Alpha  occ. eigenvalues --   -9.93900  -9.93846  -9.93714  -9.93704  -9.93698
 Alpha  occ. eigenvalues --   -9.93432  -9.93308  -9.93151  -9.93088  -9.92474
 Alpha  occ. eigenvalues --   -9.92395  -9.92326  -9.92290  -9.92286  -9.92282
 Alpha  occ. eigenvalues --   -9.92149  -9.92101  -9.92039  -9.92023  -9.91993
 Alpha  occ. eigenvalues --   -9.91810  -9.91767  -9.91710  -9.91543  -9.91375
 Alpha  occ. eigenvalues --   -9.91339  -9.91307  -9.91271  -9.91201  -9.91193
 Alpha  occ. eigenvalues --   -9.91094  -9.91029  -9.91010  -9.90874  -9.90639
 Alpha  occ. eigenvalues --   -9.90481  -2.91179  -1.71584  -1.71070  -1.70907
 Alpha  occ. eigenvalues --   -0.98033  -0.95005  -0.90523  -0.89525  -0.89142
 Alpha  occ. eigenvalues --   -0.87891  -0.87215  -0.86478  -0.84688  -0.83888
 Alpha  occ. eigenvalues --   -0.75149  -0.74363  -0.73082  -0.72695  -0.72086
 Alpha  occ. eigenvalues --   -0.71989  -0.71156  -0.70681  -0.70596  -0.70442
 Alpha  occ. eigenvalues --   -0.69492  -0.68765  -0.67862  -0.67631  -0.67127
 Alpha  occ. eigenvalues --   -0.66354  -0.65806  -0.65287  -0.64773  -0.64247
 Alpha  occ. eigenvalues --   -0.63790  -0.62469  -0.61952  -0.61697  -0.60639
 Alpha  occ. eigenvalues --   -0.60211  -0.60016  -0.59736  -0.59572  -0.58895
 Alpha  occ. eigenvalues --   -0.58392  -0.57263  -0.56638  -0.55775  -0.54154
 Alpha  occ. eigenvalues --   -0.54053  -0.53514  -0.52479  -0.52272  -0.51425
 Alpha  occ. eigenvalues --   -0.51024  -0.50691  -0.50322  -0.50056  -0.50045
 Alpha  occ. eigenvalues --   -0.49757  -0.49293  -0.48815  -0.47442  -0.46753
 Alpha  occ. eigenvalues --   -0.46479  -0.45894  -0.45256  -0.45024  -0.44461
 Alpha  occ. eigenvalues --   -0.44079  -0.43901  -0.42718  -0.42513  -0.42070
 Alpha  occ. eigenvalues --   -0.41813  -0.41535  -0.41269  -0.41141  -0.40824
 Alpha  occ. eigenvalues --   -0.40643  -0.40585  -0.40367  -0.40076  -0.39762
 Alpha  occ. eigenvalues --   -0.39673  -0.39495  -0.39263  -0.39053  -0.38920
 Alpha  occ. eigenvalues --   -0.38727  -0.38692  -0.38533  -0.38484  -0.38163
 Alpha  occ. eigenvalues --   -0.37992  -0.37920  -0.37658  -0.37291  -0.37085
 Alpha  occ. eigenvalues --   -0.36752  -0.36623  -0.36582  -0.36251  -0.36047
 Alpha  occ. eigenvalues --   -0.35952  -0.35855  -0.35725  -0.35574  -0.35454
 Alpha  occ. eigenvalues --   -0.35343  -0.35070  -0.34969  -0.34933  -0.34835
 Alpha  occ. eigenvalues --   -0.34757  -0.34359  -0.34334  -0.33997  -0.33792
 Alpha  occ. eigenvalues --   -0.33728  -0.33686  -0.33596  -0.33280  -0.32920
 Alpha  occ. eigenvalues --   -0.32801  -0.32465  -0.32386  -0.32249  -0.32051
 Alpha  occ. eigenvalues --   -0.31757  -0.31608  -0.31392  -0.31220  -0.31193
 Alpha  occ. eigenvalues --   -0.31110  -0.31012  -0.30671  -0.30634  -0.30448
 Alpha  occ. eigenvalues --   -0.30368  -0.30066  -0.29975  -0.29770  -0.29552
 Alpha  occ. eigenvalues --   -0.29495  -0.29249  -0.29231  -0.29210  -0.28972
 Alpha  occ. eigenvalues --   -0.28777  -0.28656  -0.28319  -0.27879  -0.27847
 Alpha  occ. eigenvalues --   -0.27730  -0.27577  -0.27529  -0.26527  -0.26498
 Alpha  occ. eigenvalues --   -0.26364  -0.26177  -0.25644  -0.25640  -0.25396
 Alpha  occ. eigenvalues --   -0.25334  -0.24476  -0.24192  -0.23898  -0.23603
 Alpha  occ. eigenvalues --   -0.23310  -0.22260  -0.21796  -0.21413  -0.21100
 Alpha  occ. eigenvalues --   -0.20577  -0.19926  -0.18713  -0.18649  -0.17098
 Alpha  occ. eigenvalues --   -0.15374
 Alpha virt. eigenvalues --   -0.11280  -0.07044  -0.05983  -0.04931  -0.04006
 Alpha virt. eigenvalues --   -0.03723  -0.02468  -0.01958  -0.01298   0.00053
 Alpha virt. eigenvalues --    0.01086   0.01527   0.01689   0.02584   0.02752

 Mulliken charges:
               1
     1  Mg   0.726476
     2  C   -0.034494
     3  C   -0.059198
     4  C   -0.056174
     5  C   -0.091859
     6  N   -0.230801
     7  C   -0.051446
     8  C    0.013601
     9  C    0.008645
    10  C    0.029805
    11  C    0.115898
    12  C    0.106647
    13  C    0.114151
    14  C    0.104433
    15  O   -0.225242
    16  O   -0.259745
    17  N   -0.265354
    18  C    0.116435
    19  C   -0.125152
    20  C   -0.003266
    21  C    0.156210
    22  C    0.153214
    23  C   -0.036051
    24  O   -0.196870
    25  C    0.140831
    26  N   -0.185201
    27  C   -0.020045
    28  C   -0.036343
    29  C    0.107549
    30  C   -0.008915
    31  C    0.130246
    32  C    0.086271
    33  C    0.052768
    34  N   -0.318765
    35  C    0.166751
    36  C   -0.216781
    37  C    0.098773
    38  C    0.092584
    39  C    0.175059
    40  C   -0.092347
    41  O   -0.135788
    42  C    0.122625
    43  C    0.144269
    44  O   -0.164280
    45  O   -0.331467
    46  C    0.223146
    47  C    0.336828
    48  C   -0.119273
    49  C   -0.123669
    50  C    0.115665
    51  C    0.165502
    52  C    0.071479
    53  C    0.070030
    54  C   -0.106182
    55  C    0.085738
    56  C    0.160142
    57  C    0.023088
    58  C    0.122840
    59  C   -0.065789
    60  C    0.097838
    61  C    0.124973
    62  C    0.039834
    63  C    0.106746
    64  C   -0.088771
    65  C    0.085613
    66  C    0.104131
    67  H   -0.075098
    68  H   -0.050520
    69  H   -0.060747
    70  H    0.020756
    71  H   -0.019965
    72  H   -0.013855
    73  H    0.019158
    74  H   -0.009461
    75  H   -0.019057
    76  H   -0.019816
    77  H   -0.020219
    78  H    0.024365
    79  H    0.012919
    80  H   -0.008709
    81  H   -0.008215
    82  H    0.007616
    83  H    0.003264
    84  H   -0.008922
    85  H   -0.018758
    86  H   -0.035507
    87  H   -0.023408
    88  H   -0.000401
    89  H    0.027624
    90  H   -0.000255
    91  H   -0.024734
    92  H   -0.015628
    93  H   -0.003993
    94  H   -0.012302
    95  H    0.006862
    96  H    0.000608
    97  H   -0.001646
    98  H   -0.010284
    99  H    0.013357
   100  H    0.024018
   101  H   -0.004270
   102  H    0.009095
   103  H   -0.024704
   104  H   -0.046747
   105  H    0.000521
   106  H    0.003616
   107  H   -0.017508
   108  H   -0.015430
   109  H   -0.052971
   110  H   -0.027590
   111  H   -0.015946
   112  H   -0.016871
   113  H   -0.028061
   114  H   -0.037393
   115  H   -0.013711
   116  H   -0.010522
   117  H   -0.003963
   118  H   -0.038892
   119  H   -0.049830
   120  H   -0.035646
   121  H   -0.016372
   122  H   -0.028167
   123  H   -0.027881
   124  H   -0.026608
   125  H   -0.034945
   126  H   -0.017366
   127  H   -0.033804
   128  H   -0.020843
   129  H   -0.040725
   130  H   -0.041410
   131  H   -0.037773
   132  H   -0.028612
   133  H   -0.029152
   134  H   -0.037572
   135  H   -0.004442
   136  H   -0.026211
   137  H   -0.015589
   138  H   -0.021480
   139  H   -0.009827
   140  H   -0.021014
 Sum of Mulliken charges =  -0.00000

 Dipole moment (field-independent basis, Debye):
    X=             -3.4021    Y=              3.3826    Z=              2.1757  Tot=              5.2679
 Quadrupole moment (field-independent basis, Debye-Ang):
   XX=           -375.5286   YY=           -429.1883   ZZ=           -405.9304
   XY=              2.1540   XZ=             14.7514   YZ=             -3.3134

 Normal termination of Gaussian 16 at Thu Apr 28 09:01:53 2022.
