 Gaussian 16, Revision A.03,
 Gaussian 16:  ES64L-G16RevA.03 25-Dec-2016

 -----------------------------------
 #p cam-b3lyp/Def2SVP td=(nstates=5)
 -----------------------------------

 -------------------------------------------------------
 step_1501_chromophore_4 TDDFT with cam-b3lyp functional
 -------------------------------------------------------
 Symbolic Z-matrix:
 Charge =  0 Multiplicity = 1

                         Standard orientation:
 ---------------------------------------------------------------------
 Center     Atomic      Atomic             Coordinates (Angstroms)
 Number     Number       Type             X           Y           Z
 ---------------------------------------------------------------------
      1         12           0        5.997655    0.364277    0.083860
      2          6           0        3.735250   -2.098551    0.224275
      3          6           0        3.386730    2.672313   -0.700141
      4          6           0        8.156438    2.965945   -0.014706
      5          6           0        8.629976   -1.794451    0.724938
      6          7           0        3.834873    0.275301   -0.301069
      7          6           0        3.123673   -0.897564   -0.163569
      8          6           0        1.626034   -0.639249   -0.263520
      9          6           0        1.484540    0.872037   -0.739738
     10          6           0        2.971144    1.322740   -0.618994
     11          6           0        0.787531    1.011748   -2.195919
     12          6           0        0.926610   -0.885164    1.197483
     13          6           0       -0.314588   -1.840377    1.254056
     14          6           0       -1.385794   -1.806828    0.067067
     15          8           0       -1.096316   -1.979893   -1.123605
     16          8           0       -2.667326   -1.440594    0.387021
     17          7           0        5.818988    2.431915   -0.419092
     18          6           0        4.671840    3.217789   -0.650264
     19          6           0        5.023905    4.617935   -0.877741
     20          6           0        6.442989    4.724729   -0.639714
     21          6           0        6.870701    3.290128   -0.355455
     22          6           0        3.934777    5.650107   -1.307343
     23          6           0        7.254927    6.058196   -0.676651
     24          8           0        8.501660    6.115415   -0.486443
     25          6           0        6.539805    7.340970   -0.797589
     26          7           0        8.170952    0.475442    0.001300
     27          6           0        8.776232    1.705469    0.108957
     28          6           0       10.284678    1.622240    0.266199
     29          6           0       10.431892    0.151717    0.735229
     30          6           0        9.016518   -0.444129    0.445183
     31          6           0       10.805003    2.016473   -1.167766
     32          6           0       10.737141   -0.098230    2.187854
     33          6           0       11.895276   -1.006459    2.613280
     34          7           0        6.155597   -1.505534    0.345920
     35          6           0        7.318468   -2.280195    0.677123
     36          6           0        6.857258   -3.661375    0.838072
     37          6           0        5.424930   -3.664372    0.695798
     38          6           0        5.169501   -2.314141    0.419102
     39          6           0        7.786351   -4.774606    1.089229
     40          6           0        4.183477   -4.428823    0.701806
     41          8           0        3.946668   -5.625232    0.890499
     42          6           0        3.055601   -3.446057    0.316922
     43          6           0        2.441176   -3.877463   -0.934183
     44          8           0        2.927920   -3.885804   -2.047084
     45          8           0        1.159045   -4.484922   -0.637733
     46          6           0        0.411409   -4.915985   -1.845717
     47          6           0       -3.522469   -1.163221   -0.793300
     48          6           0       -4.924252   -1.376943   -0.413045
     49          6           0       -5.697057   -2.495293   -0.413581
     50          6           0       -5.209606   -3.834001   -0.903851
     51          6           0       -7.039295   -2.499756    0.156099
     52          6           0       -7.985727   -1.478076   -0.535101
     53          6           0       -8.066607   -0.069561    0.155121
     54          6           0       -9.431061    0.618124    0.034750
     55          6           0       -9.901708    0.861002   -1.446991
     56          6           0       -9.533082    1.945193    0.857288
     57          6           0      -10.589384    1.907252    1.943521
     58          6           0      -11.757353    2.904646    1.760349
     59          6           0      -13.003281    2.426692    2.554024
     60          6           0      -13.449581    3.341456    3.737553
     61          6           0      -14.305281    2.226271    1.680261
     62          6           0      -14.083652    0.943061    0.841585
     63          6           0      -14.511893    1.074635   -0.632014
     64          6           0      -14.603080   -0.280059   -1.412022
     65          6           0      -14.219020   -0.177141   -2.949536
     66          6           0      -15.952232   -0.937821   -1.178435
     67          1           0        2.655832    3.401752   -1.054339
     68          1           0        8.881417    3.764226    0.161746
     69          1           0        9.407961   -2.501303    1.023777
     70          1           0        1.194993   -1.343586   -0.974906
     71          1           0        0.929118    1.484227   -0.029350
     72          1           0       -0.216477    1.427038   -2.106318
     73          1           0        0.698747    0.025239   -2.650391
     74          1           0        1.350175    1.746500   -2.770184
     75          1           0        0.712133    0.042331    1.729256
     76          1           0        1.687524   -1.318562    1.846776
     77          1           0       -0.935369   -1.536387    2.096330
     78          1           0       -0.068857   -2.874751    1.493570
     79          1           0        3.474928    6.249022   -0.520356
     80          1           0        3.117287    5.144740   -1.822024
     81          1           0        4.363267    6.294292   -2.075012
     82          1           0        5.829684    7.538635    0.005155
     83          1           0        5.990520    7.367415   -1.738051
     84          1           0        7.206585    8.198017   -0.700493
     85          1           0       10.727970    2.316649    0.978751
     86          1           0       11.150906   -0.322355    0.067810
     87          1           0       11.410379    1.174917   -1.504601
     88          1           0       11.503507    2.847300   -1.068908
     89          1           0       10.019984    2.229436   -1.894337
     90          1           0        9.973484   -0.576824    2.800355
     91          1           0       11.047754    0.884159    2.543412
     92          1           0       11.553957   -1.805631    3.270757
     93          1           0       12.607424   -0.414177    3.187408
     94          1           0       12.310977   -1.528722    1.751591
     95          1           0        8.069550   -4.791906    2.141495
     96          1           0        8.617525   -4.841271    0.387263
     97          1           0        7.197312   -5.665085    0.871926
     98          1           0        2.387660   -3.532711    1.174150
     99          1           0        1.023175   -5.577854   -2.459662
    100          1           0        0.026803   -4.020300   -2.332560
    101          1           0       -0.439696   -5.520304   -1.531369
    102          1           0       -3.360044   -1.732567   -1.708704
    103          1           0       -3.311172   -0.124277   -1.046914
    104          1           0       -5.452008   -0.458357   -0.157736
    105          1           0       -4.197108   -4.041143   -0.556861
    106          1           0       -5.153942   -3.919604   -1.988564
    107          1           0       -5.748739   -4.733954   -0.607344
    108          1           0       -6.987028   -2.326977    1.231620
    109          1           0       -7.482292   -3.493870    0.205346
    110          1           0       -8.970079   -1.943172   -0.581916
    111          1           0       -7.619818   -1.312449   -1.548223
    112          1           0       -7.361573    0.622727   -0.305962
    113          1           0       -7.715199   -0.143121    1.184139
    114          1           0      -10.134570   -0.150809    0.357330
    115          1           0       -9.015586    1.259139   -1.941259
    116          1           0      -10.695356    1.607410   -1.476245
    117          1           0      -10.340185   -0.061892   -1.827350
    118          1           0       -9.721522    2.768762    0.167263
    119          1           0       -8.551947    2.103645    1.303503
    120          1           0      -10.098407    2.212678    2.867771
    121          1           0      -10.974167    0.893444    2.064162
    122          1           0      -11.979978    2.940210    0.694585
    123          1           0      -11.351418    3.859590    2.093445
    124          1           0      -12.681521    1.500023    3.029105
    125          1           0      -13.379684    2.815618    4.689849
    126          1           0      -14.478878    3.700023    3.742037
    127          1           0      -12.810363    4.188257    3.990554
    128          1           0      -14.716207    3.053772    1.102169
    129          1           0      -15.090194    1.996970    2.401036
    130          1           0      -14.608392    0.095351    1.282347
    131          1           0      -13.044666    0.635890    0.955838
    132          1           0      -13.821266    1.729881   -1.161867
    133          1           0      -15.520835    1.471467   -0.519964
    134          1           0      -13.842109   -0.960617   -1.029642
    135          1           0      -13.170605   -0.433930   -3.100354
    136          1           0      -14.374486    0.872264   -3.197254
    137          1           0      -14.845457   -0.652906   -3.704670
    138          1           0      -16.649035   -0.519393   -0.452327
    139          1           0      -15.721678   -1.954024   -0.858937
    140          1           0      -16.553253   -0.849025   -2.083056
 ---------------------------------------------------------------------

 SCF Done:  E(RCAM-B3LYP) =  -3007.15501511     A.U. after   19 cycles

 Excitation energies and oscillator strengths:

 Excited State   1:      Singlet-A      1.6623 eV  745.87 nm  f=0.3754  <S**2>=0.000
     245 -> 248        0.16918
     246 -> 247        0.68653
     245 <- 248        0.10382
 This state for optimization and/or second-order correction.
 Total Energy, E(TD-HF/TD-DFT) =  -3007.09392736
 Copying the excited state density for this state as the 1-particle RhoCI density.

 Excited State   2:      Singlet-A      2.2519 eV  550.58 nm  f=0.0915  <S**2>=0.000
     245 -> 247        0.62298
     246 -> 248       -0.31675

 Excited State   3:      Singlet-A      3.4232 eV  362.19 nm  f=0.6682  <S**2>=0.000
     243 -> 247        0.12168
     245 -> 247        0.29857
     246 -> 248        0.61098
     245 <- 247       -0.10347

 Excited State   4:      Singlet-A      3.5665 eV  347.64 nm  f=0.0701  <S**2>=0.000
     239 -> 247       -0.24940
     239 -> 248       -0.12763
     239 -> 249       -0.19774
     239 -> 250        0.13411
     240 -> 247        0.10073
     242 -> 247       -0.11628
     243 -> 247        0.51939
     246 -> 248       -0.11581

 Excited State   5:      Singlet-A      3.6031 eV  344.10 nm  f=0.0083  <S**2>=0.000
     239 -> 247       -0.33284
     239 -> 248       -0.15063
     239 -> 249       -0.22908
     239 -> 250        0.14698
     241 -> 247        0.34565
     241 -> 249       -0.18469
     241 -> 250       -0.19396
     242 -> 247        0.17820
     243 -> 247       -0.17186

 The electronic state is 1-A.
 Alpha  occ. eigenvalues --  -46.87685 -19.25405 -19.22681 -19.19876 -19.19680
 Alpha  occ. eigenvalues --  -19.19120 -19.18490 -14.42078 -14.41816 -14.39854
 Alpha  occ. eigenvalues --  -14.39139 -10.40139 -10.38596 -10.35993 -10.34891
 Alpha  occ. eigenvalues --  -10.31780 -10.31435 -10.30840 -10.30767 -10.30557
 Alpha  occ. eigenvalues --  -10.30533 -10.30206 -10.29579 -10.29516 -10.29514
 Alpha  occ. eigenvalues --  -10.28812 -10.28658 -10.28641 -10.28572 -10.28248
 Alpha  occ. eigenvalues --  -10.28062 -10.28034 -10.27898 -10.27821 -10.27689
 Alpha  occ. eigenvalues --  -10.27545 -10.27505 -10.27230 -10.27178 -10.26600
 Alpha  occ. eigenvalues --  -10.26286 -10.26158 -10.26131 -10.25949 -10.25932
 Alpha  occ. eigenvalues --  -10.25878 -10.25874 -10.25709 -10.25689 -10.25686
 Alpha  occ. eigenvalues --  -10.25625 -10.25379 -10.25377 -10.25318 -10.25202
 Alpha  occ. eigenvalues --  -10.25146 -10.25051 -10.24879 -10.24861 -10.24845
 Alpha  occ. eigenvalues --  -10.24728 -10.24648 -10.24624 -10.24537 -10.24187
 Alpha  occ. eigenvalues --  -10.24080  -3.16537  -1.91412  -1.90997  -1.90873
 Alpha  occ. eigenvalues --   -1.16382  -1.13527  -1.08748  -1.08139  -1.06859
 Alpha  occ. eigenvalues --   -1.05643  -1.04843  -1.04019  -1.02389  -1.01468
 Alpha  occ. eigenvalues --   -0.92188  -0.91229  -0.89869  -0.89302  -0.88873
 Alpha  occ. eigenvalues --   -0.88664  -0.87793  -0.87236  -0.87191  -0.87002
 Alpha  occ. eigenvalues --   -0.86285  -0.84999  -0.84148  -0.83759  -0.83243
 Alpha  occ. eigenvalues --   -0.82436  -0.82201  -0.81198  -0.80685  -0.80017
 Alpha  occ. eigenvalues --   -0.79580  -0.78249  -0.77582  -0.77200  -0.75945
 Alpha  occ. eigenvalues --   -0.75556  -0.75315  -0.75022  -0.74776  -0.74118
 Alpha  occ. eigenvalues --   -0.73390  -0.72215  -0.71563  -0.70566  -0.68708
 Alpha  occ. eigenvalues --   -0.68542  -0.68106  -0.67042  -0.66641  -0.65451
 Alpha  occ. eigenvalues --   -0.65203  -0.64887  -0.64382  -0.64140  -0.63930
 Alpha  occ. eigenvalues --   -0.63438  -0.63203  -0.62687  -0.61233  -0.60475
 Alpha  occ. eigenvalues --   -0.59949  -0.59310  -0.58686  -0.58456  -0.57864
 Alpha  occ. eigenvalues --   -0.57492  -0.57093  -0.55909  -0.55890  -0.55008
 Alpha  occ. eigenvalues --   -0.54804  -0.54720  -0.54275  -0.54052  -0.53754
 Alpha  occ. eigenvalues --   -0.53291  -0.53143  -0.53011  -0.52800  -0.52645
 Alpha  occ. eigenvalues --   -0.52283  -0.52196  -0.51917  -0.51704  -0.51433
 Alpha  occ. eigenvalues --   -0.51339  -0.51238  -0.51122  -0.50993  -0.50550
 Alpha  occ. eigenvalues --   -0.50417  -0.50292  -0.50025  -0.49791  -0.49322
 Alpha  occ. eigenvalues --   -0.49194  -0.48925  -0.48748  -0.48598  -0.48472
 Alpha  occ. eigenvalues --   -0.48289  -0.47971  -0.47953  -0.47779  -0.47586
 Alpha  occ. eigenvalues --   -0.47470  -0.47264  -0.47097  -0.46842  -0.46744
 Alpha  occ. eigenvalues --   -0.46664  -0.46101  -0.46066  -0.45916  -0.45756
 Alpha  occ. eigenvalues --   -0.45664  -0.45401  -0.45229  -0.45051  -0.44379
 Alpha  occ. eigenvalues --   -0.44335  -0.44308  -0.43980  -0.43817  -0.43534
 Alpha  occ. eigenvalues --   -0.43438  -0.43337  -0.43165  -0.42883  -0.42711
 Alpha  occ. eigenvalues --   -0.42458  -0.42394  -0.42327  -0.42062  -0.41676
 Alpha  occ. eigenvalues --   -0.41566  -0.41483  -0.41263  -0.41078  -0.40836
 Alpha  occ. eigenvalues --   -0.40768  -0.40710  -0.40428  -0.40236  -0.40218
 Alpha  occ. eigenvalues --   -0.39968  -0.39815  -0.39796  -0.38830  -0.38771
 Alpha  occ. eigenvalues --   -0.38625  -0.38387  -0.38357  -0.37648  -0.37224
 Alpha  occ. eigenvalues --   -0.37036  -0.36997  -0.36651  -0.36460  -0.36318
 Alpha  occ. eigenvalues --   -0.35955  -0.34916  -0.34892  -0.34599  -0.34590
 Alpha  occ. eigenvalues --   -0.34018  -0.33762  -0.33172  -0.31385  -0.31086
 Alpha  occ. eigenvalues --   -0.30713  -0.30226  -0.29930  -0.29619  -0.23913
 Alpha  occ. eigenvalues --   -0.20528
 Alpha virt. eigenvalues --   -0.08335  -0.01756   0.00245   0.01994   0.02986
 Alpha virt. eigenvalues --    0.03383   0.04246   0.05271   0.05860   0.06771
 Alpha virt. eigenvalues --    0.07481   0.07935   0.08405   0.08844   0.09279

 Mulliken charges:
               1
     1  Mg   0.862060
     2  C   -0.062274
     3  C   -0.076218
     4  C   -0.075266
     5  C   -0.095634
     6  N   -0.303108
     7  C   -0.008488
     8  C   -0.040597
     9  C   -0.039793
    10  C    0.052278
    11  C    0.063630
    12  C    0.056490
    13  C    0.049410
    14  C    0.180912
    15  O   -0.269337
    16  O   -0.324581
    17  N   -0.350407
    18  C    0.124304
    19  C   -0.135131
    20  C   -0.063024
    21  C    0.180306
    22  C    0.100260
    23  C    0.045017
    24  O   -0.235097
    25  C    0.054135
    26  N   -0.252656
    27  C   -0.005804
    28  C   -0.087385
    29  C    0.048940
    30  C    0.007373
    31  C    0.074276
    32  C    0.025065
    33  C   -0.005814
    34  N   -0.415289
    35  C    0.160084
    36  C   -0.203887
    37  C    0.011081
    38  C    0.136947
    39  C    0.115234
    40  C    0.014508
    41  O   -0.176274
    42  C    0.040736
    43  C    0.231220
    44  O   -0.198285
    45  O   -0.395686
    46  C    0.184348
    47  C    0.305414
    48  C   -0.142796
    49  C   -0.142856
    50  C    0.054062
    51  C    0.101979
    52  C    0.011741
    53  C    0.020436
    54  C   -0.155205
    55  C    0.036354
    56  C    0.099566
    57  C   -0.028721
    58  C    0.073860
    59  C   -0.126230
    60  C    0.038900
    61  C    0.065546
    62  C   -0.002978
    63  C    0.052242
    64  C   -0.145383
    65  C    0.029050
    66  C    0.042617
    67  H   -0.041793
    68  H   -0.008232
    69  H   -0.023816
    70  H    0.052357
    71  H    0.014489
    72  H    0.009642
    73  H    0.043470
    74  H    0.014140
    75  H    0.010846
    76  H    0.012023
    77  H    0.015645
    78  H    0.053994
    79  H    0.040689
    80  H    0.019461
    81  H    0.017625
    82  H    0.037191
    83  H    0.029919
    84  H    0.028355
    85  H    0.016429
    86  H    0.000339
    87  H    0.001803
    88  H    0.023821
    89  H    0.052271
    90  H    0.029849
    91  H    0.003211
    92  H    0.008047
    93  H    0.019648
    94  H    0.009832
    95  H    0.032745
    96  H    0.026351
    97  H    0.026357
    98  H    0.032515
    99  H    0.037247
   100  H    0.044894
   101  H    0.018603
   102  H    0.039517
   103  H    0.004497
   104  H   -0.015680
   105  H    0.024261
   106  H    0.028228
   107  H    0.009196
   108  H    0.015625
   109  H   -0.018315
   110  H    0.001126
   111  H    0.013049
   112  H    0.005670
   113  H   -0.000073
   114  H   -0.008821
   115  H    0.008855
   116  H    0.009474
   117  H    0.016353
   118  H   -0.008687
   119  H   -0.017584
   120  H   -0.006390
   121  H    0.008183
   122  H   -0.004200
   123  H    0.001015
   124  H    0.007047
   125  H   -0.009784
   126  H    0.007374
   127  H   -0.008236
   128  H    0.008376
   129  H   -0.009344
   130  H   -0.012790
   131  H   -0.015977
   132  H   -0.003310
   133  H   -0.002498
   134  H   -0.006367
   135  H    0.016797
   136  H   -0.002322
   137  H    0.009810
   138  H    0.002860
   139  H    0.013849
   140  H    0.003071
 Sum of Mulliken charges =  -0.00000

 Dipole moment (field-independent basis, Debye):
    X=             -3.3945    Y=              4.4223    Z=              2.1423  Tot=              5.9723
 Quadrupole moment (field-independent basis, Debye-Ang):
   XX=           -374.6539   YY=           -423.7097   ZZ=           -405.7551
   XY=              6.9372   XZ=             14.8666   YZ=             -4.2560

 Normal termination of Gaussian 16 at Thu Apr 28 07:59:15 2022.
