 Gaussian 16, Revision A.03,
 Gaussian 16:  ES64L-G16RevA.03 25-Dec-2016

 ---------------------------------
 #p PBE1PBE/Def2SVP td=(nstates=5)
 ---------------------------------

 -----------------------------------------------------
 step_1501_chromophore_4 TDDFT with PBE1PBE functional
 -----------------------------------------------------
 Symbolic Z-matrix:
 Charge =  0 Multiplicity = 1

                         Standard orientation:
 ---------------------------------------------------------------------
 Center     Atomic      Atomic             Coordinates (Angstroms)
 Number     Number       Type             X           Y           Z
 ---------------------------------------------------------------------
      1         12           0        5.997655    0.364277    0.083860
      2          6           0        3.735250   -2.098551    0.224275
      3          6           0        3.386730    2.672313   -0.700141
      4          6           0        8.156438    2.965945   -0.014706
      5          6           0        8.629976   -1.794451    0.724938
      6          7           0        3.834873    0.275301   -0.301069
      7          6           0        3.123673   -0.897564   -0.163569
      8          6           0        1.626034   -0.639249   -0.263520
      9          6           0        1.484540    0.872037   -0.739738
     10          6           0        2.971144    1.322740   -0.618994
     11          6           0        0.787531    1.011748   -2.195919
     12          6           0        0.926610   -0.885164    1.197483
     13          6           0       -0.314588   -1.840377    1.254056
     14          6           0       -1.385794   -1.806828    0.067067
     15          8           0       -1.096316   -1.979893   -1.123605
     16          8           0       -2.667326   -1.440594    0.387021
     17          7           0        5.818988    2.431915   -0.419092
     18          6           0        4.671840    3.217789   -0.650264
     19          6           0        5.023905    4.617935   -0.877741
     20          6           0        6.442989    4.724729   -0.639714
     21          6           0        6.870701    3.290128   -0.355455
     22          6           0        3.934777    5.650107   -1.307343
     23          6           0        7.254927    6.058196   -0.676651
     24          8           0        8.501660    6.115415   -0.486443
     25          6           0        6.539805    7.340970   -0.797589
     26          7           0        8.170952    0.475442    0.001300
     27          6           0        8.776232    1.705469    0.108957
     28          6           0       10.284678    1.622240    0.266199
     29          6           0       10.431892    0.151717    0.735229
     30          6           0        9.016518   -0.444129    0.445183
     31          6           0       10.805003    2.016473   -1.167766
     32          6           0       10.737141   -0.098230    2.187854
     33          6           0       11.895276   -1.006459    2.613280
     34          7           0        6.155597   -1.505534    0.345920
     35          6           0        7.318468   -2.280195    0.677123
     36          6           0        6.857258   -3.661375    0.838072
     37          6           0        5.424930   -3.664372    0.695798
     38          6           0        5.169501   -2.314141    0.419102
     39          6           0        7.786351   -4.774606    1.089229
     40          6           0        4.183477   -4.428823    0.701806
     41          8           0        3.946668   -5.625232    0.890499
     42          6           0        3.055601   -3.446057    0.316922
     43          6           0        2.441176   -3.877463   -0.934183
     44          8           0        2.927920   -3.885804   -2.047084
     45          8           0        1.159045   -4.484922   -0.637733
     46          6           0        0.411409   -4.915985   -1.845717
     47          6           0       -3.522469   -1.163221   -0.793300
     48          6           0       -4.924252   -1.376943   -0.413045
     49          6           0       -5.697057   -2.495293   -0.413581
     50          6           0       -5.209606   -3.834001   -0.903851
     51          6           0       -7.039295   -2.499756    0.156099
     52          6           0       -7.985727   -1.478076   -0.535101
     53          6           0       -8.066607   -0.069561    0.155121
     54          6           0       -9.431061    0.618124    0.034750
     55          6           0       -9.901708    0.861002   -1.446991
     56          6           0       -9.533082    1.945193    0.857288
     57          6           0      -10.589384    1.907252    1.943521
     58          6           0      -11.757353    2.904646    1.760349
     59          6           0      -13.003281    2.426692    2.554024
     60          6           0      -13.449581    3.341456    3.737553
     61          6           0      -14.305281    2.226271    1.680261
     62          6           0      -14.083652    0.943061    0.841585
     63          6           0      -14.511893    1.074635   -0.632014
     64          6           0      -14.603080   -0.280059   -1.412022
     65          6           0      -14.219020   -0.177141   -2.949536
     66          6           0      -15.952232   -0.937821   -1.178435
     67          1           0        2.655832    3.401752   -1.054339
     68          1           0        8.881417    3.764226    0.161746
     69          1           0        9.407961   -2.501303    1.023777
     70          1           0        1.194993   -1.343586   -0.974906
     71          1           0        0.929118    1.484227   -0.029350
     72          1           0       -0.216477    1.427038   -2.106318
     73          1           0        0.698747    0.025239   -2.650391
     74          1           0        1.350175    1.746500   -2.770184
     75          1           0        0.712133    0.042331    1.729256
     76          1           0        1.687524   -1.318562    1.846776
     77          1           0       -0.935369   -1.536387    2.096330
     78          1           0       -0.068857   -2.874751    1.493570
     79          1           0        3.474928    6.249022   -0.520356
     80          1           0        3.117287    5.144740   -1.822024
     81          1           0        4.363267    6.294292   -2.075012
     82          1           0        5.829684    7.538635    0.005155
     83          1           0        5.990520    7.367415   -1.738051
     84          1           0        7.206585    8.198017   -0.700493
     85          1           0       10.727970    2.316649    0.978751
     86          1           0       11.150906   -0.322355    0.067810
     87          1           0       11.410379    1.174917   -1.504601
     88          1           0       11.503507    2.847300   -1.068908
     89          1           0       10.019984    2.229436   -1.894337
     90          1           0        9.973484   -0.576824    2.800355
     91          1           0       11.047754    0.884159    2.543412
     92          1           0       11.553957   -1.805631    3.270757
     93          1           0       12.607424   -0.414177    3.187408
     94          1           0       12.310977   -1.528722    1.751591
     95          1           0        8.069550   -4.791906    2.141495
     96          1           0        8.617525   -4.841271    0.387263
     97          1           0        7.197312   -5.665085    0.871926
     98          1           0        2.387660   -3.532711    1.174150
     99          1           0        1.023175   -5.577854   -2.459662
    100          1           0        0.026803   -4.020300   -2.332560
    101          1           0       -0.439696   -5.520304   -1.531369
    102          1           0       -3.360044   -1.732567   -1.708704
    103          1           0       -3.311172   -0.124277   -1.046914
    104          1           0       -5.452008   -0.458357   -0.157736
    105          1           0       -4.197108   -4.041143   -0.556861
    106          1           0       -5.153942   -3.919604   -1.988564
    107          1           0       -5.748739   -4.733954   -0.607344
    108          1           0       -6.987028   -2.326977    1.231620
    109          1           0       -7.482292   -3.493870    0.205346
    110          1           0       -8.970079   -1.943172   -0.581916
    111          1           0       -7.619818   -1.312449   -1.548223
    112          1           0       -7.361573    0.622727   -0.305962
    113          1           0       -7.715199   -0.143121    1.184139
    114          1           0      -10.134570   -0.150809    0.357330
    115          1           0       -9.015586    1.259139   -1.941259
    116          1           0      -10.695356    1.607410   -1.476245
    117          1           0      -10.340185   -0.061892   -1.827350
    118          1           0       -9.721522    2.768762    0.167263
    119          1           0       -8.551947    2.103645    1.303503
    120          1           0      -10.098407    2.212678    2.867771
    121          1           0      -10.974167    0.893444    2.064162
    122          1           0      -11.979978    2.940210    0.694585
    123          1           0      -11.351418    3.859590    2.093445
    124          1           0      -12.681521    1.500023    3.029105
    125          1           0      -13.379684    2.815618    4.689849
    126          1           0      -14.478878    3.700023    3.742037
    127          1           0      -12.810363    4.188257    3.990554
    128          1           0      -14.716207    3.053772    1.102169
    129          1           0      -15.090194    1.996970    2.401036
    130          1           0      -14.608392    0.095351    1.282347
    131          1           0      -13.044666    0.635890    0.955838
    132          1           0      -13.821266    1.729881   -1.161867
    133          1           0      -15.520835    1.471467   -0.519964
    134          1           0      -13.842109   -0.960617   -1.029642
    135          1           0      -13.170605   -0.433930   -3.100354
    136          1           0      -14.374486    0.872264   -3.197254
    137          1           0      -14.845457   -0.652906   -3.704670
    138          1           0      -16.649035   -0.519393   -0.452327
    139          1           0      -15.721678   -1.954024   -0.858937
    140          1           0      -16.553253   -0.849025   -2.083056
 ---------------------------------------------------------------------

 SCF Done:  E(RPBE1PBE) =  -3005.34356220     A.U. after   16 cycles

 Excitation energies and oscillator strengths:

 Excited State   1:      Singlet-A      1.8120 eV  684.25 nm  f=0.3635  <S**2>=0.000
     245 -> 248        0.15797
     246 -> 247        0.69442
     246 <- 247       -0.11236
 This state for optimization and/or second-order correction.
 Total Energy, E(TD-HF/TD-DFT) =  -3005.27697393
 Copying the excited state density for this state as the 1-particle RhoCI density.

 Excited State   2:      Singlet-A      2.2464 eV  551.92 nm  f=0.0974  <S**2>=0.000
     245 -> 247        0.63936
     246 -> 248       -0.27687
     246 -> 249       -0.10078

 Excited State   3:      Singlet-A      3.1052 eV  399.28 nm  f=0.0062  <S**2>=0.000
     240 -> 247       -0.10544
     242 -> 247        0.60701
     242 -> 249        0.14511
     242 -> 250       -0.12138
     243 -> 247       -0.24507

 Excited State   4:      Singlet-A      3.1510 eV  393.48 nm  f=0.0207  <S**2>=0.000
     240 -> 247        0.11931
     241 -> 247        0.51001
     241 -> 248        0.14351
     241 -> 249       -0.14881
     241 -> 250       -0.10515
     242 -> 247       -0.10240
     243 -> 247       -0.30918
     246 -> 248       -0.20058

 Excited State   5:      Singlet-A      3.1852 eV  389.25 nm  f=0.2394  <S**2>=0.000
     242 -> 247       -0.17051
     243 -> 247       -0.24457
     245 -> 247        0.20717
     246 -> 248        0.52950
     246 -> 249       -0.22606
     246 -> 250       -0.10282

 The electronic state is 1-A.
 Alpha  occ. eigenvalues --  -46.91124 -19.26089 -19.23399 -19.20175 -19.19897
 Alpha  occ. eigenvalues --  -19.19176 -19.18869 -14.41548 -14.41407 -14.39446
 Alpha  occ. eigenvalues --  -14.38867 -10.37206 -10.35632 -10.32971 -10.32164
 Alpha  occ. eigenvalues --  -10.29157 -10.29033 -10.28688 -10.28523 -10.28372
 Alpha  occ. eigenvalues --  -10.28064 -10.27705 -10.27563 -10.27033 -10.26783
 Alpha  occ. eigenvalues --  -10.26580 -10.26433 -10.26168 -10.26122 -10.25933
 Alpha  occ. eigenvalues --  -10.25925 -10.25864 -10.25656 -10.25563 -10.25222
 Alpha  occ. eigenvalues --  -10.25211 -10.25193 -10.25192 -10.24841 -10.24227
 Alpha  occ. eigenvalues --  -10.23894 -10.23575 -10.23558 -10.23550 -10.23547
 Alpha  occ. eigenvalues --  -10.23457 -10.23446 -10.23439 -10.23249 -10.23195
 Alpha  occ. eigenvalues --  -10.23136 -10.23080 -10.22972 -10.22851 -10.22837
 Alpha  occ. eigenvalues --  -10.22715 -10.22633 -10.22404 -10.22395 -10.22305
 Alpha  occ. eigenvalues --  -10.22293 -10.22172 -10.22061 -10.22058 -10.21564
 Alpha  occ. eigenvalues --  -10.21496  -3.13549  -1.86366  -1.85930  -1.85808
 Alpha  occ. eigenvalues --   -1.11191  -1.08261  -1.03612  -1.02679  -1.01715
 Alpha  occ. eigenvalues --   -1.00514  -0.99563  -0.98761  -0.96936  -0.96051
 Alpha  occ. eigenvalues --   -0.86623  -0.85384  -0.83957  -0.83637  -0.83174
 Alpha  occ. eigenvalues --   -0.82769  -0.81997  -0.81528  -0.81346  -0.81315
 Alpha  occ. eigenvalues --   -0.80454  -0.79204  -0.78338  -0.78116  -0.77496
 Alpha  occ. eigenvalues --   -0.76688  -0.76273  -0.75368  -0.75012  -0.74180
 Alpha  occ. eigenvalues --   -0.73936  -0.72491  -0.71854  -0.71480  -0.70125
 Alpha  occ. eigenvalues --   -0.69656  -0.69641  -0.69170  -0.69132  -0.68278
 Alpha  occ. eigenvalues --   -0.67699  -0.66694  -0.65981  -0.64881  -0.62988
 Alpha  occ. eigenvalues --   -0.62924  -0.62588  -0.61434  -0.60862  -0.59871
 Alpha  occ. eigenvalues --   -0.59437  -0.59327  -0.58709  -0.58542  -0.58482
 Alpha  occ. eigenvalues --   -0.57991  -0.57390  -0.56903  -0.55784  -0.54973
 Alpha  occ. eigenvalues --   -0.54336  -0.53985  -0.53303  -0.53034  -0.52465
 Alpha  occ. eigenvalues --   -0.51977  -0.51444  -0.50461  -0.50388  -0.49454
 Alpha  occ. eigenvalues --   -0.49364  -0.49295  -0.48750  -0.48490  -0.48256
 Alpha  occ. eigenvalues --   -0.47829  -0.47665  -0.47628  -0.47330  -0.47034
 Alpha  occ. eigenvalues --   -0.46749  -0.46729  -0.46433  -0.46259  -0.45948
 Alpha  occ. eigenvalues --   -0.45881  -0.45809  -0.45727  -0.45601  -0.45219
 Alpha  occ. eigenvalues --   -0.44967  -0.44811  -0.44560  -0.44350  -0.43925
 Alpha  occ. eigenvalues --   -0.43791  -0.43508  -0.43322  -0.43164  -0.42981
 Alpha  occ. eigenvalues --   -0.42940  -0.42703  -0.42619  -0.42357  -0.42177
 Alpha  occ. eigenvalues --   -0.42101  -0.41936  -0.41770  -0.41484  -0.41425
 Alpha  occ. eigenvalues --   -0.41275  -0.40824  -0.40704  -0.40641  -0.40472
 Alpha  occ. eigenvalues --   -0.40357  -0.40087  -0.39893  -0.39852  -0.39228
 Alpha  occ. eigenvalues --   -0.39064  -0.39035  -0.38796  -0.38720  -0.38286
 Alpha  occ. eigenvalues --   -0.38194  -0.38167  -0.37842  -0.37752  -0.37580
 Alpha  occ. eigenvalues --   -0.37231  -0.37152  -0.37078  -0.36880  -0.36557
 Alpha  occ. eigenvalues --   -0.36319  -0.36278  -0.36009  -0.35868  -0.35700
 Alpha  occ. eigenvalues --   -0.35607  -0.35561  -0.35321  -0.35087  -0.35005
 Alpha  occ. eigenvalues --   -0.34738  -0.34738  -0.34548  -0.33834  -0.33596
 Alpha  occ. eigenvalues --   -0.33384  -0.33330  -0.33208  -0.32697  -0.32044
 Alpha  occ. eigenvalues --   -0.32013  -0.31857  -0.31616  -0.31550  -0.31111
 Alpha  occ. eigenvalues --   -0.30840  -0.29865  -0.29856  -0.29794  -0.29534
 Alpha  occ. eigenvalues --   -0.29050  -0.28685  -0.28520  -0.26653  -0.26073
 Alpha  occ. eigenvalues --   -0.25960  -0.25627  -0.25501  -0.24949  -0.20813
 Alpha  occ. eigenvalues --   -0.18228
 Alpha virt. eigenvalues --   -0.10835  -0.05298  -0.03851  -0.02405  -0.01074
 Alpha virt. eigenvalues --   -0.00449   0.00248   0.00706   0.01443   0.03009
 Alpha virt. eigenvalues --    0.04135   0.04297   0.04314   0.05497   0.05749

 Mulliken charges:
               1
     1  Mg   1.018663
     2  C   -0.071316
     3  C   -0.071086
     4  C   -0.054448
     5  C   -0.089321
     6  N   -0.404059
     7  C    0.067107
     8  C   -0.113245
     9  C   -0.108580
    10  C    0.087535
    11  C    0.005679
    12  C    0.009909
    13  C   -0.026595
    14  C    0.243934
    15  O   -0.299970
    16  O   -0.354920
    17  N   -0.462416
    18  C    0.135857
    19  C   -0.154158
    20  C   -0.100682
    21  C    0.198949
    22  C    0.039803
    23  C    0.088017
    24  O   -0.272060
    25  C   -0.018008
    26  N   -0.353469
    27  C    0.012618
    28  C   -0.157683
    29  C   -0.029262
    30  C    0.049189
    31  C    0.020968
    32  C   -0.034603
    33  C   -0.073756
    34  N   -0.557511
    35  C    0.176625
    36  C   -0.220130
    37  C   -0.028435
    38  C    0.189459
    39  C    0.058386
    40  C    0.111888
    41  O   -0.221528
    42  C   -0.071986
    43  C    0.316793
    44  O   -0.233319
    45  O   -0.424549
    46  C    0.128462
    47  C    0.260543
    48  C   -0.156298
    49  C   -0.193911
    50  C   -0.002047
    51  C    0.047669
    52  C   -0.057126
    53  C   -0.033555
    54  C   -0.236200
    55  C   -0.026176
    56  C    0.042704
    57  C   -0.093091
    58  C    0.023261
    59  C   -0.218592
    60  C   -0.017087
    61  C    0.008105
    62  C   -0.063469
    63  C   -0.012954
    64  C   -0.233790
    65  C   -0.032599
    66  C   -0.015302
    67  H   -0.009246
    68  H    0.023274
    69  H    0.008580
    70  H    0.094270
    71  H    0.050028
    72  H    0.036886
    73  H    0.068773
    74  H    0.041709
    75  H    0.042083
    76  H    0.045825
    77  H    0.048949
    78  H    0.083919
    79  H    0.066918
    80  H    0.045179
    81  H    0.045759
    82  H    0.063445
    83  H    0.056277
    84  H    0.055311
    85  H    0.050567
    86  H    0.037115
    87  H    0.030049
    88  H    0.051339
    89  H    0.080253
    90  H    0.062023
    91  H    0.037650
    92  H    0.035415
    93  H    0.047063
    94  H    0.036735
    95  H    0.061273
    96  H    0.053424
    97  H    0.055913
    98  H    0.070932
    99  H    0.059338
   100  H    0.068315
   101  H    0.041118
   102  H    0.065104
   103  H    0.032236
   104  H    0.019225
   105  H    0.051843
   106  H    0.055413
   107  H    0.035097
   108  H    0.048285
   109  H    0.013251
   110  H    0.033011
   111  H    0.046919
   112  H    0.037191
   113  H    0.032335
   114  H    0.029898
   115  H    0.036863
   116  H    0.039006
   117  H    0.043553
   118  H    0.023359
   119  H    0.015649
   120  H    0.028171
   121  H    0.037094
   122  H    0.030657
   123  H    0.033265
   124  H    0.045434
   125  H    0.018150
   126  H    0.033759
   127  H    0.019118
   128  H    0.038491
   129  H    0.025534
   130  H    0.020609
   131  H    0.022295
   132  H    0.029750
   133  H    0.031607
   134  H    0.031578
   135  H    0.044556
   136  H    0.025542
   137  H    0.036381
   138  H    0.029215
   139  H    0.040819
   140  H    0.030440
 Sum of Mulliken charges =  -0.00000

 Dipole moment (field-independent basis, Debye):
    X=             -3.3739    Y=              4.0319    Z=              2.2463  Tot=              5.7171
 Quadrupole moment (field-independent basis, Debye-Ang):
   XX=           -367.9217   YY=           -421.5546   ZZ=           -403.2151
   XY=              4.1921   XZ=             15.6945   YZ=             -4.2031

 Normal termination of Gaussian 16 at Thu Apr 28 08:20:25 2022.
