 Gaussian 16, Revision A.03,
 Gaussian 16:  ES64L-G16RevA.03 25-Dec-2016

 --------------------------------
 #p wB97XD/Def2SVP td=(nstates=5)
 --------------------------------

 ----------------------------------------------------
 step_1501_chromophore_4 TDDFT with wB97XD functional
 ----------------------------------------------------
 Symbolic Z-matrix:
 Charge =  0 Multiplicity = 1

                         Standard orientation:
 ---------------------------------------------------------------------
 Center     Atomic      Atomic             Coordinates (Angstroms)
 Number     Number       Type             X           Y           Z
 ---------------------------------------------------------------------
      1         12           0        5.997655    0.364277    0.083860
      2          6           0        3.735250   -2.098551    0.224275
      3          6           0        3.386730    2.672313   -0.700141
      4          6           0        8.156438    2.965945   -0.014706
      5          6           0        8.629976   -1.794451    0.724938
      6          7           0        3.834873    0.275301   -0.301069
      7          6           0        3.123673   -0.897564   -0.163569
      8          6           0        1.626034   -0.639249   -0.263520
      9          6           0        1.484540    0.872037   -0.739738
     10          6           0        2.971144    1.322740   -0.618994
     11          6           0        0.787531    1.011748   -2.195919
     12          6           0        0.926610   -0.885164    1.197483
     13          6           0       -0.314588   -1.840377    1.254056
     14          6           0       -1.385794   -1.806828    0.067067
     15          8           0       -1.096316   -1.979893   -1.123605
     16          8           0       -2.667326   -1.440594    0.387021
     17          7           0        5.818988    2.431915   -0.419092
     18          6           0        4.671840    3.217789   -0.650264
     19          6           0        5.023905    4.617935   -0.877741
     20          6           0        6.442989    4.724729   -0.639714
     21          6           0        6.870701    3.290128   -0.355455
     22          6           0        3.934777    5.650107   -1.307343
     23          6           0        7.254927    6.058196   -0.676651
     24          8           0        8.501660    6.115415   -0.486443
     25          6           0        6.539805    7.340970   -0.797589
     26          7           0        8.170952    0.475442    0.001300
     27          6           0        8.776232    1.705469    0.108957
     28          6           0       10.284678    1.622240    0.266199
     29          6           0       10.431892    0.151717    0.735229
     30          6           0        9.016518   -0.444129    0.445183
     31          6           0       10.805003    2.016473   -1.167766
     32          6           0       10.737141   -0.098230    2.187854
     33          6           0       11.895276   -1.006459    2.613280
     34          7           0        6.155597   -1.505534    0.345920
     35          6           0        7.318468   -2.280195    0.677123
     36          6           0        6.857258   -3.661375    0.838072
     37          6           0        5.424930   -3.664372    0.695798
     38          6           0        5.169501   -2.314141    0.419102
     39          6           0        7.786351   -4.774606    1.089229
     40          6           0        4.183477   -4.428823    0.701806
     41          8           0        3.946668   -5.625232    0.890499
     42          6           0        3.055601   -3.446057    0.316922
     43          6           0        2.441176   -3.877463   -0.934183
     44          8           0        2.927920   -3.885804   -2.047084
     45          8           0        1.159045   -4.484922   -0.637733
     46          6           0        0.411409   -4.915985   -1.845717
     47          6           0       -3.522469   -1.163221   -0.793300
     48          6           0       -4.924252   -1.376943   -0.413045
     49          6           0       -5.697057   -2.495293   -0.413581
     50          6           0       -5.209606   -3.834001   -0.903851
     51          6           0       -7.039295   -2.499756    0.156099
     52          6           0       -7.985727   -1.478076   -0.535101
     53          6           0       -8.066607   -0.069561    0.155121
     54          6           0       -9.431061    0.618124    0.034750
     55          6           0       -9.901708    0.861002   -1.446991
     56          6           0       -9.533082    1.945193    0.857288
     57          6           0      -10.589384    1.907252    1.943521
     58          6           0      -11.757353    2.904646    1.760349
     59          6           0      -13.003281    2.426692    2.554024
     60          6           0      -13.449581    3.341456    3.737553
     61          6           0      -14.305281    2.226271    1.680261
     62          6           0      -14.083652    0.943061    0.841585
     63          6           0      -14.511893    1.074635   -0.632014
     64          6           0      -14.603080   -0.280059   -1.412022
     65          6           0      -14.219020   -0.177141   -2.949536
     66          6           0      -15.952232   -0.937821   -1.178435
     67          1           0        2.655832    3.401752   -1.054339
     68          1           0        8.881417    3.764226    0.161746
     69          1           0        9.407961   -2.501303    1.023777
     70          1           0        1.194993   -1.343586   -0.974906
     71          1           0        0.929118    1.484227   -0.029350
     72          1           0       -0.216477    1.427038   -2.106318
     73          1           0        0.698747    0.025239   -2.650391
     74          1           0        1.350175    1.746500   -2.770184
     75          1           0        0.712133    0.042331    1.729256
     76          1           0        1.687524   -1.318562    1.846776
     77          1           0       -0.935369   -1.536387    2.096330
     78          1           0       -0.068857   -2.874751    1.493570
     79          1           0        3.474928    6.249022   -0.520356
     80          1           0        3.117287    5.144740   -1.822024
     81          1           0        4.363267    6.294292   -2.075012
     82          1           0        5.829684    7.538635    0.005155
     83          1           0        5.990520    7.367415   -1.738051
     84          1           0        7.206585    8.198017   -0.700493
     85          1           0       10.727970    2.316649    0.978751
     86          1           0       11.150906   -0.322355    0.067810
     87          1           0       11.410379    1.174917   -1.504601
     88          1           0       11.503507    2.847300   -1.068908
     89          1           0       10.019984    2.229436   -1.894337
     90          1           0        9.973484   -0.576824    2.800355
     91          1           0       11.047754    0.884159    2.543412
     92          1           0       11.553957   -1.805631    3.270757
     93          1           0       12.607424   -0.414177    3.187408
     94          1           0       12.310977   -1.528722    1.751591
     95          1           0        8.069550   -4.791906    2.141495
     96          1           0        8.617525   -4.841271    0.387263
     97          1           0        7.197312   -5.665085    0.871926
     98          1           0        2.387660   -3.532711    1.174150
     99          1           0        1.023175   -5.577854   -2.459662
    100          1           0        0.026803   -4.020300   -2.332560
    101          1           0       -0.439696   -5.520304   -1.531369
    102          1           0       -3.360044   -1.732567   -1.708704
    103          1           0       -3.311172   -0.124277   -1.046914
    104          1           0       -5.452008   -0.458357   -0.157736
    105          1           0       -4.197108   -4.041143   -0.556861
    106          1           0       -5.153942   -3.919604   -1.988564
    107          1           0       -5.748739   -4.733954   -0.607344
    108          1           0       -6.987028   -2.326977    1.231620
    109          1           0       -7.482292   -3.493870    0.205346
    110          1           0       -8.970079   -1.943172   -0.581916
    111          1           0       -7.619818   -1.312449   -1.548223
    112          1           0       -7.361573    0.622727   -0.305962
    113          1           0       -7.715199   -0.143121    1.184139
    114          1           0      -10.134570   -0.150809    0.357330
    115          1           0       -9.015586    1.259139   -1.941259
    116          1           0      -10.695356    1.607410   -1.476245
    117          1           0      -10.340185   -0.061892   -1.827350
    118          1           0       -9.721522    2.768762    0.167263
    119          1           0       -8.551947    2.103645    1.303503
    120          1           0      -10.098407    2.212678    2.867771
    121          1           0      -10.974167    0.893444    2.064162
    122          1           0      -11.979978    2.940210    0.694585
    123          1           0      -11.351418    3.859590    2.093445
    124          1           0      -12.681521    1.500023    3.029105
    125          1           0      -13.379684    2.815618    4.689849
    126          1           0      -14.478878    3.700023    3.742037
    127          1           0      -12.810363    4.188257    3.990554
    128          1           0      -14.716207    3.053772    1.102169
    129          1           0      -15.090194    1.996970    2.401036
    130          1           0      -14.608392    0.095351    1.282347
    131          1           0      -13.044666    0.635890    0.955838
    132          1           0      -13.821266    1.729881   -1.161867
    133          1           0      -15.520835    1.471467   -0.519964
    134          1           0      -13.842109   -0.960617   -1.029642
    135          1           0      -13.170605   -0.433930   -3.100354
    136          1           0      -14.374486    0.872264   -3.197254
    137          1           0      -14.845457   -0.652906   -3.704670
    138          1           0      -16.649035   -0.519393   -0.452327
    139          1           0      -15.721678   -1.954024   -0.858937
    140          1           0      -16.553253   -0.849025   -2.083056
 ---------------------------------------------------------------------

 SCF Done:  E(RwB97XD) =  -3007.85379659     A.U. after   20 cycles

 Excitation energies and oscillator strengths:

 Excited State   1:      Singlet-A      1.6082 eV  770.95 nm  f=0.3738  <S**2>=0.000
     245 -> 248       -0.17509
     246 -> 247        0.68426
     245 <- 248       -0.11323
 This state for optimization and/or second-order correction.
 Total Energy, E(TD-HF/TD-DFT) =  -3007.79469657
 Copying the excited state density for this state as the 1-particle RhoCI density.

 Excited State   2:      Singlet-A      2.1981 eV  564.06 nm  f=0.0896  <S**2>=0.000
     245 -> 247        0.62157
     246 -> 248        0.31864

 Excited State   3:      Singlet-A      3.4430 eV  360.11 nm  f=0.6770  <S**2>=0.000
     243 -> 247       -0.16954
     245 -> 247       -0.29161
     246 -> 248        0.59806
     245 <- 247        0.10828

 Excited State   4:      Singlet-A      3.5856 eV  345.79 nm  f=0.1078  <S**2>=0.000
     239 -> 247       -0.32325
     239 -> 248        0.16566
     239 -> 249        0.27173
     239 -> 250       -0.17621
     243 -> 247        0.42427
     245 -> 247       -0.11538
     246 -> 248        0.15914

 Excited State   5:      Singlet-A      3.6223 eV  342.28 nm  f=0.0078  <S**2>=0.000
     239 -> 247        0.34264
     239 -> 248       -0.14485
     239 -> 249       -0.23558
     239 -> 250        0.13976
     242 -> 247       -0.12287
     243 -> 247        0.45235

 The electronic state is 1-A.
 Alpha  occ. eigenvalues --  -46.94024 -19.30622 -19.27906 -19.24780 -19.24588
 Alpha  occ. eigenvalues --  -19.24215 -19.23530 -14.46651 -14.46430 -14.44496
 Alpha  occ. eigenvalues --  -14.43716 -10.43937 -10.42445 -10.40029 -10.38903
 Alpha  occ. eigenvalues --  -10.35664 -10.35525 -10.34893 -10.34715 -10.34608
 Alpha  occ. eigenvalues --  -10.34575 -10.34315 -10.33746 -10.33574 -10.33261
 Alpha  occ. eigenvalues --  -10.32766 -10.32753 -10.32718 -10.32575 -10.32245
 Alpha  occ. eigenvalues --  -10.32152 -10.32125 -10.31899 -10.31865 -10.31706
 Alpha  occ. eigenvalues --  -10.31540 -10.31539 -10.31357 -10.31196 -10.30650
 Alpha  occ. eigenvalues --  -10.30185 -10.30166 -10.29999 -10.29898 -10.29828
 Alpha  occ. eigenvalues --  -10.29805 -10.29780 -10.29749 -10.29699 -10.29544
 Alpha  occ. eigenvalues --  -10.29513 -10.29331 -10.29220 -10.29172 -10.29161
 Alpha  occ. eigenvalues --  -10.29081 -10.28996 -10.28778 -10.28767 -10.28712
 Alpha  occ. eigenvalues --  -10.28654 -10.28537 -10.28468 -10.28451 -10.27990
 Alpha  occ. eigenvalues --  -10.27913  -3.20286  -1.93858  -1.93420  -1.93296
 Alpha  occ. eigenvalues --   -1.18535  -1.15641  -1.10966  -1.10402  -1.09026
 Alpha  occ. eigenvalues --   -1.07841  -1.06824  -1.06021  -1.04427  -1.03512
 Alpha  occ. eigenvalues --   -0.94152  -0.93038  -0.91626  -0.91143  -0.90818
 Alpha  occ. eigenvalues --   -0.90432  -0.89638  -0.89145  -0.88994  -0.88914
 Alpha  occ. eigenvalues --   -0.88259  -0.86858  -0.86007  -0.85648  -0.85135
 Alpha  occ. eigenvalues --   -0.84337  -0.84148  -0.83037  -0.82606  -0.81840
 Alpha  occ. eigenvalues --   -0.81543  -0.80231  -0.79494  -0.79087  -0.77779
 Alpha  occ. eigenvalues --   -0.77338  -0.77251  -0.76844  -0.76702  -0.75946
 Alpha  occ. eigenvalues --   -0.75303  -0.74195  -0.73535  -0.72492  -0.70600
 Alpha  occ. eigenvalues --   -0.70447  -0.70105  -0.69058  -0.68497  -0.67344
 Alpha  occ. eigenvalues --   -0.67061  -0.66869  -0.66181  -0.66151  -0.65939
 Alpha  occ. eigenvalues --   -0.65415  -0.65033  -0.64525  -0.63210  -0.62508
 Alpha  occ. eigenvalues --   -0.61836  -0.61286  -0.60669  -0.60426  -0.59854
 Alpha  occ. eigenvalues --   -0.59423  -0.58950  -0.57935  -0.57825  -0.56900
 Alpha  occ. eigenvalues --   -0.56766  -0.56641  -0.56160  -0.55921  -0.55647
 Alpha  occ. eigenvalues --   -0.55143  -0.55070  -0.54903  -0.54715  -0.54599
 Alpha  occ. eigenvalues --   -0.54218  -0.54074  -0.53829  -0.53636  -0.53299
 Alpha  occ. eigenvalues --   -0.53225  -0.53123  -0.53048  -0.52883  -0.52504
 Alpha  occ. eigenvalues --   -0.52297  -0.52230  -0.51948  -0.51710  -0.51248
 Alpha  occ. eigenvalues --   -0.51139  -0.50835  -0.50631  -0.50475  -0.50421
 Alpha  occ. eigenvalues --   -0.50249  -0.49882  -0.49848  -0.49673  -0.49472
 Alpha  occ. eigenvalues --   -0.49405  -0.49174  -0.49004  -0.48780  -0.48639
 Alpha  occ. eigenvalues --   -0.48517  -0.47999  -0.47927  -0.47825  -0.47702
 Alpha  occ. eigenvalues --   -0.47561  -0.47264  -0.47096  -0.46963  -0.46327
 Alpha  occ. eigenvalues --   -0.46225  -0.46205  -0.45904  -0.45744  -0.45384
 Alpha  occ. eigenvalues --   -0.45370  -0.45273  -0.45110  -0.44819  -0.44593
 Alpha  occ. eigenvalues --   -0.44384  -0.44302  -0.44203  -0.43990  -0.43570
 Alpha  occ. eigenvalues --   -0.43492  -0.43415  -0.43122  -0.42959  -0.42809
 Alpha  occ. eigenvalues --   -0.42728  -0.42595  -0.42321  -0.42143  -0.42090
 Alpha  occ. eigenvalues --   -0.41814  -0.41709  -0.41637  -0.40770  -0.40630
 Alpha  occ. eigenvalues --   -0.40449  -0.40258  -0.40212  -0.39597  -0.39063
 Alpha  occ. eigenvalues --   -0.39037  -0.38864  -0.38664  -0.38461  -0.38147
 Alpha  occ. eigenvalues --   -0.37791  -0.36887  -0.36731  -0.36581  -0.36427
 Alpha  occ. eigenvalues --   -0.35966  -0.35690  -0.35378  -0.33359  -0.33308
 Alpha  occ. eigenvalues --   -0.32692  -0.32363  -0.32148  -0.31651  -0.25837
 Alpha  occ. eigenvalues --   -0.22330
 Alpha virt. eigenvalues --   -0.06689   0.00167   0.02275   0.04090   0.05608
 Alpha virt. eigenvalues --    0.06033   0.06607   0.07442   0.08176   0.09515
 Alpha virt. eigenvalues --    0.10517   0.11035   0.11132   0.12282   0.12649

 Mulliken charges:
               1
     1  Mg   1.005987
     2  C   -0.074000
     3  C   -0.087141
     4  C   -0.078990
     5  C   -0.104109
     6  N   -0.373349
     7  C    0.036387
     8  C   -0.082935
     9  C   -0.087355
    10  C    0.076303
    11  C    0.017890
    12  C    0.020564
    13  C   -0.009668
    14  C    0.231726
    15  O   -0.296533
    16  O   -0.354465
    17  N   -0.431333
    18  C    0.136995
    19  C   -0.150511
    20  C   -0.098233
    21  C    0.198461
    22  C    0.054090
    23  C    0.087687
    24  O   -0.264754
    25  C   -0.007608
    26  N   -0.321301
    27  C    0.010356
    28  C   -0.137559
    29  C   -0.003252
    30  C    0.033274
    31  C    0.029687
    32  C   -0.020230
    33  C   -0.059154
    34  N   -0.516553
    35  C    0.167646
    36  C   -0.214143
    37  C   -0.031648
    38  C    0.171926
    39  C    0.066146
    40  C    0.093710
    41  O   -0.212932
    42  C   -0.029845
    43  C    0.293948
    44  O   -0.227531
    45  O   -0.423213
    46  C    0.143234
    47  C    0.275606
    48  C   -0.162166
    49  C   -0.175615
    50  C    0.007341
    51  C    0.059471
    52  C   -0.036115
    53  C   -0.018688
    54  C   -0.205514
    55  C   -0.010451
    56  C    0.056228
    57  C   -0.071699
    58  C    0.034005
    59  C   -0.182094
    60  C   -0.006512
    61  C    0.019382
    62  C   -0.041270
    63  C    0.009101
    64  C   -0.205889
    65  C   -0.019906
    66  C   -0.006713
    67  H   -0.017828
    68  H    0.018708
    69  H    0.003657
    70  H    0.071656
    71  H    0.040737
    72  H    0.031519
    73  H    0.065537
    74  H    0.035146
    75  H    0.035454
    76  H    0.035681
    77  H    0.043678
    78  H    0.078829
    79  H    0.064240
    80  H    0.041540
    81  H    0.039546
    82  H    0.059167
    83  H    0.050329
    84  H    0.055105
    85  H    0.042627
    86  H    0.025245
    87  H    0.024042
    88  H    0.046439
    89  H    0.073091
    90  H    0.052858
    91  H    0.027629
    92  H    0.029528
    93  H    0.041710
    94  H    0.030047
    95  H    0.056424
    96  H    0.048521
    97  H    0.051296
    98  H    0.061221
    99  H    0.055462
   100  H    0.063298
   101  H    0.037504
   102  H    0.059594
   103  H    0.028746
   104  H    0.009856
   105  H    0.045947
   106  H    0.050179
   107  H    0.030913
   108  H    0.040123
   109  H    0.007433
   110  H    0.025264
   111  H    0.036282
   112  H    0.024746
   113  H    0.022617
   114  H    0.013837
   115  H    0.029747
   116  H    0.030565
   117  H    0.037625
   118  H    0.014224
   119  H    0.008485
   120  H    0.020288
   121  H    0.024968
   122  H    0.016226
   123  H    0.026045
   124  H    0.031739
   125  H    0.012177
   126  H    0.027802
   127  H    0.013333
   128  H    0.032059
   129  H    0.016316
   130  H    0.011971
   131  H    0.002926
   132  H    0.019605
   133  H    0.020153
   134  H    0.020081
   135  H    0.039586
   136  H    0.017775
   137  H    0.031447
   138  H    0.023291
   139  H    0.035976
   140  H    0.024235
 Sum of Mulliken charges =  -0.00000

 Dipole moment (field-independent basis, Debye):
    X=             -3.4506    Y=              4.5987    Z=              2.1350  Tot=              6.1330
 Quadrupole moment (field-independent basis, Debye-Ang):
   XX=           -369.6815   YY=           -418.8628   ZZ=           -402.8313
   XY=              7.5800   XZ=             15.2057   YZ=             -4.4857

 Normal termination of Gaussian 16 at Thu Apr 28 08:49:32 2022.
