 Gaussian 16, Revision A.03,
 Gaussian 16:  ES64L-G16RevA.03 25-Dec-2016

 --------------------
 #p ZINDO=(nstates=5)
 --------------------

 -----------------------------
 step_1501_chromophore_4 ZINDO
 -----------------------------
 Symbolic Z-matrix:
 Charge =  0 Multiplicity = 1

                         Standard orientation:
 ---------------------------------------------------------------------
 Center     Atomic      Atomic             Coordinates (Angstroms)
 Number     Number       Type             X           Y           Z
 ---------------------------------------------------------------------
      1         12           0        5.997655    0.364277    0.083860
      2          6           0        3.735250   -2.098551    0.224275
      3          6           0        3.386730    2.672313   -0.700141
      4          6           0        8.156438    2.965945   -0.014706
      5          6           0        8.629976   -1.794451    0.724938
      6          7           0        3.834873    0.275301   -0.301069
      7          6           0        3.123673   -0.897564   -0.163569
      8          6           0        1.626034   -0.639249   -0.263520
      9          6           0        1.484540    0.872037   -0.739738
     10          6           0        2.971144    1.322740   -0.618994
     11          6           0        0.787531    1.011748   -2.195919
     12          6           0        0.926610   -0.885164    1.197483
     13          6           0       -0.314588   -1.840377    1.254056
     14          6           0       -1.385794   -1.806828    0.067067
     15          8           0       -1.096316   -1.979893   -1.123605
     16          8           0       -2.667326   -1.440594    0.387021
     17          7           0        5.818988    2.431915   -0.419092
     18          6           0        4.671840    3.217789   -0.650264
     19          6           0        5.023905    4.617935   -0.877741
     20          6           0        6.442989    4.724729   -0.639714
     21          6           0        6.870701    3.290128   -0.355455
     22          6           0        3.934777    5.650107   -1.307343
     23          6           0        7.254927    6.058196   -0.676651
     24          8           0        8.501660    6.115415   -0.486443
     25          6           0        6.539805    7.340970   -0.797589
     26          7           0        8.170952    0.475442    0.001300
     27          6           0        8.776232    1.705469    0.108957
     28          6           0       10.284678    1.622240    0.266199
     29          6           0       10.431892    0.151717    0.735229
     30          6           0        9.016518   -0.444129    0.445183
     31          6           0       10.805003    2.016473   -1.167766
     32          6           0       10.737141   -0.098230    2.187854
     33          6           0       11.895276   -1.006459    2.613280
     34          7           0        6.155597   -1.505534    0.345920
     35          6           0        7.318468   -2.280195    0.677123
     36          6           0        6.857258   -3.661375    0.838072
     37          6           0        5.424930   -3.664372    0.695798
     38          6           0        5.169501   -2.314141    0.419102
     39          6           0        7.786351   -4.774606    1.089229
     40          6           0        4.183477   -4.428823    0.701806
     41          8           0        3.946668   -5.625232    0.890499
     42          6           0        3.055601   -3.446057    0.316922
     43          6           0        2.441176   -3.877463   -0.934183
     44          8           0        2.927920   -3.885804   -2.047084
     45          8           0        1.159045   -4.484922   -0.637733
     46          6           0        0.411409   -4.915985   -1.845717
     47          6           0       -3.522469   -1.163221   -0.793300
     48          6           0       -4.924252   -1.376943   -0.413045
     49          6           0       -5.697057   -2.495293   -0.413581
     50          6           0       -5.209606   -3.834001   -0.903851
     51          6           0       -7.039295   -2.499756    0.156099
     52          6           0       -7.985727   -1.478076   -0.535101
     53          6           0       -8.066607   -0.069561    0.155121
     54          6           0       -9.431061    0.618124    0.034750
     55          6           0       -9.901708    0.861002   -1.446991
     56          6           0       -9.533082    1.945193    0.857288
     57          6           0      -10.589384    1.907252    1.943521
     58          6           0      -11.757353    2.904646    1.760349
     59          6           0      -13.003281    2.426692    2.554024
     60          6           0      -13.449581    3.341456    3.737553
     61          6           0      -14.305281    2.226271    1.680261
     62          6           0      -14.083652    0.943061    0.841585
     63          6           0      -14.511893    1.074635   -0.632014
     64          6           0      -14.603080   -0.280059   -1.412022
     65          6           0      -14.219020   -0.177141   -2.949536
     66          6           0      -15.952232   -0.937821   -1.178435
     67          1           0        2.655832    3.401752   -1.054339
     68          1           0        8.881417    3.764226    0.161746
     69          1           0        9.407961   -2.501303    1.023777
     70          1           0        1.194993   -1.343586   -0.974906
     71          1           0        0.929118    1.484227   -0.029350
     72          1           0       -0.216477    1.427038   -2.106318
     73          1           0        0.698747    0.025239   -2.650391
     74          1           0        1.350175    1.746500   -2.770184
     75          1           0        0.712133    0.042331    1.729256
     76          1           0        1.687524   -1.318562    1.846776
     77          1           0       -0.935369   -1.536387    2.096330
     78          1           0       -0.068857   -2.874751    1.493570
     79          1           0        3.474928    6.249022   -0.520356
     80          1           0        3.117287    5.144740   -1.822024
     81          1           0        4.363267    6.294292   -2.075012
     82          1           0        5.829684    7.538635    0.005155
     83          1           0        5.990520    7.367415   -1.738051
     84          1           0        7.206585    8.198017   -0.700493
     85          1           0       10.727970    2.316649    0.978751
     86          1           0       11.150906   -0.322355    0.067810
     87          1           0       11.410379    1.174917   -1.504601
     88          1           0       11.503507    2.847300   -1.068908
     89          1           0       10.019984    2.229436   -1.894337
     90          1           0        9.973484   -0.576824    2.800355
     91          1           0       11.047754    0.884159    2.543412
     92          1           0       11.553957   -1.805631    3.270757
     93          1           0       12.607424   -0.414177    3.187408
     94          1           0       12.310977   -1.528722    1.751591
     95          1           0        8.069550   -4.791906    2.141495
     96          1           0        8.617525   -4.841271    0.387263
     97          1           0        7.197312   -5.665085    0.871926
     98          1           0        2.387660   -3.532711    1.174150
     99          1           0        1.023175   -5.577854   -2.459662
    100          1           0        0.026803   -4.020300   -2.332560
    101          1           0       -0.439696   -5.520304   -1.531369
    102          1           0       -3.360044   -1.732567   -1.708704
    103          1           0       -3.311172   -0.124277   -1.046914
    104          1           0       -5.452008   -0.458357   -0.157736
    105          1           0       -4.197108   -4.041143   -0.556861
    106          1           0       -5.153942   -3.919604   -1.988564
    107          1           0       -5.748739   -4.733954   -0.607344
    108          1           0       -6.987028   -2.326977    1.231620
    109          1           0       -7.482292   -3.493870    0.205346
    110          1           0       -8.970079   -1.943172   -0.581916
    111          1           0       -7.619818   -1.312449   -1.548223
    112          1           0       -7.361573    0.622727   -0.305962
    113          1           0       -7.715199   -0.143121    1.184139
    114          1           0      -10.134570   -0.150809    0.357330
    115          1           0       -9.015586    1.259139   -1.941259
    116          1           0      -10.695356    1.607410   -1.476245
    117          1           0      -10.340185   -0.061892   -1.827350
    118          1           0       -9.721522    2.768762    0.167263
    119          1           0       -8.551947    2.103645    1.303503
    120          1           0      -10.098407    2.212678    2.867771
    121          1           0      -10.974167    0.893444    2.064162
    122          1           0      -11.979978    2.940210    0.694585
    123          1           0      -11.351418    3.859590    2.093445
    124          1           0      -12.681521    1.500023    3.029105
    125          1           0      -13.379684    2.815618    4.689849
    126          1           0      -14.478878    3.700023    3.742037
    127          1           0      -12.810363    4.188257    3.990554
    128          1           0      -14.716207    3.053772    1.102169
    129          1           0      -15.090194    1.996970    2.401036
    130          1           0      -14.608392    0.095351    1.282347
    131          1           0      -13.044666    0.635890    0.955838
    132          1           0      -13.821266    1.729881   -1.161867
    133          1           0      -15.520835    1.471467   -0.519964
    134          1           0      -13.842109   -0.960617   -1.029642
    135          1           0      -13.170605   -0.433930   -3.100354
    136          1           0      -14.374486    0.872264   -3.197254
    137          1           0      -14.845457   -0.652906   -3.704670
    138          1           0      -16.649035   -0.519393   -0.452327
    139          1           0      -15.721678   -1.954024   -0.858937
    140          1           0      -16.553253   -0.849025   -2.083056
 ---------------------------------------------------------------------

 SCF Done:  E(RZINDO/S) =  -473.980238272     A.U. after   19 cycles

 Excitation energies and oscillator strengths:

 Excited State   1:      Singlet-A      1.1909 eV 1041.11 nm  f=0.5787  <S**2>=0.000
     175 ->178        -0.17205
     176 ->177         0.66553
 This state for optimization and/or second-order correction.
 Total Energy, E(CIS/TDA) =  -473.936474194
 Copying the excited state density for this state as the 1-particle RhoCI density.

 Excited State   2:      Singlet-A      1.9204 eV  645.61 nm  f=0.0205  <S**2>=0.000
     175 ->177         0.52106
     176 ->178         0.44726

 Excited State   3:      Singlet-A      2.8485 eV  435.25 nm  f=0.5064  <S**2>=0.000
     175 ->177        -0.29519
     176 ->178         0.42261
     176 ->179         0.42372

 Excited State   4:      Singlet-A      2.9596 eV  418.92 nm  f=0.0410  <S**2>=0.000
     167 ->179        -0.13464
     168 ->177         0.29443
     168 ->178        -0.19445
     168 ->179        -0.39575
     168 ->180         0.25401
     168 ->186        -0.20654

 Excited State   5:      Singlet-A      2.9723 eV  417.13 nm  f=0.5209  <S**2>=0.000
     175 ->177         0.29530
     176 ->178        -0.28309
     176 ->179         0.48886
     176 ->180         0.22341

 The electronic state is 1-A.
 Alpha  occ. eigenvalues --   -1.85025  -1.81385  -1.77465  -1.72731  -1.69363
 Alpha  occ. eigenvalues --   -1.68544  -1.65412  -1.60640  -1.57035  -1.56658
 Alpha  occ. eigenvalues --   -1.55208  -1.51133  -1.47922  -1.46829  -1.46410
 Alpha  occ. eigenvalues --   -1.42939  -1.40771  -1.39981  -1.38804  -1.38443
 Alpha  occ. eigenvalues --   -1.35195  -1.33605  -1.32078  -1.31346  -1.28170
 Alpha  occ. eigenvalues --   -1.27501  -1.25180  -1.22711  -1.21616  -1.17782
 Alpha  occ. eigenvalues --   -1.16237  -1.15986  -1.14459  -1.14351  -1.13414
 Alpha  occ. eigenvalues --   -1.12279  -1.10988  -1.10895  -1.04727  -1.03169
 Alpha  occ. eigenvalues --   -1.02587  -1.01004  -0.98828  -0.97219  -0.96039
 Alpha  occ. eigenvalues --   -0.95744  -0.94324  -0.94238  -0.92993  -0.91833
 Alpha  occ. eigenvalues --   -0.91022  -0.90763  -0.88586  -0.87239  -0.86713
 Alpha  occ. eigenvalues --   -0.86036  -0.83305  -0.82431  -0.81972  -0.80728
 Alpha  occ. eigenvalues --   -0.80110  -0.78282  -0.77758  -0.77068  -0.76146
 Alpha  occ. eigenvalues --   -0.75509  -0.74947  -0.74680  -0.74095  -0.73134
 Alpha  occ. eigenvalues --   -0.72848  -0.72328  -0.71437  -0.70826  -0.70708
 Alpha  occ. eigenvalues --   -0.69963  -0.69489  -0.69087  -0.68676  -0.67719
 Alpha  occ. eigenvalues --   -0.67457  -0.66887  -0.66689  -0.66080  -0.65562
 Alpha  occ. eigenvalues --   -0.65020  -0.64832  -0.63709  -0.63668  -0.63537
 Alpha  occ. eigenvalues --   -0.63285  -0.62888  -0.62357  -0.62058  -0.61559
 Alpha  occ. eigenvalues --   -0.61103  -0.60734  -0.60487  -0.60289  -0.60075
 Alpha  occ. eigenvalues --   -0.59730  -0.59338  -0.59248  -0.58705  -0.58287
 Alpha  occ. eigenvalues --   -0.58125  -0.57636  -0.57423  -0.57210  -0.56451
 Alpha  occ. eigenvalues --   -0.55590  -0.55359  -0.55026  -0.54622  -0.54428
 Alpha  occ. eigenvalues --   -0.54144  -0.53853  -0.53228  -0.52955  -0.52664
 Alpha  occ. eigenvalues --   -0.52376  -0.51736  -0.51640  -0.51518  -0.51366
 Alpha  occ. eigenvalues --   -0.51138  -0.50987  -0.50749  -0.50405  -0.50137
 Alpha  occ. eigenvalues --   -0.49560  -0.49363  -0.49181  -0.48925  -0.48747
 Alpha  occ. eigenvalues --   -0.48704  -0.48546  -0.48143  -0.47909  -0.47587
 Alpha  occ. eigenvalues --   -0.47445  -0.47164  -0.47124  -0.46849  -0.46490
 Alpha  occ. eigenvalues --   -0.46085  -0.45922  -0.45893  -0.45287  -0.44948
 Alpha  occ. eigenvalues --   -0.44808  -0.44541  -0.44468  -0.44130  -0.44023
 Alpha  occ. eigenvalues --   -0.43718  -0.43563  -0.42683  -0.42606  -0.42067
 Alpha  occ. eigenvalues --   -0.41940  -0.41745  -0.41164  -0.38827  -0.38435
 Alpha  occ. eigenvalues --   -0.37960  -0.37283  -0.36390  -0.34770  -0.34432
 Alpha  occ. eigenvalues --   -0.33863  -0.32235  -0.31793  -0.31558  -0.26519
 Alpha  occ. eigenvalues --   -0.21158
 Alpha virt. eigenvalues --   -0.08231  -0.01989  -0.00725   0.01000   0.01371
 Alpha virt. eigenvalues --    0.02882   0.03068   0.03277   0.04377   0.04464
 Alpha virt. eigenvalues --    0.06018   0.06386   0.07219   0.07621   0.08290

 Mulliken charges:
               1
     1  Mg   0.432973
     2  C   -0.073271
     3  C   -0.092392
     4  C   -0.065436
     5  C   -0.060712
     6  N   -0.301763
     7  C    0.118283
     8  C    0.005132
     9  C   -0.000692
    10  C    0.152642
    11  C   -0.051035
    12  C   -0.025218
    13  C    0.009146
    14  C    0.453517
    15  O   -0.524530
    16  O   -0.257405
    17  N   -0.336319
    18  C    0.128368
    19  C    0.003509
    20  C   -0.047121
    21  C    0.154204
    22  C   -0.043320
    23  C    0.335557
    24  O   -0.529772
    25  C   -0.022949
    26  N   -0.258168
    27  C    0.157054
    28  C    0.001945
    29  C    0.013051
    30  C    0.099361
    31  C   -0.047406
    32  C   -0.033565
    33  C   -0.060851
    34  N   -0.298445
    35  C    0.042522
    36  C    0.031771
    37  C   -0.078672
    38  C    0.147867
    39  C   -0.040581
    40  C    0.341874
    41  O   -0.533722
    42  C    0.063884
    43  C    0.493957
    44  O   -0.503904
    45  O   -0.296040
    46  C    0.073227
    47  C    0.116578
    48  C   -0.101849
    49  C    0.021602
    50  C   -0.045686
    51  C   -0.015805
    52  C   -0.031132
    53  C   -0.030719
    54  C   -0.020253
    55  C   -0.062886
    56  C   -0.032590
    57  C   -0.036354
    58  C   -0.032016
    59  C   -0.007569
    60  C   -0.069387
    61  C   -0.036734
    62  C   -0.042442
    63  C   -0.033037
    64  C   -0.011452
    65  C   -0.065678
    66  C   -0.056453
    67  H    0.020961
    68  H    0.041381
    69  H    0.030467
    70  H    0.055215
    71  H    0.032563
    72  H    0.019186
    73  H    0.041946
    74  H    0.024348
    75  H    0.026772
    76  H    0.020823
    77  H    0.021749
    78  H    0.054893
    79  H    0.038112
    80  H    0.024769
    81  H    0.025753
    82  H    0.035818
    83  H    0.040065
    84  H    0.035665
    85  H    0.037212
    86  H    0.031462
    87  H    0.016537
    88  H    0.024681
    89  H    0.040281
    90  H    0.035198
    91  H    0.015107
    92  H    0.014385
    93  H    0.022370
    94  H    0.020273
    95  H    0.036142
    96  H    0.031661
    97  H    0.023385
    98  H    0.052237
    99  H    0.049712
   100  H    0.050440
   101  H    0.024479
   102  H    0.057601
   103  H    0.032878
   104  H    0.019636
   105  H    0.022281
   106  H    0.028837
   107  H    0.018694
   108  H    0.023383
   109  H    0.014157
   110  H    0.018494
   111  H    0.022132
   112  H    0.014432
   113  H    0.019147
   114  H    0.013765
   115  H    0.024930
   116  H    0.016193
   117  H    0.022513
   118  H    0.020525
   119  H    0.014469
   120  H    0.012207
   121  H    0.024168
   122  H    0.020473
   123  H    0.023604
   124  H    0.028824
   125  H    0.006561
   126  H    0.021342
   127  H    0.013873
   128  H    0.035117
   129  H    0.010043
   130  H    0.014387
   131  H    0.016580
   132  H    0.021715
   133  H    0.023022
   134  H    0.014672
   135  H    0.021045
   136  H    0.010074
   137  H    0.025709
   138  H    0.017637
   139  H    0.018748
   140  H    0.017397
 Sum of Mulliken charges =  -0.00000

 Dipole moment (field-independent basis, Debye):
    X=             -4.0530    Y=              7.8858    Z=              3.4756  Tot=              9.5232
 N-N= 4.267285875238D+03 E-N= 0.000000000000D+00  KE=-9.209058203825D+03
 Leave Link  601 at Thu Apr 28 09:02:00 2022, MaxMem=  6710886400 cpu:               2.9 elap:               0.1
 (Enter /sw/apps/gaussian-16.0/g16/l9999.exe)
 1\1\GINC-BP1-COMPUTE156\SP\RZINDO CIS\STO-3G\C55H74Mg1N4O6\OF15641\28-
 Apr-2022\0\\#p ZINDO=(nstates=5)\\step_1501_chromophore_4 ZINDO\\0,1\M
 g,0,9.3,2.636,28.457\C,0,10.43,1.245,31.284\C,0,7.667,5.157,30.39\C,0,
 8.153,4.196,25.684\C,0,10.742,0.184,26.48\N,0,8.994,3.082,30.588\C,0,9
 .595,2.333,31.577\C,0,9.407,2.984,32.941\C,0,8.364,4.163,32.711\C,0,8.
 286,4.141,31.155\C,0,6.978,3.946,33.522\C,0,10.847,3.543,33.487\C,0,11
 .289,3.117,34.929\C,0,10.194,3.026,36.091\O,0,9.172,2.332,36.018\O,0,1

 Normal termination of Gaussian 16 at Thu Apr 28 09:02:00 2022.
