 Gaussian 16, Revision A.03,
 Gaussian 16:  ES64L-G16RevA.03 25-Dec-2016

 ------------------------------
 #p blyp/Def2SVP td=(nstates=5)
 ------------------------------

 --------------------------------------------------
 step_401_chromophore_12 TDDFT with blyp functional
 --------------------------------------------------
 Symbolic Z-matrix:
 Charge =  0 Multiplicity = 1

                         Standard orientation:
 ---------------------------------------------------------------------
 Center     Atomic      Atomic             Coordinates (Angstroms)
 Number     Number       Type             X           Y           Z
 ---------------------------------------------------------------------
      1         12           0       -4.489037    0.298133   -0.351787
      2          6           0       -2.894441   -2.747163    0.597557
      3          6           0       -1.421248    1.879016   -0.244898
      4          6           0       -6.068375    3.167000   -0.935056
      5          6           0       -7.504599   -1.372771    0.135593
      6          7           0       -2.449287   -0.396714    0.098545
      7          6           0       -1.954251   -1.696602    0.305840
      8          6           0       -0.470892   -1.797688    0.239712
      9          6           0        0.034679   -0.292573    0.076304
     10          6           0       -1.330032    0.487831    0.019486
     11          6           0        1.068121    0.234681    1.134375
     12          6           0       -0.061010   -2.726940   -0.849797
     13          6           0        1.174859   -3.546751   -0.564904
     14          6           0        2.252710   -3.693494   -1.664310
     15          8           0        2.087246   -3.759758   -2.867788
     16          8           0        3.550610   -3.755834   -1.111790
     17          7           0       -3.818978    2.317074   -0.616908
     18          6           0       -2.534681    2.769829   -0.464515
     19          6           0       -2.524100    4.241138   -0.548538
     20          6           0       -3.901991    4.595421   -1.017076
     21          6           0       -4.677703    3.361227   -0.856932
     22          6           0       -1.301228    5.168059   -0.351559
     23          6           0       -4.404308    5.989679   -1.408269
     24          8           0       -5.607327    6.217068   -1.687577
     25          6           0       -3.417918    7.183530   -1.525459
     26          7           0       -6.503720    0.792470   -0.391067
     27          6           0       -6.907402    2.027346   -0.673841
     28          6           0       -8.429008    2.084660   -0.888817
     29          6           0       -8.866871    0.598220   -0.683553
     30          6           0       -7.557911   -0.077154   -0.349826
     31          6           0       -9.137882    3.090950    0.129435
     32          6           0       -9.504406   -0.031195   -2.056943
     33          6           0      -10.639615    0.779597   -2.736638
     34          7           0       -5.135176   -1.652532    0.385554
     35          6           0       -6.403719   -2.119663    0.490727
     36          6           0       -6.280086   -3.482856    1.069170
     37          6           0       -4.916956   -3.757773    1.025347
     38          6           0       -4.273113   -2.596223    0.618075
     39          6           0       -7.435316   -4.422513    1.452028
     40          6           0       -3.958944   -4.785738    1.362087
     41          8           0       -4.118979   -5.903037    1.806729
     42          6           0       -2.609324   -4.212044    1.101251
     43          6           0       -1.822036   -4.234812    2.345691
     44          8           0       -1.959567   -3.529942    3.298613
     45          8           0       -0.919371   -5.226640    2.239597
     46          6           0       -0.117837   -5.573965    3.395263
     47          6           0        4.643290   -3.907743   -2.109028
     48          6           0        6.025108   -3.992739   -1.353906
     49          6           0        7.245698   -3.763733   -1.868344
     50          6           0        7.604409   -3.571243   -3.302602
     51          6           0        8.453138   -3.863490   -1.031244
     52          6           0        9.005432   -2.454325   -0.514800
     53          6           0       10.328256   -1.986003   -1.128484
     54          6           0       10.371114   -0.425276   -1.472828
     55          6           0       11.656420   -0.067039   -2.322772
     56          6           0       10.450644    0.378573   -0.112036
     57          6           0        9.304548    1.334186   -0.195582
     58          6           0        9.482470    2.544616    0.778449
     59          6           0        8.529238    3.712730    0.667700
     60          6           0        9.342214    4.992410    0.081304
     61          6           0        7.844494    4.122857    2.018231
     62          6           0        6.425862    4.776331    1.879352
     63          6           0        5.337922    4.182414    2.842586
     64          6           0        4.003805    4.811780    2.633344
     65          6           0        3.368855    5.283322    3.863935
     66          6           0        3.074401    3.868357    1.778167
     67          1           0       -0.451439    2.380456   -0.261343
     68          1           0       -6.623117    4.012218   -1.348720
     69          1           0       -8.514719   -1.781180    0.213821
     70          1           0       -0.091413   -2.215623    1.172207
     71          1           0        0.371809   -0.209929   -0.956954
     72          1           0        0.705338    1.152503    1.595966
     73          1           0        1.994111    0.390810    0.580935
     74          1           0        1.299642   -0.424443    1.971422
     75          1           0        0.045371   -2.162688   -1.775765
     76          1           0       -0.812420   -3.433613   -1.202966
     77          1           0        0.904527   -4.554288   -0.247859
     78          1           0        1.749262   -3.132119    0.263061
     79          1           0       -1.517496    5.750639    0.544809
     80          1           0       -0.988246    5.858639   -1.134548
     81          1           0       -0.359513    4.649586   -0.171828
     82          1           0       -4.095898    8.033527   -1.604722
     83          1           0       -2.903851    7.080271   -2.480554
     84          1           0       -2.864143    7.214866   -0.587060
     85          1           0       -8.629288    2.543641   -1.856806
     86          1           0       -9.466774    0.553927    0.224910
     87          1           0       -8.809312    4.128105    0.193303
     88          1           0       -9.189093    2.628191    1.114610
     89          1           0      -10.206646    3.138602   -0.077976
     90          1           0       -9.770696   -1.055077   -1.795956
     91          1           0       -8.851730   -0.263590   -2.898300
     92          1           0      -11.573748    0.245027   -2.908021
     93          1           0      -10.394121    1.053734   -3.761927
     94          1           0      -10.940605    1.607108   -2.094129
     95          1           0       -8.193880   -4.436302    0.669211
     96          1           0       -7.917106   -3.907209    2.282171
     97          1           0       -6.989916   -5.372821    1.744868
     98          1           0       -2.071578   -4.694671    0.285183
     99          1           0        0.927797   -5.464820    3.105095
    100          1           0       -0.279862   -6.584649    3.768468
    101          1           0       -0.200696   -4.849098    4.204693
    102          1           0        4.580600   -3.099500   -2.837796
    103          1           0        4.429276   -4.865239   -2.584346
    104          1           0        5.942185   -4.129140   -0.275873
    105          1           0        6.766584   -3.292677   -3.941211
    106          1           0        7.959910   -4.541015   -3.650013
    107          1           0        8.467039   -2.910102   -3.396083
    108          1           0        9.190969   -4.430404   -1.599903
    109          1           0        8.304144   -4.437415   -0.116748
    110          1           0        8.999640   -2.256752    0.557522
    111          1           0        8.318042   -1.697507   -0.892147
    112          1           0       10.578562   -2.482454   -2.066134
    113          1           0       11.106693   -2.299640   -0.434089
    114          1           0        9.412654   -0.267346   -1.966688
    115          1           0       12.245685   -0.939215   -2.605009
    116          1           0       12.329859    0.654324   -1.858775
    117          1           0       11.291923    0.365121   -3.253786
    118          1           0       11.362194    0.973549   -0.054064
    119          1           0       10.341112   -0.211922    0.798077
    120          1           0        8.408926    0.833734    0.173652
    121          1           0        9.169516    1.797350   -1.172360
    122          1           0       10.471677    2.896729    0.483581
    123          1           0        9.551335    2.123563    1.781045
    124          1           0        7.777448    3.468553   -0.083470
    125          1           0        8.706563    5.303946   -0.748301
    126          1           0       10.349698    4.767945   -0.266756
    127          1           0        9.384117    5.870119    0.726421
    128          1           0        8.451533    4.900858    2.482279
    129          1           0        7.863356    3.392434    2.826397
    130          1           0        5.978607    4.661227    0.890856
    131          1           0        6.484570    5.861172    1.963198
    132          1           0        5.645685    4.244723    3.886332
    133          1           0        5.282574    3.108019    2.670328
    134          1           0        4.152318    5.676835    1.986739
    135          1           0        2.289463    5.144758    3.798462
    136          1           0        3.754105    6.240898    4.216036
    137          1           0        3.604874    4.648418    4.718594
    138          1           0        3.675550    3.143232    1.229981
    139          1           0        2.482280    4.413628    1.044364
    140          1           0        2.352957    3.357411    2.416005
 ---------------------------------------------------------------------

 SCF Done:  E(RB-LYP) =  -3007.38169394     A.U. after   21 cycles

 Excitation energies and oscillator strengths:

 Excited State   1:      Singlet-A      1.7966 eV  690.10 nm  f=0.3192  <S**2>=0.000
     245 -> 248       -0.18080
     246 -> 247        0.68700
     246 <- 247       -0.15025
 This state for optimization and/or second-order correction.
 Total Energy, E(TD-HF/TD-DFT) =  -3007.31566931
 Copying the excited state density for this state as the 1-particle RhoCI density.

 Excited State   2:      Singlet-A      1.8485 eV  670.74 nm  f=0.0042  <S**2>=0.000
     244 -> 247        0.69212
     245 -> 247        0.12087

 Excited State   3:      Singlet-A      1.9970 eV  620.85 nm  f=0.0589  <S**2>=0.000
     243 -> 247       -0.12215
     244 -> 247       -0.11989
     245 -> 247        0.62910
     246 -> 248        0.22659
     246 -> 249       -0.11470

 Excited State   4:      Singlet-A      2.0699 eV  598.99 nm  f=0.0025  <S**2>=0.000
     243 -> 247        0.69554
     245 -> 247        0.10660

 Excited State   5:      Singlet-A      2.4399 eV  508.15 nm  f=0.0001  <S**2>=0.000
     241 -> 247        0.70693

 The electronic state is 1-A.
 Alpha  occ. eigenvalues --  -46.27673 -18.82394 -18.81496 -18.77300 -18.76710
 Alpha  occ. eigenvalues --  -18.75610 -18.75194 -14.03692 -14.03261 -14.00980
 Alpha  occ. eigenvalues --  -14.00310 -10.04411 -10.03798  -9.99778  -9.99225
 Alpha  occ. eigenvalues --   -9.98251  -9.97671  -9.97093  -9.97082  -9.96498
 Alpha  occ. eigenvalues --   -9.96284  -9.96052  -9.95726  -9.95311  -9.95093
 Alpha  occ. eigenvalues --   -9.94890  -9.94736  -9.94323  -9.94129  -9.94062
 Alpha  occ. eigenvalues --   -9.93695  -9.93655  -9.93643  -9.93594  -9.93590
 Alpha  occ. eigenvalues --   -9.93407  -9.93285  -9.93196  -9.93193  -9.92986
 Alpha  occ. eigenvalues --   -9.92852  -9.92828  -9.92575  -9.92562  -9.92462
 Alpha  occ. eigenvalues --   -9.92322  -9.92249  -9.92191  -9.92182  -9.92172
 Alpha  occ. eigenvalues --   -9.92128  -9.92015  -9.91777  -9.91513  -9.91481
 Alpha  occ. eigenvalues --   -9.91433  -9.91333  -9.91327  -9.91288  -9.91127
 Alpha  occ. eigenvalues --   -9.91085  -9.90939  -9.90831  -9.90616  -9.90327
 Alpha  occ. eigenvalues --   -9.90236  -2.92148  -1.72586  -1.71996  -1.71886
 Alpha  occ. eigenvalues --   -0.99302  -0.96873  -0.92013  -0.91184  -0.89366
 Alpha  occ. eigenvalues --   -0.89362  -0.87534  -0.86602  -0.84579  -0.83622
 Alpha  occ. eigenvalues --   -0.75914  -0.74097  -0.73820  -0.73212  -0.72711
 Alpha  occ. eigenvalues --   -0.72017  -0.71151  -0.70768  -0.70380  -0.69501
 Alpha  occ. eigenvalues --   -0.69003  -0.68716  -0.68090  -0.67826  -0.66845
 Alpha  occ. eigenvalues --   -0.66473  -0.65890  -0.65011  -0.64633  -0.64058
 Alpha  occ. eigenvalues --   -0.63851  -0.62712  -0.62533  -0.61845  -0.61075
 Alpha  occ. eigenvalues --   -0.60942  -0.60703  -0.59894  -0.59275  -0.59163
 Alpha  occ. eigenvalues --   -0.58339  -0.57456  -0.56867  -0.55729  -0.55111
 Alpha  occ. eigenvalues --   -0.54294  -0.53714  -0.52802  -0.52711  -0.51832
 Alpha  occ. eigenvalues --   -0.51094  -0.50970  -0.50734  -0.50553  -0.50334
 Alpha  occ. eigenvalues --   -0.49729  -0.49131  -0.48876  -0.48833  -0.46627
 Alpha  occ. eigenvalues --   -0.46309  -0.45976  -0.45815  -0.45557  -0.45322
 Alpha  occ. eigenvalues --   -0.44064  -0.43588  -0.42862  -0.42544  -0.42460
 Alpha  occ. eigenvalues --   -0.42394  -0.41905  -0.41437  -0.41378  -0.41271
 Alpha  occ. eigenvalues --   -0.40746  -0.40452  -0.40344  -0.40138  -0.40010
 Alpha  occ. eigenvalues --   -0.39842  -0.39629  -0.39522  -0.39260  -0.39194
 Alpha  occ. eigenvalues --   -0.38951  -0.38837  -0.38504  -0.38458  -0.38222
 Alpha  occ. eigenvalues --   -0.37948  -0.37716  -0.37558  -0.37355  -0.37104
 Alpha  occ. eigenvalues --   -0.37005  -0.36796  -0.36627  -0.36408  -0.36294
 Alpha  occ. eigenvalues --   -0.36228  -0.36102  -0.35870  -0.35767  -0.35561
 Alpha  occ. eigenvalues --   -0.35414  -0.35208  -0.34897  -0.34650  -0.34555
 Alpha  occ. eigenvalues --   -0.34522  -0.34369  -0.34226  -0.34094  -0.33992
 Alpha  occ. eigenvalues --   -0.33798  -0.33593  -0.33551  -0.33438  -0.33089
 Alpha  occ. eigenvalues --   -0.32962  -0.32898  -0.32568  -0.32511  -0.32273
 Alpha  occ. eigenvalues --   -0.32144  -0.31970  -0.31831  -0.31623  -0.31519
 Alpha  occ. eigenvalues --   -0.31359  -0.31290  -0.31172  -0.30899  -0.30822
 Alpha  occ. eigenvalues --   -0.30732  -0.30320  -0.30244  -0.30158  -0.30004
 Alpha  occ. eigenvalues --   -0.29803  -0.29732  -0.29514  -0.29441  -0.29286
 Alpha  occ. eigenvalues --   -0.29260  -0.29099  -0.28742  -0.28275  -0.27956
 Alpha  occ. eigenvalues --   -0.27149  -0.27111  -0.26919  -0.26791  -0.26531
 Alpha  occ. eigenvalues --   -0.26450  -0.26289  -0.26033  -0.25849  -0.25767
 Alpha  occ. eigenvalues --   -0.25549  -0.25063  -0.24522  -0.23707  -0.23399
 Alpha  occ. eigenvalues --   -0.23256  -0.22577  -0.22121  -0.21645  -0.20643
 Alpha  occ. eigenvalues --   -0.20397  -0.19962  -0.18924  -0.18141  -0.17132
 Alpha  occ. eigenvalues --   -0.15663
 Alpha virt. eigenvalues --   -0.11431  -0.07009  -0.06147  -0.04942  -0.02956
 Alpha virt. eigenvalues --   -0.02903  -0.01718  -0.01673  -0.01421   0.00085
 Alpha virt. eigenvalues --    0.01275   0.01381   0.01839   0.02792   0.02887

 Mulliken charges:
               1
     1  Mg   0.684034
     2  C   -0.112267
     3  C   -0.049338
     4  C   -0.050523
     5  C   -0.078220
     6  N   -0.256951
     7  C   -0.070028
     8  C    0.047625
     9  C    0.029075
    10  C    0.012586
    11  C    0.124858
    12  C    0.124460
    13  C    0.113122
    14  C    0.069201
    15  O   -0.184581
    16  O   -0.312013
    17  N   -0.274692
    18  C    0.120132
    19  C   -0.124385
    20  C    0.030890
    21  C    0.106258
    22  C    0.130933
    23  C   -0.090798
    24  O   -0.195531
    25  C    0.136878
    26  N   -0.225870
    27  C    0.043310
    28  C   -0.006868
    29  C    0.097742
    30  C   -0.027203
    31  C    0.087052
    32  C    0.079426
    33  C    0.064208
    34  N   -0.171730
    35  C    0.146539
    36  C   -0.211588
    37  C    0.071107
    38  C    0.118393
    39  C    0.190673
    40  C   -0.064942
    41  O   -0.120315
    42  C    0.127369
    43  C    0.082177
    44  O   -0.145908
    45  O   -0.252346
    46  C    0.202903
    47  C    0.295579
    48  C   -0.090531
    49  C   -0.134621
    50  C    0.157996
    51  C    0.151318
    52  C    0.060399
    53  C    0.059168
    54  C   -0.081820
    55  C    0.117383
    56  C    0.134074
    57  C    0.006930
    58  C    0.087989
    59  C   -0.030697
    60  C    0.072408
    61  C    0.130952
    62  C    0.027222
    63  C    0.102715
    64  C   -0.076319
    65  C    0.141271
    66  C    0.076096
    67  H   -0.067480
    68  H   -0.041298
    69  H   -0.065541
    70  H   -0.014501
    71  H   -0.013750
    72  H    0.007406
    73  H    0.001382
    74  H   -0.002361
    75  H   -0.029903
    76  H   -0.015260
    77  H    0.020531
    78  H   -0.009164
    79  H    0.014176
    80  H    0.010385
    81  H   -0.020840
    82  H   -0.011344
    83  H    0.021261
    84  H    0.005328
    85  H   -0.005845
    86  H   -0.021612
    87  H    0.016385
    88  H   -0.020358
    89  H   -0.021816
    90  H   -0.031237
    91  H   -0.021204
    92  H   -0.018285
    93  H   -0.002484
    94  H    0.000113
    95  H   -0.001582
    96  H   -0.007845
    97  H    0.018544
    98  H   -0.005950
    99  H    0.002348
   100  H    0.030614
   101  H    0.015118
   102  H    0.012630
   103  H    0.001226
   104  H   -0.033688
   105  H   -0.011292
   106  H    0.000427
   107  H   -0.005556
   108  H   -0.028948
   109  H   -0.038673
   110  H   -0.019956
   111  H   -0.030215
   112  H   -0.039022
   113  H   -0.033451
   114  H   -0.016557
   115  H   -0.016989
   116  H   -0.009787
   117  H   -0.017288
   118  H   -0.035758
   119  H   -0.026634
   120  H   -0.023579
   121  H   -0.023456
   122  H   -0.048246
   123  H   -0.041790
   124  H   -0.031439
   125  H   -0.018686
   126  H   -0.005866
   127  H   -0.011469
   128  H   -0.040464
   129  H   -0.035671
   130  H   -0.033936
   131  H   -0.029095
   132  H   -0.041951
   133  H   -0.040979
   134  H   -0.038871
   135  H   -0.027547
   136  H   -0.012847
   137  H   -0.036857
   138  H   -0.014176
   139  H   -0.017056
   140  H   -0.012786
 Sum of Mulliken charges =  -0.00000

 Dipole moment (field-independent basis, Debye):
    X=              3.7228    Y=              0.8035    Z=             -0.9870  Tot=              3.9343
 Quadrupole moment (field-independent basis, Debye-Ang):
   XX=           -363.2104   YY=           -433.2766   ZZ=           -411.9658
   XY=              0.3779   XZ=              7.7863   YZ=              7.2886

 Normal termination of Gaussian 16 at Wed May  4 20:18:30 2022.
