 Gaussian 16, Revision A.03,
 Gaussian 16:  ES64L-G16RevA.03 25-Dec-2016

 -----------------------------------
 #p cam-b3lyp/Def2SVP td=(nstates=5)
 -----------------------------------

 -------------------------------------------------------
 step_401_chromophore_12 TDDFT with cam-b3lyp functional
 -------------------------------------------------------
 Symbolic Z-matrix:
 Charge =  0 Multiplicity = 1

                         Standard orientation:
 ---------------------------------------------------------------------
 Center     Atomic      Atomic             Coordinates (Angstroms)
 Number     Number       Type             X           Y           Z
 ---------------------------------------------------------------------
      1         12           0       -4.489037    0.298133   -0.351787
      2          6           0       -2.894441   -2.747163    0.597557
      3          6           0       -1.421248    1.879016   -0.244898
      4          6           0       -6.068375    3.167000   -0.935056
      5          6           0       -7.504599   -1.372771    0.135593
      6          7           0       -2.449287   -0.396714    0.098545
      7          6           0       -1.954251   -1.696602    0.305840
      8          6           0       -0.470892   -1.797688    0.239712
      9          6           0        0.034679   -0.292573    0.076304
     10          6           0       -1.330032    0.487831    0.019486
     11          6           0        1.068121    0.234681    1.134375
     12          6           0       -0.061010   -2.726940   -0.849797
     13          6           0        1.174859   -3.546751   -0.564904
     14          6           0        2.252710   -3.693494   -1.664310
     15          8           0        2.087246   -3.759758   -2.867788
     16          8           0        3.550610   -3.755834   -1.111790
     17          7           0       -3.818978    2.317074   -0.616908
     18          6           0       -2.534681    2.769829   -0.464515
     19          6           0       -2.524100    4.241138   -0.548538
     20          6           0       -3.901991    4.595421   -1.017076
     21          6           0       -4.677703    3.361227   -0.856932
     22          6           0       -1.301228    5.168059   -0.351559
     23          6           0       -4.404308    5.989679   -1.408269
     24          8           0       -5.607327    6.217068   -1.687577
     25          6           0       -3.417918    7.183530   -1.525459
     26          7           0       -6.503720    0.792470   -0.391067
     27          6           0       -6.907402    2.027346   -0.673841
     28          6           0       -8.429008    2.084660   -0.888817
     29          6           0       -8.866871    0.598220   -0.683553
     30          6           0       -7.557911   -0.077154   -0.349826
     31          6           0       -9.137882    3.090950    0.129435
     32          6           0       -9.504406   -0.031195   -2.056943
     33          6           0      -10.639615    0.779597   -2.736638
     34          7           0       -5.135176   -1.652532    0.385554
     35          6           0       -6.403719   -2.119663    0.490727
     36          6           0       -6.280086   -3.482856    1.069170
     37          6           0       -4.916956   -3.757773    1.025347
     38          6           0       -4.273113   -2.596223    0.618075
     39          6           0       -7.435316   -4.422513    1.452028
     40          6           0       -3.958944   -4.785738    1.362087
     41          8           0       -4.118979   -5.903037    1.806729
     42          6           0       -2.609324   -4.212044    1.101251
     43          6           0       -1.822036   -4.234812    2.345691
     44          8           0       -1.959567   -3.529942    3.298613
     45          8           0       -0.919371   -5.226640    2.239597
     46          6           0       -0.117837   -5.573965    3.395263
     47          6           0        4.643290   -3.907743   -2.109028
     48          6           0        6.025108   -3.992739   -1.353906
     49          6           0        7.245698   -3.763733   -1.868344
     50          6           0        7.604409   -3.571243   -3.302602
     51          6           0        8.453138   -3.863490   -1.031244
     52          6           0        9.005432   -2.454325   -0.514800
     53          6           0       10.328256   -1.986003   -1.128484
     54          6           0       10.371114   -0.425276   -1.472828
     55          6           0       11.656420   -0.067039   -2.322772
     56          6           0       10.450644    0.378573   -0.112036
     57          6           0        9.304548    1.334186   -0.195582
     58          6           0        9.482470    2.544616    0.778449
     59          6           0        8.529238    3.712730    0.667700
     60          6           0        9.342214    4.992410    0.081304
     61          6           0        7.844494    4.122857    2.018231
     62          6           0        6.425862    4.776331    1.879352
     63          6           0        5.337922    4.182414    2.842586
     64          6           0        4.003805    4.811780    2.633344
     65          6           0        3.368855    5.283322    3.863935
     66          6           0        3.074401    3.868357    1.778167
     67          1           0       -0.451439    2.380456   -0.261343
     68          1           0       -6.623117    4.012218   -1.348720
     69          1           0       -8.514719   -1.781180    0.213821
     70          1           0       -0.091413   -2.215623    1.172207
     71          1           0        0.371809   -0.209929   -0.956954
     72          1           0        0.705338    1.152503    1.595966
     73          1           0        1.994111    0.390810    0.580935
     74          1           0        1.299642   -0.424443    1.971422
     75          1           0        0.045371   -2.162688   -1.775765
     76          1           0       -0.812420   -3.433613   -1.202966
     77          1           0        0.904527   -4.554288   -0.247859
     78          1           0        1.749262   -3.132119    0.263061
     79          1           0       -1.517496    5.750639    0.544809
     80          1           0       -0.988246    5.858639   -1.134548
     81          1           0       -0.359513    4.649586   -0.171828
     82          1           0       -4.095898    8.033527   -1.604722
     83          1           0       -2.903851    7.080271   -2.480554
     84          1           0       -2.864143    7.214866   -0.587060
     85          1           0       -8.629288    2.543641   -1.856806
     86          1           0       -9.466774    0.553927    0.224910
     87          1           0       -8.809312    4.128105    0.193303
     88          1           0       -9.189093    2.628191    1.114610
     89          1           0      -10.206646    3.138602   -0.077976
     90          1           0       -9.770696   -1.055077   -1.795956
     91          1           0       -8.851730   -0.263590   -2.898300
     92          1           0      -11.573748    0.245027   -2.908021
     93          1           0      -10.394121    1.053734   -3.761927
     94          1           0      -10.940605    1.607108   -2.094129
     95          1           0       -8.193880   -4.436302    0.669211
     96          1           0       -7.917106   -3.907209    2.282171
     97          1           0       -6.989916   -5.372821    1.744868
     98          1           0       -2.071578   -4.694671    0.285183
     99          1           0        0.927797   -5.464820    3.105095
    100          1           0       -0.279862   -6.584649    3.768468
    101          1           0       -0.200696   -4.849098    4.204693
    102          1           0        4.580600   -3.099500   -2.837796
    103          1           0        4.429276   -4.865239   -2.584346
    104          1           0        5.942185   -4.129140   -0.275873
    105          1           0        6.766584   -3.292677   -3.941211
    106          1           0        7.959910   -4.541015   -3.650013
    107          1           0        8.467039   -2.910102   -3.396083
    108          1           0        9.190969   -4.430404   -1.599903
    109          1           0        8.304144   -4.437415   -0.116748
    110          1           0        8.999640   -2.256752    0.557522
    111          1           0        8.318042   -1.697507   -0.892147
    112          1           0       10.578562   -2.482454   -2.066134
    113          1           0       11.106693   -2.299640   -0.434089
    114          1           0        9.412654   -0.267346   -1.966688
    115          1           0       12.245685   -0.939215   -2.605009
    116          1           0       12.329859    0.654324   -1.858775
    117          1           0       11.291923    0.365121   -3.253786
    118          1           0       11.362194    0.973549   -0.054064
    119          1           0       10.341112   -0.211922    0.798077
    120          1           0        8.408926    0.833734    0.173652
    121          1           0        9.169516    1.797350   -1.172360
    122          1           0       10.471677    2.896729    0.483581
    123          1           0        9.551335    2.123563    1.781045
    124          1           0        7.777448    3.468553   -0.083470
    125          1           0        8.706563    5.303946   -0.748301
    126          1           0       10.349698    4.767945   -0.266756
    127          1           0        9.384117    5.870119    0.726421
    128          1           0        8.451533    4.900858    2.482279
    129          1           0        7.863356    3.392434    2.826397
    130          1           0        5.978607    4.661227    0.890856
    131          1           0        6.484570    5.861172    1.963198
    132          1           0        5.645685    4.244723    3.886332
    133          1           0        5.282574    3.108019    2.670328
    134          1           0        4.152318    5.676835    1.986739
    135          1           0        2.289463    5.144758    3.798462
    136          1           0        3.754105    6.240898    4.216036
    137          1           0        3.604874    4.648418    4.718594
    138          1           0        3.675550    3.143232    1.229981
    139          1           0        2.482280    4.413628    1.044364
    140          1           0        2.352957    3.357411    2.416005
 ---------------------------------------------------------------------

 SCF Done:  E(RCAM-B3LYP) =  -3007.16751766     A.U. after   19 cycles

 Excitation energies and oscillator strengths:

 Excited State   1:      Singlet-A      1.6913 eV  733.08 nm  f=0.3990  <S**2>=0.000
     245 -> 248        0.18063
     246 -> 247        0.68493
     245 <- 248        0.10772
 This state for optimization and/or second-order correction.
 Total Energy, E(TD-HF/TD-DFT) =  -3007.10536420
 Copying the excited state density for this state as the 1-particle RhoCI density.

 Excited State   2:      Singlet-A      2.2029 eV  562.82 nm  f=0.0901  <S**2>=0.000
     245 -> 247        0.63430
     246 -> 248       -0.29823

 Excited State   3:      Singlet-A      3.3216 eV  373.27 nm  f=0.0248  <S**2>=0.000
     244 -> 247        0.64262
     246 -> 248        0.21649

 Excited State   4:      Singlet-A      3.4984 eV  354.40 nm  f=0.3675  <S**2>=0.000
     241 -> 247        0.15085
     241 -> 249        0.10601
     242 -> 247        0.40385
     244 -> 247       -0.16923
     245 -> 247        0.20038
     246 -> 248        0.45214

 Excited State   5:      Singlet-A      3.5076 eV  353.47 nm  f=0.1628  <S**2>=0.000
     241 -> 247        0.47699
     241 -> 248       -0.15865
     241 -> 249        0.24198
     241 -> 250       -0.21293
     245 -> 247       -0.13538
     246 -> 248       -0.29368

 The electronic state is 1-A.
 Alpha  occ. eigenvalues --  -46.89231 -19.25373 -19.24342 -19.20366 -19.19859
 Alpha  occ. eigenvalues --  -19.19012 -19.18351 -14.42577 -14.42160 -14.39341
 Alpha  occ. eigenvalues --  -14.38703 -10.39826 -10.39188 -10.35036 -10.34602
 Alpha  occ. eigenvalues --  -10.32345 -10.31794 -10.31695 -10.31558 -10.30820
 Alpha  occ. eigenvalues --  -10.30713 -10.30229 -10.29932 -10.29651 -10.29446
 Alpha  occ. eigenvalues --  -10.29141 -10.28700 -10.28355 -10.28301 -10.28170
 Alpha  occ. eigenvalues --  -10.28031 -10.27959 -10.27940 -10.27902 -10.27596
 Alpha  occ. eigenvalues --  -10.27437 -10.27268 -10.27211 -10.27083 -10.26908
 Alpha  occ. eigenvalues --  -10.26719 -10.26708 -10.26674 -10.26267 -10.26245
 Alpha  occ. eigenvalues --  -10.26190 -10.26187 -10.26182 -10.25966 -10.25893
 Alpha  occ. eigenvalues --  -10.25834 -10.25733 -10.25726 -10.25232 -10.25099
 Alpha  occ. eigenvalues --  -10.25074 -10.25044 -10.25017 -10.24943 -10.24786
 Alpha  occ. eigenvalues --  -10.24729 -10.24573 -10.24485 -10.24439 -10.24168
 Alpha  occ. eigenvalues --  -10.23990  -3.17603  -1.92520  -1.92035  -1.91915
 Alpha  occ. eigenvalues --   -1.17981  -1.15359  -1.10619  -1.09244  -1.07646
 Alpha  occ. eigenvalues --   -1.07180  -1.05329  -1.04272  -1.02010  -1.01119
 Alpha  occ. eigenvalues --   -0.93155  -0.90997  -0.90671  -0.90023  -0.89462
 Alpha  occ. eigenvalues --   -0.88670  -0.87705  -0.87353  -0.86931  -0.86066
 Alpha  occ. eigenvalues --   -0.85439  -0.85161  -0.84320  -0.84019  -0.82912
 Alpha  occ. eigenvalues --   -0.82437  -0.81910  -0.80827  -0.80595  -0.79954
 Alpha  occ. eigenvalues --   -0.79675  -0.78370  -0.78148  -0.77479  -0.76559
 Alpha  occ. eigenvalues --   -0.76318  -0.76102  -0.75130  -0.74544  -0.74412
 Alpha  occ. eigenvalues --   -0.73395  -0.72444  -0.71759  -0.70508  -0.69688
 Alpha  occ. eigenvalues --   -0.68949  -0.68264  -0.67219  -0.67115  -0.65862
 Alpha  occ. eigenvalues --   -0.65287  -0.65184  -0.64786  -0.64660  -0.64249
 Alpha  occ. eigenvalues --   -0.63750  -0.62934  -0.62747  -0.62600  -0.60332
 Alpha  occ. eigenvalues --   -0.59893  -0.59566  -0.59329  -0.59137  -0.58866
 Alpha  occ. eigenvalues --   -0.57368  -0.56849  -0.56091  -0.55699  -0.55525
 Alpha  occ. eigenvalues --   -0.55312  -0.55213  -0.54556  -0.54267  -0.54143
 Alpha  occ. eigenvalues --   -0.53787  -0.53440  -0.53095  -0.52994  -0.52690
 Alpha  occ. eigenvalues --   -0.52367  -0.52350  -0.52041  -0.51966  -0.51633
 Alpha  occ. eigenvalues --   -0.51491  -0.51469  -0.51307  -0.51078  -0.50641
 Alpha  occ. eigenvalues --   -0.50347  -0.50005  -0.49903  -0.49744  -0.49409
 Alpha  occ. eigenvalues --   -0.49357  -0.49180  -0.48842  -0.48720  -0.48460
 Alpha  occ. eigenvalues --   -0.48314  -0.48263  -0.48213  -0.47935  -0.47424
 Alpha  occ. eigenvalues --   -0.47410  -0.47258  -0.47197  -0.46859  -0.46711
 Alpha  occ. eigenvalues --   -0.46573  -0.46263  -0.46030  -0.45911  -0.45753
 Alpha  occ. eigenvalues --   -0.45630  -0.45445  -0.45195  -0.45136  -0.44967
 Alpha  occ. eigenvalues --   -0.44708  -0.44658  -0.44339  -0.44026  -0.43693
 Alpha  occ. eigenvalues --   -0.43653  -0.43422  -0.43345  -0.43235  -0.43010
 Alpha  occ. eigenvalues --   -0.42936  -0.42613  -0.42583  -0.42417  -0.42237
 Alpha  occ. eigenvalues --   -0.42071  -0.41794  -0.41609  -0.41598  -0.41390
 Alpha  occ. eigenvalues --   -0.41192  -0.41019  -0.40941  -0.40675  -0.40639
 Alpha  occ. eigenvalues --   -0.40353  -0.40338  -0.39788  -0.39216  -0.38924
 Alpha  occ. eigenvalues --   -0.37999  -0.37869  -0.37740  -0.37628  -0.37538
 Alpha  occ. eigenvalues --   -0.37311  -0.37215  -0.37036  -0.36767  -0.36698
 Alpha  occ. eigenvalues --   -0.36584  -0.36477  -0.34982  -0.34974  -0.34422
 Alpha  occ. eigenvalues --   -0.34163  -0.33680  -0.33146  -0.31281  -0.30728
 Alpha  occ. eigenvalues --   -0.30381  -0.30046  -0.29992  -0.29030  -0.23837
 Alpha  occ. eigenvalues --   -0.20896
 Alpha virt. eigenvalues --   -0.08507  -0.01802   0.00219   0.01957   0.02423
 Alpha virt. eigenvalues --    0.04910   0.05393   0.05771   0.06122   0.06678
 Alpha virt. eigenvalues --    0.07488   0.07941   0.08520   0.09094   0.09417

 Mulliken charges:
               1
     1  Mg   0.814562
     2  C   -0.130673
     3  C   -0.063463
     4  C   -0.062795
     5  C   -0.083514
     6  N   -0.327131
     7  C   -0.025222
     8  C   -0.004895
     9  C   -0.021679
    10  C    0.033085
    11  C    0.066942
    12  C    0.063640
    13  C    0.044690
    14  C    0.155877
    15  O   -0.224738
    16  O   -0.378249
    17  N   -0.359768
    18  C    0.127610
    19  C   -0.133758
    20  C   -0.032351
    21  C    0.124562
    22  C    0.075884
    23  C   -0.013632
    24  O   -0.237889
    25  C    0.058549
    26  N   -0.299690
    27  C    0.062298
    28  C   -0.064461
    29  C    0.030891
    30  C   -0.004016
    31  C    0.036337
    32  C    0.029944
    33  C   -0.000023
    34  N   -0.262808
    35  C    0.145182
    36  C   -0.191880
    37  C   -0.017727
    38  C    0.156616
    39  C    0.137901
    40  C    0.034178
    41  O   -0.157494
    42  C    0.050730
    43  C    0.168116
    44  O   -0.183247
    45  O   -0.316140
    46  C    0.166131
    47  C    0.265419
    48  C   -0.110334
    49  C   -0.158944
    50  C    0.097084
    51  C    0.085079
    52  C    0.008399
    53  C    0.011970
    54  C   -0.136710
    55  C    0.059227
    56  C    0.076178
    57  C   -0.040753
    58  C    0.041915
    59  C   -0.091614
    60  C    0.019280
    61  C    0.073264
    62  C   -0.018267
    63  C    0.045666
    64  C   -0.138011
    65  C    0.075179
    66  C    0.024889
    67  H   -0.035774
    68  H   -0.001464
    69  H   -0.029056
    70  H    0.018751
    71  H    0.020927
    72  H    0.030036
    73  H    0.023952
    74  H    0.022318
    75  H    0.005948
    76  H    0.017444
    77  H    0.050511
    78  H    0.024469
    79  H    0.038653
    80  H    0.035657
    81  H    0.004500
    82  H    0.024329
    83  H    0.048873
    84  H    0.031194
    85  H    0.027548
    86  H    0.014114
    87  H    0.040854
    88  H    0.002866
    89  H    0.001559
    90  H   -0.003319
    91  H    0.008936
    92  H    0.007639
    93  H    0.021185
    94  H    0.019973
    95  H    0.023604
    96  H    0.018773
    97  H    0.046197
    98  H    0.037439
    99  H    0.022896
   100  H    0.051588
   101  H    0.042410
   102  H    0.038286
   103  H    0.030145
   104  H    0.001903
   105  H    0.013489
   106  H    0.026112
   107  H    0.016175
   108  H    0.001824
   109  H   -0.005125
   110  H    0.007653
   111  H   -0.003417
   112  H   -0.012754
   113  H   -0.005015
   114  H    0.012973
   115  H    0.007740
   116  H    0.013641
   117  H    0.006601
   118  H   -0.007085
   119  H    0.000762
   120  H    0.001892
   121  H    0.002317
   122  H   -0.021262
   123  H   -0.013752
   124  H    0.000076
   125  H    0.004526
   126  H    0.017034
   127  H    0.011238
   128  H   -0.010729
   129  H   -0.006210
   130  H   -0.008937
   131  H   -0.002059
   132  H   -0.012333
   133  H   -0.011275
   134  H   -0.005917
   135  H   -0.000955
   136  H    0.012574
   137  H   -0.011264
   138  H    0.007894
   139  H    0.004354
   140  H    0.007948
 Sum of Mulliken charges =  -0.00000

 Dipole moment (field-independent basis, Debye):
    X=              3.8181    Y=              0.9116    Z=             -0.9328  Tot=              4.0347
 Quadrupole moment (field-independent basis, Debye-Ang):
   XX=           -361.2413   YY=           -429.3850   ZZ=           -411.9183
   XY=              1.2324   XZ=              8.2789   YZ=              6.1716

 Normal termination of Gaussian 16 at Wed May  4 19:06:47 2022.
