 Gaussian 16, Revision A.03,
 Gaussian 16:  ES64L-G16RevA.03 25-Dec-2016

 ---------------------------------
 #p PBE1PBE/Def2SVP td=(nstates=5)
 ---------------------------------

 -----------------------------------------------------
 step_401_chromophore_12 TDDFT with PBE1PBE functional
 -----------------------------------------------------
 Symbolic Z-matrix:
 Charge =  0 Multiplicity = 1

                         Standard orientation:
 ---------------------------------------------------------------------
 Center     Atomic      Atomic             Coordinates (Angstroms)
 Number     Number       Type             X           Y           Z
 ---------------------------------------------------------------------
      1         12           0       -4.489037    0.298133   -0.351787
      2          6           0       -2.894441   -2.747163    0.597557
      3          6           0       -1.421248    1.879016   -0.244898
      4          6           0       -6.068375    3.167000   -0.935056
      5          6           0       -7.504599   -1.372771    0.135593
      6          7           0       -2.449287   -0.396714    0.098545
      7          6           0       -1.954251   -1.696602    0.305840
      8          6           0       -0.470892   -1.797688    0.239712
      9          6           0        0.034679   -0.292573    0.076304
     10          6           0       -1.330032    0.487831    0.019486
     11          6           0        1.068121    0.234681    1.134375
     12          6           0       -0.061010   -2.726940   -0.849797
     13          6           0        1.174859   -3.546751   -0.564904
     14          6           0        2.252710   -3.693494   -1.664310
     15          8           0        2.087246   -3.759758   -2.867788
     16          8           0        3.550610   -3.755834   -1.111790
     17          7           0       -3.818978    2.317074   -0.616908
     18          6           0       -2.534681    2.769829   -0.464515
     19          6           0       -2.524100    4.241138   -0.548538
     20          6           0       -3.901991    4.595421   -1.017076
     21          6           0       -4.677703    3.361227   -0.856932
     22          6           0       -1.301228    5.168059   -0.351559
     23          6           0       -4.404308    5.989679   -1.408269
     24          8           0       -5.607327    6.217068   -1.687577
     25          6           0       -3.417918    7.183530   -1.525459
     26          7           0       -6.503720    0.792470   -0.391067
     27          6           0       -6.907402    2.027346   -0.673841
     28          6           0       -8.429008    2.084660   -0.888817
     29          6           0       -8.866871    0.598220   -0.683553
     30          6           0       -7.557911   -0.077154   -0.349826
     31          6           0       -9.137882    3.090950    0.129435
     32          6           0       -9.504406   -0.031195   -2.056943
     33          6           0      -10.639615    0.779597   -2.736638
     34          7           0       -5.135176   -1.652532    0.385554
     35          6           0       -6.403719   -2.119663    0.490727
     36          6           0       -6.280086   -3.482856    1.069170
     37          6           0       -4.916956   -3.757773    1.025347
     38          6           0       -4.273113   -2.596223    0.618075
     39          6           0       -7.435316   -4.422513    1.452028
     40          6           0       -3.958944   -4.785738    1.362087
     41          8           0       -4.118979   -5.903037    1.806729
     42          6           0       -2.609324   -4.212044    1.101251
     43          6           0       -1.822036   -4.234812    2.345691
     44          8           0       -1.959567   -3.529942    3.298613
     45          8           0       -0.919371   -5.226640    2.239597
     46          6           0       -0.117837   -5.573965    3.395263
     47          6           0        4.643290   -3.907743   -2.109028
     48          6           0        6.025108   -3.992739   -1.353906
     49          6           0        7.245698   -3.763733   -1.868344
     50          6           0        7.604409   -3.571243   -3.302602
     51          6           0        8.453138   -3.863490   -1.031244
     52          6           0        9.005432   -2.454325   -0.514800
     53          6           0       10.328256   -1.986003   -1.128484
     54          6           0       10.371114   -0.425276   -1.472828
     55          6           0       11.656420   -0.067039   -2.322772
     56          6           0       10.450644    0.378573   -0.112036
     57          6           0        9.304548    1.334186   -0.195582
     58          6           0        9.482470    2.544616    0.778449
     59          6           0        8.529238    3.712730    0.667700
     60          6           0        9.342214    4.992410    0.081304
     61          6           0        7.844494    4.122857    2.018231
     62          6           0        6.425862    4.776331    1.879352
     63          6           0        5.337922    4.182414    2.842586
     64          6           0        4.003805    4.811780    2.633344
     65          6           0        3.368855    5.283322    3.863935
     66          6           0        3.074401    3.868357    1.778167
     67          1           0       -0.451439    2.380456   -0.261343
     68          1           0       -6.623117    4.012218   -1.348720
     69          1           0       -8.514719   -1.781180    0.213821
     70          1           0       -0.091413   -2.215623    1.172207
     71          1           0        0.371809   -0.209929   -0.956954
     72          1           0        0.705338    1.152503    1.595966
     73          1           0        1.994111    0.390810    0.580935
     74          1           0        1.299642   -0.424443    1.971422
     75          1           0        0.045371   -2.162688   -1.775765
     76          1           0       -0.812420   -3.433613   -1.202966
     77          1           0        0.904527   -4.554288   -0.247859
     78          1           0        1.749262   -3.132119    0.263061
     79          1           0       -1.517496    5.750639    0.544809
     80          1           0       -0.988246    5.858639   -1.134548
     81          1           0       -0.359513    4.649586   -0.171828
     82          1           0       -4.095898    8.033527   -1.604722
     83          1           0       -2.903851    7.080271   -2.480554
     84          1           0       -2.864143    7.214866   -0.587060
     85          1           0       -8.629288    2.543641   -1.856806
     86          1           0       -9.466774    0.553927    0.224910
     87          1           0       -8.809312    4.128105    0.193303
     88          1           0       -9.189093    2.628191    1.114610
     89          1           0      -10.206646    3.138602   -0.077976
     90          1           0       -9.770696   -1.055077   -1.795956
     91          1           0       -8.851730   -0.263590   -2.898300
     92          1           0      -11.573748    0.245027   -2.908021
     93          1           0      -10.394121    1.053734   -3.761927
     94          1           0      -10.940605    1.607108   -2.094129
     95          1           0       -8.193880   -4.436302    0.669211
     96          1           0       -7.917106   -3.907209    2.282171
     97          1           0       -6.989916   -5.372821    1.744868
     98          1           0       -2.071578   -4.694671    0.285183
     99          1           0        0.927797   -5.464820    3.105095
    100          1           0       -0.279862   -6.584649    3.768468
    101          1           0       -0.200696   -4.849098    4.204693
    102          1           0        4.580600   -3.099500   -2.837796
    103          1           0        4.429276   -4.865239   -2.584346
    104          1           0        5.942185   -4.129140   -0.275873
    105          1           0        6.766584   -3.292677   -3.941211
    106          1           0        7.959910   -4.541015   -3.650013
    107          1           0        8.467039   -2.910102   -3.396083
    108          1           0        9.190969   -4.430404   -1.599903
    109          1           0        8.304144   -4.437415   -0.116748
    110          1           0        8.999640   -2.256752    0.557522
    111          1           0        8.318042   -1.697507   -0.892147
    112          1           0       10.578562   -2.482454   -2.066134
    113          1           0       11.106693   -2.299640   -0.434089
    114          1           0        9.412654   -0.267346   -1.966688
    115          1           0       12.245685   -0.939215   -2.605009
    116          1           0       12.329859    0.654324   -1.858775
    117          1           0       11.291923    0.365121   -3.253786
    118          1           0       11.362194    0.973549   -0.054064
    119          1           0       10.341112   -0.211922    0.798077
    120          1           0        8.408926    0.833734    0.173652
    121          1           0        9.169516    1.797350   -1.172360
    122          1           0       10.471677    2.896729    0.483581
    123          1           0        9.551335    2.123563    1.781045
    124          1           0        7.777448    3.468553   -0.083470
    125          1           0        8.706563    5.303946   -0.748301
    126          1           0       10.349698    4.767945   -0.266756
    127          1           0        9.384117    5.870119    0.726421
    128          1           0        8.451533    4.900858    2.482279
    129          1           0        7.863356    3.392434    2.826397
    130          1           0        5.978607    4.661227    0.890856
    131          1           0        6.484570    5.861172    1.963198
    132          1           0        5.645685    4.244723    3.886332
    133          1           0        5.282574    3.108019    2.670328
    134          1           0        4.152318    5.676835    1.986739
    135          1           0        2.289463    5.144758    3.798462
    136          1           0        3.754105    6.240898    4.216036
    137          1           0        3.604874    4.648418    4.718594
    138          1           0        3.675550    3.143232    1.229981
    139          1           0        2.482280    4.413628    1.044364
    140          1           0        2.352957    3.357411    2.416005
 ---------------------------------------------------------------------

 SCF Done:  E(RPBE1PBE) =  -3005.35627291     A.U. after   16 cycles

 Excitation energies and oscillator strengths:

 Excited State   1:      Singlet-A      1.8457 eV  671.74 nm  f=0.3890  <S**2>=0.000
     245 -> 248       -0.17140
     246 -> 247        0.69245
     246 <- 247       -0.10794
 This state for optimization and/or second-order correction.
 Total Energy, E(TD-HF/TD-DFT) =  -3005.28844366
 Copying the excited state density for this state as the 1-particle RhoCI density.

 Excited State   2:      Singlet-A      2.2113 eV  560.69 nm  f=0.0884  <S**2>=0.000
     245 -> 247        0.64706
     246 -> 248        0.26599

 Excited State   3:      Singlet-A      2.9315 eV  422.93 nm  f=0.0019  <S**2>=0.000
     243 -> 247        0.33188
     243 -> 249        0.10217
     244 -> 247        0.58589

 Excited State   4:      Singlet-A      3.0483 eV  406.73 nm  f=0.0019  <S**2>=0.000
     243 -> 247        0.58358
     244 -> 247       -0.35145

 Excited State   5:      Singlet-A      3.1481 eV  393.84 nm  f=0.0012  <S**2>=0.000
     240 -> 247        0.61062
     240 -> 249       -0.16887
     240 -> 250        0.10399
     241 -> 247        0.26185

 The electronic state is 1-A.
 Alpha  occ. eigenvalues --  -46.92630 -19.25991 -19.25080 -19.20639 -19.20016
 Alpha  occ. eigenvalues --  -19.19110 -19.18629 -14.42192 -14.41610 -14.39046
 Alpha  occ. eigenvalues --  -14.38293 -10.36894 -10.36117 -10.32243 -10.31623
 Alpha  occ. eigenvalues --  -10.29779 -10.29477 -10.29406 -10.28893 -10.28625
 Alpha  occ. eigenvalues --  -10.28406 -10.28050 -10.27717 -10.27296 -10.27275
 Alpha  occ. eigenvalues --  -10.26986 -10.26555 -10.26130 -10.25869 -10.25823
 Alpha  occ. eigenvalues --  -10.25788 -10.25654 -10.25553 -10.25517 -10.25448
 Alpha  occ. eigenvalues --  -10.25106 -10.24944 -10.24768 -10.24680 -10.24530
 Alpha  occ. eigenvalues --  -10.24457 -10.24248 -10.24193 -10.23964 -10.23922
 Alpha  occ. eigenvalues --  -10.23754 -10.23558 -10.23542 -10.23536 -10.23382
 Alpha  occ. eigenvalues --  -10.23313 -10.23194 -10.23183 -10.22785 -10.22726
 Alpha  occ. eigenvalues --  -10.22625 -10.22613 -10.22532 -10.22385 -10.22369
 Alpha  occ. eigenvalues --  -10.22173 -10.22103 -10.22040 -10.22032 -10.21556
 Alpha  occ. eigenvalues --  -10.21536  -3.14587  -1.87445  -1.86937  -1.86820
 Alpha  occ. eigenvalues --   -1.12720  -1.10166  -1.05258  -1.04028  -1.02400
 Alpha  occ. eigenvalues --   -1.02079  -0.99968  -0.98903  -0.96727  -0.95721
 Alpha  occ. eigenvalues --   -0.87474  -0.85149  -0.84896  -0.84136  -0.83584
 Alpha  occ. eigenvalues --   -0.82985  -0.82000  -0.81468  -0.81253  -0.80349
 Alpha  occ. eigenvalues --   -0.79700  -0.79445  -0.78556  -0.78239  -0.77180
 Alpha  occ. eigenvalues --   -0.76683  -0.76109  -0.75128  -0.74808  -0.74164
 Alpha  occ. eigenvalues --   -0.73871  -0.72619  -0.72498  -0.71786  -0.70851
 Alpha  occ. eigenvalues --   -0.70481  -0.70216  -0.69502  -0.68709  -0.68580
 Alpha  occ. eigenvalues --   -0.67731  -0.66867  -0.66217  -0.64852  -0.64010
 Alpha  occ. eigenvalues --   -0.63389  -0.62524  -0.61651  -0.61367  -0.60291
 Alpha  occ. eigenvalues --   -0.59790  -0.59366  -0.59356  -0.58819  -0.58766
 Alpha  occ. eigenvalues --   -0.57949  -0.57486  -0.57154  -0.56949  -0.54763
 Alpha  occ. eigenvalues --   -0.54444  -0.54089  -0.53800  -0.53555  -0.53476
 Alpha  occ. eigenvalues --   -0.51990  -0.51332  -0.50664  -0.50147  -0.50032
 Alpha  occ. eigenvalues --   -0.49650  -0.49623  -0.49176  -0.48827  -0.48719
 Alpha  occ. eigenvalues --   -0.48312  -0.48034  -0.47688  -0.47447  -0.47269
 Alpha  occ. eigenvalues --   -0.46897  -0.46793  -0.46555  -0.46334  -0.46195
 Alpha  occ. eigenvalues --   -0.46141  -0.45920  -0.45875  -0.45704  -0.45234
 Alpha  occ. eigenvalues --   -0.44908  -0.44573  -0.44474  -0.44314  -0.44026
 Alpha  occ. eigenvalues --   -0.43980  -0.43823  -0.43442  -0.43379  -0.43063
 Alpha  occ. eigenvalues --   -0.42992  -0.42880  -0.42777  -0.42622  -0.42045
 Alpha  occ. eigenvalues --   -0.42025  -0.41898  -0.41797  -0.41495  -0.41329
 Alpha  occ. eigenvalues --   -0.41188  -0.41071  -0.40703  -0.40589  -0.40557
 Alpha  occ. eigenvalues --   -0.40317  -0.40188  -0.39818  -0.39790  -0.39661
 Alpha  occ. eigenvalues --   -0.39494  -0.39404  -0.39132  -0.38729  -0.38456
 Alpha  occ. eigenvalues --   -0.38414  -0.38245  -0.38201  -0.38068  -0.37825
 Alpha  occ. eigenvalues --   -0.37735  -0.37435  -0.37339  -0.37227  -0.37139
 Alpha  occ. eigenvalues --   -0.36813  -0.36638  -0.36439  -0.36396  -0.36252
 Alpha  occ. eigenvalues --   -0.36090  -0.35858  -0.35817  -0.35526  -0.35436
 Alpha  occ. eigenvalues --   -0.35264  -0.35124  -0.34587  -0.34030  -0.33878
 Alpha  occ. eigenvalues --   -0.32797  -0.32773  -0.32615  -0.32538  -0.32414
 Alpha  occ. eigenvalues --   -0.32155  -0.32126  -0.32044  -0.31827  -0.31664
 Alpha  occ. eigenvalues --   -0.31489  -0.31300  -0.29926  -0.29698  -0.29489
 Alpha  occ. eigenvalues --   -0.29088  -0.28762  -0.28722  -0.26478  -0.25985
 Alpha  occ. eigenvalues --   -0.25607  -0.25298  -0.25230  -0.24699  -0.20783
 Alpha  occ. eigenvalues --   -0.18554
 Alpha virt. eigenvalues --   -0.10989  -0.05311  -0.03950  -0.02410  -0.00533
 Alpha virt. eigenvalues --    0.00309   0.01196   0.01335   0.01514   0.03032
 Alpha virt. eigenvalues --    0.04087   0.04368   0.04493   0.05768   0.05832

 Mulliken charges:
               1
     1  Mg   0.958611
     2  C   -0.115117
     3  C   -0.062403
     4  C   -0.053907
     5  C   -0.075155
     6  N   -0.423905
     7  C    0.038720
     8  C   -0.076515
     9  C   -0.096057
    10  C    0.069090
    11  C    0.007073
    12  C    0.021760
    13  C   -0.033671
    14  C    0.222584
    15  O   -0.257293
    16  O   -0.408749
    17  N   -0.472249
    18  C    0.153316
    19  C   -0.161460
    20  C   -0.072996
    21  C    0.153873
    22  C    0.014787
    23  C    0.034524
    24  O   -0.272136
    25  C   -0.018372
    26  N   -0.411163
    27  C    0.103543
    28  C   -0.140141
    29  C   -0.056574
    30  C    0.040503
    31  C   -0.019660
    32  C   -0.022779
    33  C   -0.074750
    34  N   -0.396775
    35  C    0.161263
    36  C   -0.195790
    37  C   -0.072501
    38  C    0.203131
    39  C    0.080445
    40  C    0.128819
    41  O   -0.207168
    42  C   -0.061671
    43  C    0.263775
    44  O   -0.220842
    45  O   -0.351405
    46  C    0.112974
    47  C    0.228281
    48  C   -0.118632
    49  C   -0.209466
    50  C    0.031364
    51  C    0.021197
    52  C   -0.052746
    53  C   -0.038717
    54  C   -0.227571
    55  C    0.002314
    56  C    0.025952
    57  C   -0.110309
    58  C   -0.005177
    59  C   -0.180981
    60  C   -0.037365
    61  C    0.019830
    62  C   -0.079823
    63  C   -0.007824
    64  C   -0.232252
    65  C    0.013845
    66  C   -0.038318
    67  H   -0.001637
    68  H    0.029869
    69  H    0.002421
    70  H    0.058557
    71  H    0.057883
    72  H    0.057126
    73  H    0.051056
    74  H    0.048771
    75  H    0.037617
    76  H    0.050091
    77  H    0.082902
    78  H    0.056437
    79  H    0.066886
    80  H    0.062121
    81  H    0.034016
    82  H    0.052607
    83  H    0.075628
    84  H    0.057727
    85  H    0.063732
    86  H    0.049801
    87  H    0.067342
    88  H    0.031424
    89  H    0.030550
    90  H    0.029755
    91  H    0.040296
    92  H    0.036193
    93  H    0.048247
    94  H    0.048660
    95  H    0.050459
    96  H    0.047473
    97  H    0.073123
    98  H    0.075125
    99  H    0.044559
   100  H    0.072941
   101  H    0.062881
   102  H    0.063361
   103  H    0.058090
   104  H    0.031530
   105  H    0.040845
   106  H    0.054938
   107  H    0.046184
   108  H    0.033980
   109  H    0.027784
   110  H    0.038324
   111  H    0.031952
   112  H    0.019049
   113  H    0.028715
   114  H    0.048447
   115  H    0.034115
   116  H    0.039517
   117  H    0.034623
   118  H    0.024902
   119  H    0.032400
   120  H    0.037289
   121  H    0.035887
   122  H    0.012233
   123  H    0.018548
   124  H    0.036977
   125  H    0.032106
   126  H    0.042776
   127  H    0.037306
   128  H    0.022747
   129  H    0.024334
   130  H    0.024102
   131  H    0.030001
   132  H    0.020431
   133  H    0.021845
   134  H    0.032556
   135  H    0.026896
   136  H    0.040409
   137  H    0.017069
   138  H    0.034835
   139  H    0.033088
   140  H    0.035981
 Sum of Mulliken charges =  -0.00000

 Dipole moment (field-independent basis, Debye):
    X=              3.8331    Y=              1.0688    Z=             -0.9988  Tot=              4.1028
 Quadrupole moment (field-independent basis, Debye-Ang):
   XX=           -355.0420   YY=           -427.3220   ZZ=           -409.2607
   XY=              0.4307   XZ=              8.8416   YZ=              6.2855

 Normal termination of Gaussian 16 at Wed May  4 19:28:33 2022.
