 Gaussian 16, Revision A.03,
 Gaussian 16:  ES64L-G16RevA.03 25-Dec-2016

 --------------------------------
 #p wB97XD/Def2SVP td=(nstates=5)
 --------------------------------

 ----------------------------------------------------
 step_401_chromophore_12 TDDFT with wB97XD functional
 ----------------------------------------------------
 Symbolic Z-matrix:
 Charge =  0 Multiplicity = 1

                         Standard orientation:
 ---------------------------------------------------------------------
 Center     Atomic      Atomic             Coordinates (Angstroms)
 Number     Number       Type             X           Y           Z
 ---------------------------------------------------------------------
      1         12           0       -4.489037    0.298133   -0.351787
      2          6           0       -2.894441   -2.747163    0.597557
      3          6           0       -1.421248    1.879016   -0.244898
      4          6           0       -6.068375    3.167000   -0.935056
      5          6           0       -7.504599   -1.372771    0.135593
      6          7           0       -2.449287   -0.396714    0.098545
      7          6           0       -1.954251   -1.696602    0.305840
      8          6           0       -0.470892   -1.797688    0.239712
      9          6           0        0.034679   -0.292573    0.076304
     10          6           0       -1.330032    0.487831    0.019486
     11          6           0        1.068121    0.234681    1.134375
     12          6           0       -0.061010   -2.726940   -0.849797
     13          6           0        1.174859   -3.546751   -0.564904
     14          6           0        2.252710   -3.693494   -1.664310
     15          8           0        2.087246   -3.759758   -2.867788
     16          8           0        3.550610   -3.755834   -1.111790
     17          7           0       -3.818978    2.317074   -0.616908
     18          6           0       -2.534681    2.769829   -0.464515
     19          6           0       -2.524100    4.241138   -0.548538
     20          6           0       -3.901991    4.595421   -1.017076
     21          6           0       -4.677703    3.361227   -0.856932
     22          6           0       -1.301228    5.168059   -0.351559
     23          6           0       -4.404308    5.989679   -1.408269
     24          8           0       -5.607327    6.217068   -1.687577
     25          6           0       -3.417918    7.183530   -1.525459
     26          7           0       -6.503720    0.792470   -0.391067
     27          6           0       -6.907402    2.027346   -0.673841
     28          6           0       -8.429008    2.084660   -0.888817
     29          6           0       -8.866871    0.598220   -0.683553
     30          6           0       -7.557911   -0.077154   -0.349826
     31          6           0       -9.137882    3.090950    0.129435
     32          6           0       -9.504406   -0.031195   -2.056943
     33          6           0      -10.639615    0.779597   -2.736638
     34          7           0       -5.135176   -1.652532    0.385554
     35          6           0       -6.403719   -2.119663    0.490727
     36          6           0       -6.280086   -3.482856    1.069170
     37          6           0       -4.916956   -3.757773    1.025347
     38          6           0       -4.273113   -2.596223    0.618075
     39          6           0       -7.435316   -4.422513    1.452028
     40          6           0       -3.958944   -4.785738    1.362087
     41          8           0       -4.118979   -5.903037    1.806729
     42          6           0       -2.609324   -4.212044    1.101251
     43          6           0       -1.822036   -4.234812    2.345691
     44          8           0       -1.959567   -3.529942    3.298613
     45          8           0       -0.919371   -5.226640    2.239597
     46          6           0       -0.117837   -5.573965    3.395263
     47          6           0        4.643290   -3.907743   -2.109028
     48          6           0        6.025108   -3.992739   -1.353906
     49          6           0        7.245698   -3.763733   -1.868344
     50          6           0        7.604409   -3.571243   -3.302602
     51          6           0        8.453138   -3.863490   -1.031244
     52          6           0        9.005432   -2.454325   -0.514800
     53          6           0       10.328256   -1.986003   -1.128484
     54          6           0       10.371114   -0.425276   -1.472828
     55          6           0       11.656420   -0.067039   -2.322772
     56          6           0       10.450644    0.378573   -0.112036
     57          6           0        9.304548    1.334186   -0.195582
     58          6           0        9.482470    2.544616    0.778449
     59          6           0        8.529238    3.712730    0.667700
     60          6           0        9.342214    4.992410    0.081304
     61          6           0        7.844494    4.122857    2.018231
     62          6           0        6.425862    4.776331    1.879352
     63          6           0        5.337922    4.182414    2.842586
     64          6           0        4.003805    4.811780    2.633344
     65          6           0        3.368855    5.283322    3.863935
     66          6           0        3.074401    3.868357    1.778167
     67          1           0       -0.451439    2.380456   -0.261343
     68          1           0       -6.623117    4.012218   -1.348720
     69          1           0       -8.514719   -1.781180    0.213821
     70          1           0       -0.091413   -2.215623    1.172207
     71          1           0        0.371809   -0.209929   -0.956954
     72          1           0        0.705338    1.152503    1.595966
     73          1           0        1.994111    0.390810    0.580935
     74          1           0        1.299642   -0.424443    1.971422
     75          1           0        0.045371   -2.162688   -1.775765
     76          1           0       -0.812420   -3.433613   -1.202966
     77          1           0        0.904527   -4.554288   -0.247859
     78          1           0        1.749262   -3.132119    0.263061
     79          1           0       -1.517496    5.750639    0.544809
     80          1           0       -0.988246    5.858639   -1.134548
     81          1           0       -0.359513    4.649586   -0.171828
     82          1           0       -4.095898    8.033527   -1.604722
     83          1           0       -2.903851    7.080271   -2.480554
     84          1           0       -2.864143    7.214866   -0.587060
     85          1           0       -8.629288    2.543641   -1.856806
     86          1           0       -9.466774    0.553927    0.224910
     87          1           0       -8.809312    4.128105    0.193303
     88          1           0       -9.189093    2.628191    1.114610
     89          1           0      -10.206646    3.138602   -0.077976
     90          1           0       -9.770696   -1.055077   -1.795956
     91          1           0       -8.851730   -0.263590   -2.898300
     92          1           0      -11.573748    0.245027   -2.908021
     93          1           0      -10.394121    1.053734   -3.761927
     94          1           0      -10.940605    1.607108   -2.094129
     95          1           0       -8.193880   -4.436302    0.669211
     96          1           0       -7.917106   -3.907209    2.282171
     97          1           0       -6.989916   -5.372821    1.744868
     98          1           0       -2.071578   -4.694671    0.285183
     99          1           0        0.927797   -5.464820    3.105095
    100          1           0       -0.279862   -6.584649    3.768468
    101          1           0       -0.200696   -4.849098    4.204693
    102          1           0        4.580600   -3.099500   -2.837796
    103          1           0        4.429276   -4.865239   -2.584346
    104          1           0        5.942185   -4.129140   -0.275873
    105          1           0        6.766584   -3.292677   -3.941211
    106          1           0        7.959910   -4.541015   -3.650013
    107          1           0        8.467039   -2.910102   -3.396083
    108          1           0        9.190969   -4.430404   -1.599903
    109          1           0        8.304144   -4.437415   -0.116748
    110          1           0        8.999640   -2.256752    0.557522
    111          1           0        8.318042   -1.697507   -0.892147
    112          1           0       10.578562   -2.482454   -2.066134
    113          1           0       11.106693   -2.299640   -0.434089
    114          1           0        9.412654   -0.267346   -1.966688
    115          1           0       12.245685   -0.939215   -2.605009
    116          1           0       12.329859    0.654324   -1.858775
    117          1           0       11.291923    0.365121   -3.253786
    118          1           0       11.362194    0.973549   -0.054064
    119          1           0       10.341112   -0.211922    0.798077
    120          1           0        8.408926    0.833734    0.173652
    121          1           0        9.169516    1.797350   -1.172360
    122          1           0       10.471677    2.896729    0.483581
    123          1           0        9.551335    2.123563    1.781045
    124          1           0        7.777448    3.468553   -0.083470
    125          1           0        8.706563    5.303946   -0.748301
    126          1           0       10.349698    4.767945   -0.266756
    127          1           0        9.384117    5.870119    0.726421
    128          1           0        8.451533    4.900858    2.482279
    129          1           0        7.863356    3.392434    2.826397
    130          1           0        5.978607    4.661227    0.890856
    131          1           0        6.484570    5.861172    1.963198
    132          1           0        5.645685    4.244723    3.886332
    133          1           0        5.282574    3.108019    2.670328
    134          1           0        4.152318    5.676835    1.986739
    135          1           0        2.289463    5.144758    3.798462
    136          1           0        3.754105    6.240898    4.216036
    137          1           0        3.604874    4.648418    4.718594
    138          1           0        3.675550    3.143232    1.229981
    139          1           0        2.482280    4.413628    1.044364
    140          1           0        2.352957    3.357411    2.416005
 ---------------------------------------------------------------------

 SCF Done:  E(RwB97XD) =  -3007.86391865     A.U. after   19 cycles

 Excitation energies and oscillator strengths:

 Excited State   1:      Singlet-A      1.6324 eV  759.53 nm  f=0.3960  <S**2>=0.000
     245 -> 248        0.18702
     246 -> 247        0.68267
     245 <- 248        0.11762
 This state for optimization and/or second-order correction.
 Total Energy, E(TD-HF/TD-DFT) =  -3007.80392993
 Copying the excited state density for this state as the 1-particle RhoCI density.

 Excited State   2:      Singlet-A      2.1474 eV  577.37 nm  f=0.0875  <S**2>=0.000
     245 -> 247        0.63245
     246 -> 248       -0.30116

 Excited State   3:      Singlet-A      3.3528 eV  369.80 nm  f=0.0392  <S**2>=0.000
     244 -> 247        0.62426
     244 -> 249        0.10651
     246 -> 248        0.24292

 Excited State   4:      Singlet-A      3.5121 eV  353.02 nm  f=0.4561  <S**2>=0.000
     241 -> 247       -0.13558
     242 -> 247        0.37588
     244 -> 247       -0.17206
     245 -> 247        0.22067
     246 -> 248        0.49298

 Excited State   5:      Singlet-A      3.5278 eV  351.45 nm  f=0.0557  <S**2>=0.000
     241 -> 247        0.39479
     241 -> 248       -0.15012
     241 -> 249        0.24201
     241 -> 250        0.22210
     242 -> 247        0.31414
     242 -> 249        0.14624
     242 -> 250        0.12623
     246 -> 248       -0.16815

 The electronic state is 1-A.
 Alpha  occ. eigenvalues --  -46.95564 -19.30608 -19.29623 -19.25312 -19.24794
 Alpha  occ. eigenvalues --  -19.24074 -19.23381 -14.47212 -14.46741 -14.43935
 Alpha  occ. eigenvalues --  -14.43286 -10.43660 -10.43020 -10.39021 -10.38614
 Alpha  occ. eigenvalues --  -10.36267 -10.35862 -10.35619 -10.35434 -10.34811
 Alpha  occ. eigenvalues --  -10.34721 -10.34256 -10.33947 -10.33689 -10.33624
 Alpha  occ. eigenvalues --  -10.33203 -10.32764 -10.32481 -10.32410 -10.32094
 Alpha  occ. eigenvalues --  -10.32067 -10.32009 -10.31998 -10.31992 -10.31711
 Alpha  occ. eigenvalues --  -10.31404 -10.31270 -10.31207 -10.31063 -10.30895
 Alpha  occ. eigenvalues --  -10.30738 -10.30703 -10.30566 -10.30341 -10.30237
 Alpha  occ. eigenvalues --  -10.30152 -10.30092 -10.30016 -10.29920 -10.29760
 Alpha  occ. eigenvalues --  -10.29702 -10.29682 -10.29565 -10.29153 -10.28992
 Alpha  occ. eigenvalues --  -10.28981 -10.28971 -10.28941 -10.28770 -10.28723
 Alpha  occ. eigenvalues --  -10.28571 -10.28498 -10.28475 -10.28388 -10.27960
 Alpha  occ. eigenvalues --  -10.27916  -3.21395  -1.94999  -1.94490  -1.94372
 Alpha  occ. eigenvalues --   -1.20166  -1.17536  -1.12868  -1.11445  -1.09850
 Alpha  occ. eigenvalues --   -1.09415  -1.07374  -1.06283  -1.04023  -1.03124
 Alpha  occ. eigenvalues --   -0.95163  -0.92821  -0.92534  -0.91779  -0.91235
 Alpha  occ. eigenvalues --   -0.90582  -0.89577  -0.89132  -0.88860  -0.88021
 Alpha  occ. eigenvalues --   -0.87359  -0.87078  -0.86208  -0.85892  -0.84793
 Alpha  occ. eigenvalues --   -0.84327  -0.83769  -0.82751  -0.82495  -0.81844
 Alpha  occ. eigenvalues --   -0.81543  -0.80285  -0.80109  -0.79420  -0.78499
 Alpha  occ. eigenvalues --   -0.78167  -0.77886  -0.77063  -0.76364  -0.76248
 Alpha  occ. eigenvalues --   -0.75333  -0.74432  -0.73738  -0.72448  -0.71578
 Alpha  occ. eigenvalues --   -0.70964  -0.70146  -0.69182  -0.69003  -0.67778
 Alpha  occ. eigenvalues --   -0.67271  -0.67016  -0.66804  -0.66463  -0.66257
 Alpha  occ. eigenvalues --   -0.65574  -0.64930  -0.64618  -0.64571  -0.62272
 Alpha  occ. eigenvalues --   -0.61875  -0.61550  -0.61298  -0.61099  -0.60862
 Alpha  occ. eigenvalues --   -0.59357  -0.58774  -0.58047  -0.57575  -0.57493
 Alpha  occ. eigenvalues --   -0.57144  -0.57122  -0.56531  -0.56226  -0.56097
 Alpha  occ. eigenvalues --   -0.55726  -0.55410  -0.55023  -0.54852  -0.54615
 Alpha  occ. eigenvalues --   -0.54273  -0.54206  -0.53915  -0.53872  -0.53543
 Alpha  occ. eigenvalues --   -0.53454  -0.53410  -0.53187  -0.53005  -0.52555
 Alpha  occ. eigenvalues --   -0.52237  -0.51936  -0.51821  -0.51680  -0.51330
 Alpha  occ. eigenvalues --   -0.51283  -0.51090  -0.50769  -0.50625  -0.50346
 Alpha  occ. eigenvalues --   -0.50250  -0.50174  -0.50076  -0.49874  -0.49361
 Alpha  occ. eigenvalues --   -0.49295  -0.49150  -0.49118  -0.48795  -0.48647
 Alpha  occ. eigenvalues --   -0.48511  -0.48207  -0.47969  -0.47773  -0.47693
 Alpha  occ. eigenvalues --   -0.47507  -0.47375  -0.47033  -0.46999  -0.46879
 Alpha  occ. eigenvalues --   -0.46674  -0.46619  -0.46272  -0.45889  -0.45580
 Alpha  occ. eigenvalues --   -0.45562  -0.45364  -0.45258  -0.45150  -0.44921
 Alpha  occ. eigenvalues --   -0.44855  -0.44500  -0.44468  -0.44336  -0.44160
 Alpha  occ. eigenvalues --   -0.43913  -0.43732  -0.43588  -0.43515  -0.43317
 Alpha  occ. eigenvalues --   -0.43127  -0.42908  -0.42864  -0.42575  -0.42513
 Alpha  occ. eigenvalues --   -0.42224  -0.42208  -0.41643  -0.41066  -0.40835
 Alpha  occ. eigenvalues --   -0.39842  -0.39780  -0.39575  -0.39502  -0.39427
 Alpha  occ. eigenvalues --   -0.39241  -0.39158  -0.39007  -0.38851  -0.38731
 Alpha  occ. eigenvalues --   -0.38468  -0.38331  -0.36910  -0.36812  -0.36392
 Alpha  occ. eigenvalues --   -0.36127  -0.35531  -0.35413  -0.33273  -0.32963
 Alpha  occ. eigenvalues --   -0.32336  -0.32223  -0.32029  -0.31197  -0.25761
 Alpha  occ. eigenvalues --   -0.22696
 Alpha virt. eigenvalues --   -0.06856   0.00106   0.02261   0.04081   0.05489
 Alpha virt. eigenvalues --    0.07190   0.07776   0.08051   0.08257   0.09515
 Alpha virt. eigenvalues --    0.10651   0.11075   0.11318   0.12545   0.12667

 Mulliken charges:
               1
     1  Mg   0.950185
     2  C   -0.131055
     3  C   -0.074887
     4  C   -0.069067
     5  C   -0.092519
     6  N   -0.397291
     7  C    0.017790
     8  C   -0.051664
     9  C   -0.070230
    10  C    0.056924
    11  C    0.019172
    12  C    0.025916
    13  C   -0.015195
    14  C    0.213931
    15  O   -0.255148
    16  O   -0.408478
    17  N   -0.438945
    18  C    0.144127
    19  C   -0.153410
    20  C   -0.069630
    21  C    0.144971
    22  C    0.027343
    23  C    0.030350
    24  O   -0.267793
    25  C   -0.004060
    26  N   -0.375518
    27  C    0.084849
    28  C   -0.116640
    29  C   -0.026347
    30  C    0.024880
    31  C   -0.008230
    32  C   -0.012885
    33  C   -0.056963
    34  N   -0.352869
    35  C    0.153144
    36  C   -0.195224
    37  C   -0.066974
    38  C    0.188302
    39  C    0.092583
    40  C    0.110339
    41  O   -0.194930
    42  C   -0.019365
    43  C    0.236739
    44  O   -0.214461
    45  O   -0.348809
    46  C    0.129074
    47  C    0.239856
    48  C   -0.130631
    49  C   -0.190842
    50  C    0.047234
    51  C    0.037408
    52  C   -0.032808
    53  C   -0.025735
    54  C   -0.192367
    55  C    0.013069
    56  C    0.036537
    57  C   -0.086859
    58  C    0.011601
    59  C   -0.153302
    60  C   -0.024407
    61  C    0.033627
    62  C   -0.060087
    63  C    0.004733
    64  C   -0.201309
    65  C    0.024519
    66  C   -0.023760
    67  H   -0.011940
    68  H    0.024851
    69  H   -0.001719
    70  H    0.043336
    71  H    0.046990
    72  H    0.049811
    73  H    0.045574
    74  H    0.044052
    75  H    0.030711
    76  H    0.041901
    77  H    0.077924
    78  H    0.048940
    79  H    0.060780
    80  H    0.056896
    81  H    0.029445
    82  H    0.050625
    83  H    0.071756
    84  H    0.051424
    85  H    0.053664
    86  H    0.040779
    87  H    0.063152
    88  H    0.023731
    89  H    0.022994
    90  H    0.020795
    91  H    0.033740
    92  H    0.030807
    93  H    0.042944
    94  H    0.039482
    95  H    0.045916
    96  H    0.041878
    97  H    0.070373
    98  H    0.066838
    99  H    0.040062
   100  H    0.069350
   101  H    0.059222
   102  H    0.058084
   103  H    0.053020
   104  H    0.029675
   105  H    0.036060
   106  H    0.048640
   107  H    0.037302
   108  H    0.025832
   109  H    0.021865
   110  H    0.032183
   111  H    0.014805
   112  H    0.008028
   113  H    0.020342
   114  H    0.034171
   115  H    0.028734
   116  H    0.034004
   117  H    0.028837
   118  H    0.013861
   119  H    0.024008
   120  H    0.026476
   121  H    0.024706
   122  H   -0.001805
   123  H    0.009832
   124  H    0.024544
   125  H    0.025876
   126  H    0.037216
   127  H    0.031135
   128  H    0.013105
   129  H    0.016564
   130  H    0.011900
   131  H    0.021673
   132  H    0.011615
   133  H    0.012027
   134  H    0.020227
   135  H    0.021372
   136  H    0.035577
   137  H    0.009648
   138  H    0.027804
   139  H    0.027207
   140  H    0.028260
 Sum of Mulliken charges =  -0.00000

 Dipole moment (field-independent basis, Debye):
    X=              3.8554    Y=              0.9160    Z=             -0.9370  Tot=              4.0720
 Quadrupole moment (field-independent basis, Debye-Ang):
   XX=           -355.7494   YY=           -425.2593   ZZ=           -408.9802
   XY=              1.4550   XZ=              8.4446   YZ=              5.7727

 Normal termination of Gaussian 16 at Wed May  4 20:05:01 2022.
