 Gaussian 16, Revision A.03,
 Gaussian 16:  ES64L-G16RevA.03 25-Dec-2016

 --------------------
 #p ZINDO=(nstates=5)
 --------------------

 -----------------------------
 step_401_chromophore_12 ZINDO
 -----------------------------
 Symbolic Z-matrix:
 Charge =  0 Multiplicity = 1

                         Standard orientation:
 ---------------------------------------------------------------------
 Center     Atomic      Atomic             Coordinates (Angstroms)
 Number     Number       Type             X           Y           Z
 ---------------------------------------------------------------------
      1         12           0       -4.489037    0.298133   -0.351787
      2          6           0       -2.894441   -2.747163    0.597557
      3          6           0       -1.421248    1.879016   -0.244898
      4          6           0       -6.068375    3.167000   -0.935056
      5          6           0       -7.504599   -1.372771    0.135593
      6          7           0       -2.449287   -0.396714    0.098545
      7          6           0       -1.954251   -1.696602    0.305840
      8          6           0       -0.470892   -1.797688    0.239712
      9          6           0        0.034679   -0.292573    0.076304
     10          6           0       -1.330032    0.487831    0.019486
     11          6           0        1.068121    0.234681    1.134375
     12          6           0       -0.061010   -2.726940   -0.849797
     13          6           0        1.174859   -3.546751   -0.564904
     14          6           0        2.252710   -3.693494   -1.664310
     15          8           0        2.087246   -3.759758   -2.867788
     16          8           0        3.550610   -3.755834   -1.111790
     17          7           0       -3.818978    2.317074   -0.616908
     18          6           0       -2.534681    2.769829   -0.464515
     19          6           0       -2.524100    4.241138   -0.548538
     20          6           0       -3.901991    4.595421   -1.017076
     21          6           0       -4.677703    3.361227   -0.856932
     22          6           0       -1.301228    5.168059   -0.351559
     23          6           0       -4.404308    5.989679   -1.408269
     24          8           0       -5.607327    6.217068   -1.687577
     25          6           0       -3.417918    7.183530   -1.525459
     26          7           0       -6.503720    0.792470   -0.391067
     27          6           0       -6.907402    2.027346   -0.673841
     28          6           0       -8.429008    2.084660   -0.888817
     29          6           0       -8.866871    0.598220   -0.683553
     30          6           0       -7.557911   -0.077154   -0.349826
     31          6           0       -9.137882    3.090950    0.129435
     32          6           0       -9.504406   -0.031195   -2.056943
     33          6           0      -10.639615    0.779597   -2.736638
     34          7           0       -5.135176   -1.652532    0.385554
     35          6           0       -6.403719   -2.119663    0.490727
     36          6           0       -6.280086   -3.482856    1.069170
     37          6           0       -4.916956   -3.757773    1.025347
     38          6           0       -4.273113   -2.596223    0.618075
     39          6           0       -7.435316   -4.422513    1.452028
     40          6           0       -3.958944   -4.785738    1.362087
     41          8           0       -4.118979   -5.903037    1.806729
     42          6           0       -2.609324   -4.212044    1.101251
     43          6           0       -1.822036   -4.234812    2.345691
     44          8           0       -1.959567   -3.529942    3.298613
     45          8           0       -0.919371   -5.226640    2.239597
     46          6           0       -0.117837   -5.573965    3.395263
     47          6           0        4.643290   -3.907743   -2.109028
     48          6           0        6.025108   -3.992739   -1.353906
     49          6           0        7.245698   -3.763733   -1.868344
     50          6           0        7.604409   -3.571243   -3.302602
     51          6           0        8.453138   -3.863490   -1.031244
     52          6           0        9.005432   -2.454325   -0.514800
     53          6           0       10.328256   -1.986003   -1.128484
     54          6           0       10.371114   -0.425276   -1.472828
     55          6           0       11.656420   -0.067039   -2.322772
     56          6           0       10.450644    0.378573   -0.112036
     57          6           0        9.304548    1.334186   -0.195582
     58          6           0        9.482470    2.544616    0.778449
     59          6           0        8.529238    3.712730    0.667700
     60          6           0        9.342214    4.992410    0.081304
     61          6           0        7.844494    4.122857    2.018231
     62          6           0        6.425862    4.776331    1.879352
     63          6           0        5.337922    4.182414    2.842586
     64          6           0        4.003805    4.811780    2.633344
     65          6           0        3.368855    5.283322    3.863935
     66          6           0        3.074401    3.868357    1.778167
     67          1           0       -0.451439    2.380456   -0.261343
     68          1           0       -6.623117    4.012218   -1.348720
     69          1           0       -8.514719   -1.781180    0.213821
     70          1           0       -0.091413   -2.215623    1.172207
     71          1           0        0.371809   -0.209929   -0.956954
     72          1           0        0.705338    1.152503    1.595966
     73          1           0        1.994111    0.390810    0.580935
     74          1           0        1.299642   -0.424443    1.971422
     75          1           0        0.045371   -2.162688   -1.775765
     76          1           0       -0.812420   -3.433613   -1.202966
     77          1           0        0.904527   -4.554288   -0.247859
     78          1           0        1.749262   -3.132119    0.263061
     79          1           0       -1.517496    5.750639    0.544809
     80          1           0       -0.988246    5.858639   -1.134548
     81          1           0       -0.359513    4.649586   -0.171828
     82          1           0       -4.095898    8.033527   -1.604722
     83          1           0       -2.903851    7.080271   -2.480554
     84          1           0       -2.864143    7.214866   -0.587060
     85          1           0       -8.629288    2.543641   -1.856806
     86          1           0       -9.466774    0.553927    0.224910
     87          1           0       -8.809312    4.128105    0.193303
     88          1           0       -9.189093    2.628191    1.114610
     89          1           0      -10.206646    3.138602   -0.077976
     90          1           0       -9.770696   -1.055077   -1.795956
     91          1           0       -8.851730   -0.263590   -2.898300
     92          1           0      -11.573748    0.245027   -2.908021
     93          1           0      -10.394121    1.053734   -3.761927
     94          1           0      -10.940605    1.607108   -2.094129
     95          1           0       -8.193880   -4.436302    0.669211
     96          1           0       -7.917106   -3.907209    2.282171
     97          1           0       -6.989916   -5.372821    1.744868
     98          1           0       -2.071578   -4.694671    0.285183
     99          1           0        0.927797   -5.464820    3.105095
    100          1           0       -0.279862   -6.584649    3.768468
    101          1           0       -0.200696   -4.849098    4.204693
    102          1           0        4.580600   -3.099500   -2.837796
    103          1           0        4.429276   -4.865239   -2.584346
    104          1           0        5.942185   -4.129140   -0.275873
    105          1           0        6.766584   -3.292677   -3.941211
    106          1           0        7.959910   -4.541015   -3.650013
    107          1           0        8.467039   -2.910102   -3.396083
    108          1           0        9.190969   -4.430404   -1.599903
    109          1           0        8.304144   -4.437415   -0.116748
    110          1           0        8.999640   -2.256752    0.557522
    111          1           0        8.318042   -1.697507   -0.892147
    112          1           0       10.578562   -2.482454   -2.066134
    113          1           0       11.106693   -2.299640   -0.434089
    114          1           0        9.412654   -0.267346   -1.966688
    115          1           0       12.245685   -0.939215   -2.605009
    116          1           0       12.329859    0.654324   -1.858775
    117          1           0       11.291923    0.365121   -3.253786
    118          1           0       11.362194    0.973549   -0.054064
    119          1           0       10.341112   -0.211922    0.798077
    120          1           0        8.408926    0.833734    0.173652
    121          1           0        9.169516    1.797350   -1.172360
    122          1           0       10.471677    2.896729    0.483581
    123          1           0        9.551335    2.123563    1.781045
    124          1           0        7.777448    3.468553   -0.083470
    125          1           0        8.706563    5.303946   -0.748301
    126          1           0       10.349698    4.767945   -0.266756
    127          1           0        9.384117    5.870119    0.726421
    128          1           0        8.451533    4.900858    2.482279
    129          1           0        7.863356    3.392434    2.826397
    130          1           0        5.978607    4.661227    0.890856
    131          1           0        6.484570    5.861172    1.963198
    132          1           0        5.645685    4.244723    3.886332
    133          1           0        5.282574    3.108019    2.670328
    134          1           0        4.152318    5.676835    1.986739
    135          1           0        2.289463    5.144758    3.798462
    136          1           0        3.754105    6.240898    4.216036
    137          1           0        3.604874    4.648418    4.718594
    138          1           0        3.675550    3.143232    1.229981
    139          1           0        2.482280    4.413628    1.044364
    140          1           0        2.352957    3.357411    2.416005
 ---------------------------------------------------------------------

 SCF Done:  E(RZINDO/S) =  -474.119294448     A.U. after   19 cycles

 Excitation energies and oscillator strengths:

 Excited State   1:      Singlet-A      1.2439 eV  996.73 nm  f=0.6195  <S**2>=0.000
     175 ->178         0.19175
     176 ->177         0.66336
 This state for optimization and/or second-order correction.
 Total Energy, E(CIS/TDA) =  -474.073581411
 Copying the excited state density for this state as the 1-particle RhoCI density.

 Excited State   2:      Singlet-A      1.9059 eV  650.54 nm  f=0.0317  <S**2>=0.000
     175 ->177         0.54224
     176 ->178        -0.42975

 Excited State   3:      Singlet-A      2.9519 eV  420.01 nm  f=0.0314  <S**2>=0.000
     167 ->179        -0.14172
     168 ->177         0.28659
     168 ->179        -0.33804
     168 ->180         0.19782
     168 ->186        -0.15049
     169 ->179        -0.17984
     176 ->179         0.26587

 Excited State   4:      Singlet-A      2.9721 eV  417.16 nm  f=0.1378  <S**2>=0.000
     168 ->179         0.21068
     168 ->186         0.11097
     169 ->177        -0.17272
     169 ->180        -0.18406
     169 ->187        -0.11043
     170 ->177        -0.16479
     170 ->179        -0.14829
     170 ->180        -0.24703
     170 ->186        -0.11818
     170 ->187        -0.11429
     174 ->177        -0.11192
     175 ->177        -0.13955
     176 ->178        -0.19259
     176 ->179         0.24899
     176 ->180         0.13428

 Excited State   5:      Singlet-A      3.0117 eV  411.68 nm  f=0.3549  <S**2>=0.000
     168 ->177        -0.11288
     168 ->180        -0.13372
     169 ->179         0.13855
     169 ->180         0.17322
     169 ->186         0.10017
     170 ->177         0.15584
     170 ->179         0.13321
     170 ->180         0.17524
     170 ->187         0.10981
     175 ->177        -0.20812
     176 ->178        -0.27235
     176 ->179         0.34105
     176 ->180         0.12823

 The electronic state is 1-A.
 Alpha  occ. eigenvalues --   -1.87112  -1.80834  -1.76989  -1.74902  -1.71349
 Alpha  occ. eigenvalues --   -1.68969  -1.65002  -1.61872  -1.61217  -1.56909
 Alpha  occ. eigenvalues --   -1.55075  -1.51305  -1.49812  -1.49227  -1.45218
 Alpha  occ. eigenvalues --   -1.44474  -1.43503  -1.39248  -1.38820  -1.36429
 Alpha  occ. eigenvalues --   -1.34639  -1.32970  -1.31364  -1.30111  -1.28676
 Alpha  occ. eigenvalues --   -1.27119  -1.24535  -1.21792  -1.19542  -1.19209
 Alpha  occ. eigenvalues --   -1.17512  -1.16298  -1.16164  -1.15076  -1.13635
 Alpha  occ. eigenvalues --   -1.11683  -1.11254  -1.09875  -1.05336  -1.04073
 Alpha  occ. eigenvalues --   -1.02144  -1.01568  -0.97736  -0.97455  -0.96599
 Alpha  occ. eigenvalues --   -0.96178  -0.94829  -0.93777  -0.92868  -0.92368
 Alpha  occ. eigenvalues --   -0.92324  -0.91097  -0.88139  -0.87885  -0.87264
 Alpha  occ. eigenvalues --   -0.86117  -0.84456  -0.83179  -0.81981  -0.80848
 Alpha  occ. eigenvalues --   -0.80249  -0.79800  -0.77612  -0.77384  -0.76448
 Alpha  occ. eigenvalues --   -0.75938  -0.75321  -0.73993  -0.73803  -0.73239
 Alpha  occ. eigenvalues --   -0.72625  -0.72096  -0.71860  -0.71513  -0.70307
 Alpha  occ. eigenvalues --   -0.69703  -0.69380  -0.68368  -0.68113  -0.67700
 Alpha  occ. eigenvalues --   -0.67596  -0.67229  -0.66656  -0.66201  -0.65876
 Alpha  occ. eigenvalues --   -0.65525  -0.64819  -0.64799  -0.63782  -0.63376
 Alpha  occ. eigenvalues --   -0.63042  -0.62755  -0.62222  -0.62131  -0.62025
 Alpha  occ. eigenvalues --   -0.61897  -0.60976  -0.60763  -0.60530  -0.59987
 Alpha  occ. eigenvalues --   -0.59594  -0.59480  -0.59002  -0.58446  -0.58311
 Alpha  occ. eigenvalues --   -0.57837  -0.57479  -0.57330  -0.56694  -0.56321
 Alpha  occ. eigenvalues --   -0.55825  -0.55582  -0.55558  -0.54869  -0.54733
 Alpha  occ. eigenvalues --   -0.54530  -0.53915  -0.53603  -0.53225  -0.53132
 Alpha  occ. eigenvalues --   -0.52864  -0.52740  -0.52380  -0.51696  -0.51456
 Alpha  occ. eigenvalues --   -0.51245  -0.51109  -0.50877  -0.50720  -0.50382
 Alpha  occ. eigenvalues --   -0.50063  -0.49813  -0.49626  -0.49591  -0.49324
 Alpha  occ. eigenvalues --   -0.49062  -0.48890  -0.48360  -0.48066  -0.47941
 Alpha  occ. eigenvalues --   -0.47801  -0.47637  -0.47406  -0.46936  -0.46361
 Alpha  occ. eigenvalues --   -0.46142  -0.45847  -0.45577  -0.45489  -0.45235
 Alpha  occ. eigenvalues --   -0.44941  -0.44873  -0.44710  -0.44213  -0.43965
 Alpha  occ. eigenvalues --   -0.43751  -0.43635  -0.43442  -0.42889  -0.42849
 Alpha  occ. eigenvalues --   -0.42271  -0.41959  -0.41353  -0.39301  -0.39044
 Alpha  occ. eigenvalues --   -0.38669  -0.37060  -0.35494  -0.35063  -0.34473
 Alpha  occ. eigenvalues --   -0.33504  -0.32517  -0.32128  -0.31435  -0.26521
 Alpha  occ. eigenvalues --   -0.21620
 Alpha virt. eigenvalues --   -0.08432  -0.02110  -0.00774   0.01154   0.01712
 Alpha virt. eigenvalues --    0.02002   0.02866   0.03012   0.04737   0.04783
 Alpha virt. eigenvalues --    0.06119   0.06842   0.07305   0.07629   0.07833

 Mulliken charges:
               1
     1  Mg   0.427823
     2  C   -0.083089
     3  C   -0.076238
     4  C   -0.054737
     5  C   -0.055357
     6  N   -0.309002
     7  C    0.154613
     8  C    0.021217
     9  C    0.000938
    10  C    0.096053
    11  C   -0.048273
    12  C   -0.012501
    13  C    0.010670
    14  C    0.457490
    15  O   -0.507246
    16  O   -0.290071
    17  N   -0.318801
    18  C    0.102623
    19  C   -0.019455
    20  C   -0.058103
    21  C    0.130406
    22  C   -0.041977
    23  C    0.314801
    24  O   -0.541517
    25  C   -0.036932
    26  N   -0.244601
    27  C    0.118021
    28  C    0.001077
    29  C    0.007219
    30  C    0.126852
    31  C   -0.060996
    32  C   -0.034072
    33  C   -0.059864
    34  N   -0.318752
    35  C    0.108609
    36  C    0.039471
    37  C   -0.050765
    38  C    0.150615
    39  C   -0.041384
    40  C    0.348226
    41  O   -0.519103
    42  C    0.055699
    43  C    0.504865
    44  O   -0.519842
    45  O   -0.269480
    46  C    0.073836
    47  C    0.100631
    48  C   -0.104831
    49  C    0.014054
    50  C   -0.040251
    51  C   -0.015169
    52  C   -0.038748
    53  C   -0.040725
    54  C   -0.020819
    55  C   -0.059778
    56  C   -0.034236
    57  C   -0.037519
    58  C   -0.047112
    59  C   -0.005394
    60  C   -0.068396
    61  C   -0.037735
    62  C   -0.040589
    63  C   -0.027207
    64  C    0.000875
    65  C   -0.050489
    66  C   -0.060772
    67  H    0.018126
    68  H    0.042252
    69  H    0.022309
    70  H    0.035959
    71  H    0.037599
    72  H    0.029124
    73  H    0.020225
    74  H    0.026025
    75  H    0.027957
    76  H    0.023431
    77  H    0.048202
    78  H    0.031374
    79  H    0.028093
    80  H    0.030050
    81  H    0.017564
    82  H    0.035670
    83  H    0.049290
    84  H    0.043371
    85  H    0.038866
    86  H    0.047222
    87  H    0.038421
    88  H    0.015589
    89  H    0.007864
    90  H    0.013948
    91  H    0.029813
    92  H    0.014497
    93  H    0.025434
    94  H    0.023482
    95  H    0.034552
    96  H    0.031607
    97  H    0.046705
    98  H    0.053351
    99  H    0.023672
   100  H    0.048201
   101  H    0.047811
   102  H    0.055026
   103  H    0.048941
   104  H    0.034164
   105  H    0.023996
   106  H    0.027817
   107  H    0.028388
   108  H    0.022956
   109  H    0.014024
   110  H    0.030497
   111  H    0.010905
   112  H    0.012212
   113  H    0.014898
   114  H    0.036682
   115  H    0.020355
   116  H    0.025662
   117  H    0.012608
   118  H    0.023088
   119  H    0.025767
   120  H    0.016116
   121  H    0.023785
   122  H    0.012266
   123  H    0.015912
   124  H    0.023895
   125  H    0.010426
   126  H    0.026616
   127  H    0.022606
   128  H    0.010635
   129  H    0.023151
   130  H    0.014882
   131  H    0.019609
   132  H    0.014001
   133  H    0.014585
   134  H    0.013428
   135  H    0.019679
   136  H    0.021957
   137  H    0.006360
   138  H    0.017185
   139  H    0.013854
   140  H    0.018654
 Sum of Mulliken charges =  -0.00000

 Dipole moment (field-independent basis, Debye):
    X=              4.3351    Y=             -0.2191    Z=             -1.1615  Tot=              4.4934
 N-N= 4.424963654406D+03 E-N= 0.000000000000D+00  KE=-9.523898704825D+03
 Leave Link  601 at Wed May  4 20:18:39 2022, MaxMem=  6710886400 cpu:               4.4 elap:               0.2
 (Enter /sw/apps/gaussian-16.0/g16/l9999.exe)
 1\1\GINC-BP1-COMPUTE219\SP\RZINDO CIS\STO-3G\C55H74Mg1N4O6\OF15641\04-
 May-2022\0\\#p ZINDO=(nstates=5)\\step_401_chromophore_12 ZINDO\\0,1\M
 g,0,47.501,14.766,27.522\C,0,45.534,14.866,30.495\C,0,49.486,17.28,28.
 811\C,0,49.107,14.843,24.61\C,0,45.06,12.647,26.228\N,0,47.484,15.876,
 29.423\C,0,46.718,15.68,30.586\C,0,47.231,16.407,31.779\C,0,48.448,17.
 283,31.232\C,0,48.48,16.857,29.718\C,0,48.392,18.83,31.495\C,0,47.577,
 15.447,32.864\C,0,47.314,15.94,34.267\C,0,48.384,15.711,35.36\O,0,49.1

 Normal termination of Gaussian 16 at Wed May  4 20:18:39 2022.
